<event>
 9    2  0.1654290E-004  0.9374461E+02  0.7546771E-02  0.1297186E+00
         -3   -1    0    0    0  501 -0.00000000000E+00  0.00000000000E+00  0.60548486491E+02  0.60548486491E+02  0.00000000000E+00 0.  1.
         21   -1    0    0  501  502  0.00000000000E+00 -0.00000000000E+00 -0.28081644952E+03  0.28081644952E+03  0.00000000000E+00 0.  1.
         23    2    1    2    0    0  0.18704902392E+02  0.32361411169E+02 -0.56802006434E+02  0.11059897516E+03  0.87226894160E+02 0.  0.
         24    2    1    2    0    0  0.40090040056E+02 -0.33878120474E+02 -0.67109705612E+02  0.11787808388E+03  0.81465279184E+02 0.  0.
        -11    1    4    4    0    0  0.14777687146E+02 -0.21593103385E+02  0.15634669195E+02  0.30480896182E+02  0.00000000000E+00 0.  1.
         12    1    4    4    0    0  0.25312352909E+02 -0.12285017089E+02 -0.82744374808E+02  0.87397187695E+02  0.00000000000E+00 0. -1.
        -11    1    3    3    0    0  0.41718449928E+02  0.14911718391E+02  0.27755358802E+01  0.44390224253E+02  0.00000000000E+00 0. -1.
         11    1    3    3    0    0 -0.23013547536E+02  0.17449692779E+02 -0.59577542315E+02  0.66208750906E+02  0.00000000000E+00 0.  1.
         -4    1    1    2    0  502 -0.58794942448E+02  0.15167093043E+01 -0.96356250984E+02  0.11288787698E+03  0.00000000000E+00 0.  1.
<scales pt_clust_5="13000.00000" pt_clust_6="13000.00000" pt_clust_7="13000.00000" pt_clust_8="13000.00000" pt_clust_9="58.81450"></scales>
<clustering>
<clus scale="   58.815">  2  9  1 -1</clus>
<clus scale="   81.465">  5  6 -1 -1</clus>
<clus scale="   87.227">  7  8 -1 -1</clus>
<clus scale="   88.409">  2  5  1 -1</clus>
<clus scale="   58.815">  2  5  1 -1</clus>
</clustering>
</event>
<event>
 9    2  0.1654290E-004  0.2461923E+03  0.7546771E-02  0.1116297E+00
         21   -1    0    0  501  502  0.00000000000E+00  0.00000000000E+00  0.99251985779E+02  0.99251985779E+02  0.00000000000E+00 0. -1.
          2   -1    0    0  502    0 -0.00000000000E+00 -0.00000000000E+00 -0.14206921026E+04  0.14206921026E+04  0.00000000000E+00 0. -1.
         24    2    1    2    0    0  0.26462419042E+03 -0.24841276021E+02 -0.72677136373E+03  0.77828337790E+03  0.82978009290E+02 0.  0.
         23    2    1    2    0    0 -0.14580563073E+03 -0.11170005245E+03 -0.13089380941E+03  0.24381677620E+03  0.92613429622E+02 0.  0.
        -13    1    3    3    0    0  0.84384281243E+02  0.30298441203E+02 -0.25128292013E+03  0.26679919117E+03  0.00000000000E+00 0.  1.
         14    1    3    3    0    0  0.18023990917E+03 -0.55139717224E+02 -0.47548844359E+03  0.51148418672E+03  0.00000000000E+00 0. -1.
        -13    1    4    4    0    0 -0.18859931808E+02 -0.34103764723E+02 -0.75669485269E+02  0.85115420441E+02  0.00000000000E+00 0.  1.
         13    1    4    4    0    0 -0.12694569892E+03 -0.77596287730E+02 -0.55224324140E+02  0.15870135576E+03  0.00000000000E+00 0. -1.
          1    1    1    2  501    0 -0.11881855969E+03  0.13654132847E+03 -0.46377494365E+03  0.49784393425E+03  0.00000000000E+00 0. -1.
<scales pt_clust_5="13000.00000" pt_clust_6="13000.00000" pt_clust_7="13000.00000" pt_clust_8="13000.00000" pt_clust_9="181.00115"></scales>
<clustering>
<clus scale="   82.978">  5  6 -1 -1</clus>
<clus scale="   92.613">  7  8 -1 -1</clus>
<clus scale="  181.001">  1  9  2 -1</clus>
<clus scale="  242.732">  2  5  1 -1</clus>
<clus scale="  181.001">  1  5  2 -1</clus>
</clustering>
</event>
<event>
 9    2  0.1654290E-004  0.1086325E+03  0.7546771E-02  0.1267433E+00
          2   -1    0    0  502    0 -0.00000000000E+00  0.00000000000E+00  0.18264138292E+03  0.18264138292E+03  0.00000000000E+00 0. -1.
         21   -1    0    0  501  502  0.00000000000E+00 -0.00000000000E+00 -0.21744719935E+03  0.21744719935E+03  0.00000000000E+00 0. -1.
         24    2    1    2    0    0 -0.41458518556E+02 -0.28856428225E+01 -0.10934702194E+02  0.92274261228E+02  0.81656817706E+02 0.  0.
         23    2    1    2    0    0  0.10526090680E+03  0.12209771378E+02 -0.12491489549E+03  0.18794968969E+03  0.92154314725E+02 0.  0.
        -13    1    3    3    0    0 -0.32388626212E+02 -0.10168111099E+02 -0.44948003558E+02  0.56327050474E+02  0.00000000000E+00 0.  1.
         14    1    3    3    0    0 -0.90698923444E+01  0.72824682763E+01  0.34013301364E+02  0.35947210755E+02  0.00000000000E+00 0. -1.
        -13    1    4    4    0    0  0.43876450893E+02  0.12452732406E+02  0.33709575205E+01  0.45733760417E+02  0.00000000000E+00 0.  1.
         13    1    4    4    0    0  0.61384455911E+02 -0.24296102800E+00 -0.12828585301E+03  0.14221592927E+03  0.00000000000E+00 0. -1.
          1    1    1    2  501    0 -0.63802388248E+02 -0.93241285555E+01  0.10104378125E+03  0.11986463135E+03  0.00000000000E+00 0. -1.
<scales pt_clust_5="13000.00000" pt_clust_6="13000.00000" pt_clust_7="13000.00000" pt_clust_8="13000.00000" pt_clust_9="64.48014"></scales>
<clustering>
<clus scale="   64.480">  2  9  1 -1</clus>
<clus scale="   81.657">  5  6 -1 -1</clus>
<clus scale="   92.154">  7  8 -1 -1</clus>
<clus scale="   99.882">  1  5  2 -1</clus>
<clus scale="   64.480">  2  5  1 -1</clus>
</clustering>
</event>
<event>
 9    2  0.1654290E-004  0.1241195E+03  0.7546771E-02  0.1241059E+00
         21   -1    0    0  501  502  0.00000000000E+00  0.00000000000E+00  0.14651377237E+03  0.14651377237E+03  0.00000000000E+00 0. -1.
         -1   -1    0    0    0  501 -0.00000000000E+00 -0.00000000000E+00 -0.48097289269E+03  0.48097289269E+03  0.00000000000E+00 0.  1.
         23    2    1    2    0    0 -0.37950619590E+02  0.55267958487E+02 -0.14423707334E+03  0.18323622185E+03  0.90974627832E+02 0.  0.
         24    2    1    2    0    0 -0.14157986475E+02  0.86401748361E+02  0.73664124581E+02  0.14024135748E+03  0.81089607199E+02 0.  0.
        -13    1    4    4    0    0  0.32689385788E+02  0.36343281365E+02  0.18580474154E+02  0.52294015560E+02  0.00000000000E+00 0.  1.
         14    1    4    4    0    0 -0.46847372263E+02  0.50058466996E+02  0.55083650427E+02  0.87947341917E+02  0.00000000000E+00 0. -1.
        -13    1    3    3    0    0  0.12095167429E+02  0.42283157775E+02 -0.11658287468E+03  0.12460226793E+03  0.00000000000E+00 0. -1.
         13    1    3    3    0    0 -0.50045787020E+02  0.12984800713E+02 -0.27654198664E+02  0.58633953915E+02  0.00000000000E+00 0.  1.
         -2    1    1    2    0  502  0.52108606065E+02 -0.14166970685E+03 -0.26388617156E+03  0.30400908573E+03  0.00000000000E+00 0.  1.
<scales pt_clust_5="13000.00000" pt_clust_6="13000.00000" pt_clust_7="13000.00000" pt_clust_8="13000.00000" pt_clust_9="93.96881"></scales>
<clustering>
<clus scale="   81.090">  5  6 -1 -1</clus>
<clus scale="   90.975">  7  8 -1 -1</clus>
<clus scale="  113.010">  2  7  1 -1</clus>
<clus scale="   93.969">  1  9  2 -1</clus>
<clus scale="   93.969">  1  5  2 -1</clus>
</clustering>
</event>
<event>
 9    2  0.1654290E-004  0.9698608E+02  0.7546771E-02  0.1293942E+00
          4   -1    0    0  502    0 -0.00000000000E+00  0.00000000000E+00  0.81936310928E+02  0.81936310928E+02  0.00000000000E+00 0. -1.
         21   -1    0    0  501  502  0.00000000000E+00 -0.00000000000E+00 -0.26856627345E+03  0.26856627345E+03  0.00000000000E+00 0.  1.
         23    2    1    2    0    0  0.34242018167E+02 -0.56170312229E+02 -0.62748558574E+02  0.12857456123E+03  0.90919835067E+02 0.  0.
         24    2    1    2    0    0 -0.71182153228E+00 -0.13420780670E+02 -0.12119532956E+03  0.14463372004E+03  0.77781623921E+02 0.  0.
        -11    1    4    4    0    0 -0.20852301961E+02 -0.29684964064E+02 -0.11105692700E+03  0.11683174493E+03  0.00000000000E+00 0.  1.
         12    1    4    4    0    0  0.20140480429E+02  0.16264183394E+02 -0.10138402566E+02  0.27801975109E+02  0.00000000000E+00 0. -1.
        -11    1    3    3    0    0  0.31669154091E+02  0.11847352559E+02 -0.48353026815E+02  0.59002629481E+02  0.00000000000E+00 0.  1.
         11    1    3    3    0    0  0.25728640760E+01 -0.68017664788E+02 -0.14395531759E+02  0.69571931750E+02  0.00000000000E+00 0. -1.
          3    1    1    2  501    0 -0.33530196635E+02  0.69591092899E+02 -0.26860743806E+01  0.77294303108E+02  0.00000000000E+00 0. -1.
<scales pt_clust_5="13000.00000" pt_clust_6="13000.00000" pt_clust_7="13000.00000" pt_clust_8="13000.00000" pt_clust_9="77.24766"></scales>
<clustering>
<clus scale="   77.248">  2  9  1 -1</clus>
<clus scale="   77.782">  5  6 -1 -1</clus>
<clus scale="   84.793">  2  5  1 -1</clus>
<clus scale="   90.920">  7  8 -1 -1</clus>
<clus scale="   77.248">  2  5  1 -1</clus>
</clustering>
</event>
<event>
 9    2  0.1654290E-004  0.1819432E+03  0.7546771E-02  0.1196869E+00
         -3   -1    0    0    0  501 -0.00000000000E+00  0.00000000000E+00  0.13412437347E+03  0.13412437347E+03  0.00000000000E+00 0.  1.
         21   -1    0    0  501  502  0.00000000000E+00 -0.00000000000E+00 -0.41954514180E+03  0.41954514180E+03  0.00000000000E+00 0.  1.
         24    2    1    2    0    0 -0.57187766707E+02  0.77614515773E+01 -0.13075715759E+03  0.15925707000E+03  0.70247414846E+02 0.  0.
         23    2    1    2    0    0  0.16790691080E+03  0.84823701631E+02 -0.48253826430E+02  0.21509768943E+03  0.92470498966E+02 0.  0.
        -11    1    3    3    0    0 -0.17159926592E+02  0.18193856738E+02 -0.32643759903E+01  0.25221729803E+02  0.00000000000E+00 0.  1.
         12    1    3    3    0    0 -0.40027840115E+02 -0.10432405161E+02 -0.12749278160E+03  0.13403534020E+03  0.00000000000E+00 0. -1.
        -11    1    4    4    0    0  0.73105768282E+02 -0.75889769824E+01 -0.36843060813E+02  0.82215917302E+02  0.00000000000E+00 0. -1.
         11    1    4    4    0    0  0.94801142521E+02  0.92412678613E+02 -0.11410765616E+02  0.13288177213E+03  0.00000000000E+00 0.  1.
         -4    1    1    2    0  502 -0.11071914410E+03 -0.92585153208E+02 -0.10640978431E+03  0.17931475584E+03  0.00000000000E+00 0.  1.
<scales pt_clust_5="13000.00000" pt_clust_6="13000.00000" pt_clust_7="13000.00000" pt_clust_8="13000.00000" pt_clust_9="156.69251"></scales>
<clustering>
<clus scale="   70.247">  5  6 -1 -1</clus>
<clus scale="   90.914">  1  5  2 -1</clus>
<clus scale="   92.470">  7  8 -1 -1</clus>
<clus scale="  156.693">  2  9  1 -1</clus>
<clus scale="  156.693">  2  5  1 -1</clus>
</clustering>
</event>
<event>
 9    2  0.1654290E-004  0.1603418E+03  0.7546771E-02  0.1190435E+00
         21   -1    0    0  501  502  0.00000000000E+00  0.00000000000E+00  0.28898004285E+03  0.28898004285E+03  0.00000000000E+00 0. -1.
         -3   -1    0    0    0  501 -0.00000000000E+00 -0.00000000000E+00 -0.29377614071E+03  0.29377614071E+03  0.00000000000E+00 0.  1.
         24    2    1    2    0    0 -0.12249205240E+03 -0.60407867951E+02 -0.99235219052E+02  0.18667833856E+03  0.79672830845E+02 0.  0.
         23    2    1    2    0    0  0.40977167982E+02  0.12989060683E+03  0.19065584944E+03  0.25209803330E+03  0.93021865332E+02 0.  0.
        -11    1    3    3    0    0 -0.50363482937E+02  0.76616583226E+01 -0.73341790351E+01  0.51468161070E+02  0.00000000000E+00 0.  1.
         12    1    3    3    0    0 -0.72128569459E+02 -0.68069526274E+02 -0.91901040017E+02  0.13521017749E+03  0.00000000000E+00 0. -1.
        -11    1    4    4    0    0 -0.15893627443E+02  0.70112909121E+02  0.45348181842E+02  0.84999323615E+02  0.00000000000E+00 0. -1.
         11    1    4    4    0    0  0.56870795425E+02  0.59777697706E+02  0.14530766760E+03  0.16709870968E+03  0.00000000000E+00 0.  1.
         -4    1    1    2    0  502  0.81514884414E+02 -0.69482738875E+02 -0.96216728245E+02  0.14397981170E+03  0.00000000000E+00 0.  1.
<scales pt_clust_5="13000.00000" pt_clust_6="13000.00000" pt_clust_7="13000.00000" pt_clust_8="13000.00000" pt_clust_9="107.10994"></scales>
<clustering>
<clus scale="   79.673">  5  6 -1 -1</clus>
<clus scale="   93.022">  7  8 -1 -1</clus>
<clus scale="  107.110">  1  9  2 -1</clus>
<clus scale="  152.984">  2  5  1 -1</clus>
<clus scale="  107.110">  1  5  2 -1</clus>
</clustering>
</event>
<event>
 9    2  0.1654290E-004  0.1849476E+03  0.7546771E-02  0.1190601E+00
         21   -1    0    0  501  502  0.00000000000E+00  0.00000000000E+00  0.39143590509E+02  0.39143590509E+02  0.00000000000E+00 0. -1.
          2   -1    0    0  502    0 -0.00000000000E+00 -0.00000000000E+00 -0.13516136461E+04  0.13516136461E+04  0.00000000000E+00 0. -1.
         23    2    1    2    0    0  0.30018909892E+02  0.28927801771E+02 -0.37664631453E+03  0.38952194821E+03  0.90149593583E+02 0.  0.
         24    2    1    2    0    0 -0.99054927797E+02 -0.16196741936E+03 -0.53980942307E+03  0.57780542211E+03  0.80122212411E+02 0.  0.
        -13    1    4    4    0    0 -0.24460923919E+02  0.30558872641E+01 -0.75782025241E+02  0.79690592893E+02  0.00000000000E+00 0.  1.
         14    1    4    4    0    0 -0.74594003878E+02 -0.16502330662E+03 -0.46402739783E+03  0.49811482921E+03  0.00000000000E+00 0. -1.
        -11    1    3    3    0    0 -0.10964317696E+02  0.51095889159E+02 -0.18014576880E+03  0.18757266370E+03  0.00000000000E+00 0.  1.
         11    1    3    3    0    0  0.40983227588E+02 -0.22168087388E+02 -0.19650054573E+03  0.20194928451E+03  0.00000000000E+00 0. -1.
          1    1    1    2  501    0  0.69036017905E+02  0.13303961759E+03 -0.39601431796E+03  0.42342986626E+03  0.00000000000E+00 0. -1.
<scales pt_clust_5="13000.00000" pt_clust_6="13000.00000" pt_clust_7="13000.00000" pt_clust_8="13000.00000" pt_clust_9="166.69150"></scales>
<clustering>
<clus scale="   80.122">  5  6 -1 -1</clus>
<clus scale="   90.150">  7  8 -1 -1</clus>
<clus scale="   99.322">  2  7  1 -1</clus>
<clus scale="  166.692">  1  9  2 -1</clus>
<clus scale="  166.692">  1  5  2 -1</clus>
</clustering>
</event>
<event>
 9    2  0.1654290E-004  0.1042277E+03  0.7546771E-02  0.1272576E+00
         21   -1    0    0  501  502  0.00000000000E+00  0.00000000000E+00  0.32832916228E+02  0.32832916228E+02  0.00000000000E+00 0.  1.
         -3   -1    0    0    0  501 -0.00000000000E+00 -0.00000000000E+00 -0.49256330171E+03  0.49256330171E+03  0.00000000000E+00 0.  1.
         24    2    1    2    0    0 -0.52559029720E+01  0.57217332445E+02 -0.29588630784E+03  0.31258085794E+03  0.82804818326E+02 0.  0.
         23    2    1    2    0    0  0.29730796845E+02 -0.62380263074E+02 -0.14351556304E+03  0.18058300376E+03  0.85078122388E+02 0.  0.
        -11    1    3    3    0    0  0.82666162127E+01  0.73690287178E+02 -0.26408744634E+03  0.27430051892E+03  0.00000000000E+00 0.  1.
         12    1    3    3    0    0 -0.13522519185E+02 -0.16472954733E+02 -0.31798861497E+02  0.38280339017E+02  0.00000000000E+00 0. -1.
        -13    1    4    4    0    0  0.46959559027E+02 -0.22711285771E+01 -0.64616519855E+02  0.79910279984E+02  0.00000000000E+00 0.  1.
         13    1    4    4    0    0 -0.17228762182E+02 -0.60109134497E+02 -0.78899043188E+02  0.10067272377E+03  0.00000000000E+00 0. -1.
         -4    1    1    2    0  502 -0.24474893873E+02  0.51629306293E+01 -0.20328514608E+02  0.32232356242E+02  0.00000000000E+00 0.  1.
<scales pt_clust_5="13000.00000" pt_clust_6="13000.00000" pt_clust_7="13000.00000" pt_clust_8="13000.00000" pt_clust_9="25.01352"></scales>
<clustering>
<clus scale="   25.014">  1  9  2 -1</clus>
<clus scale="   82.805">  5  6 -1 -1</clus>
<clus scale="   85.078">  7  8 -1 -1</clus>
<clus scale="  102.381">  2  5  1 -1</clus>
<clus scale="   25.014">  1  5  2 -1</clus>
</clustering>
</event>
<event>
 9    2  0.1654290E-004  0.1006418E+03  0.7546771E-02  0.1283817E+00
         21   -1    0    0  501  502  0.00000000000E+00  0.00000000000E+00  0.69291026235E+03  0.69291026235E+03  0.00000000000E+00 0. -1.
          2   -1    0    0  502    0 -0.00000000000E+00 -0.00000000000E+00 -0.23011627007E+02  0.23011627007E+02  0.00000000000E+00 0. -1.
         24    2    1    2    0    0 -0.30442673652E+01  0.49761455432E+02  0.15739445497E+03  0.18388773697E+03  0.80970459702E+02 0.  0.
         23    2    1    2    0    0 -0.23225138195E+02 -0.25038586984E+02  0.44523116698E+03  0.45569962400E+03  0.90912140979E+02 0.  0.
        -11    1    3    3    0    0  0.32422115271E+02  0.15224943547E+02  0.10869673282E+03  0.11444637255E+03  0.00000000000E+00 0.  1.
         12    1    3    3    0    0 -0.35466382636E+02  0.34536511885E+02  0.48697722150E+02  0.69441364424E+02  0.00000000000E+00 0. -1.
        -11    1    4    4    0    0  0.19326678210E+02  0.20861929998E+02  0.74911969502E+02  0.80128295805E+02  0.00000000000E+00 0.  1.
         11    1    4    4    0    0 -0.42551816405E+02 -0.45900516982E+02  0.37031919748E+03  0.37557132819E+03  0.00000000000E+00 0. -1.
          1    1    1    2  501    0  0.26269405560E+02 -0.24722868448E+02  0.67273013397E+02  0.76334528389E+02  0.00000000000E+00 0. -1.
<scales pt_clust_5="13000.00000" pt_clust_6="13000.00000" pt_clust_7="13000.00000" pt_clust_8="13000.00000" pt_clust_9="36.07358"></scales>
<clustering>
<clus scale="   36.074">  1  9  2 -1</clus>
<clus scale="   80.970">  5  6 -1 -1</clus>
<clus scale="   90.912">  7  8 -1 -1</clus>
<clus scale="   91.760">  2  5  1 -1</clus>
<clus scale="   36.074">  1  5  2 -1</clus>
</clustering>
</event>
<event>
 9    2  0.1654290E-004  0.9286974E+02  0.7546771E-02  0.1302197E+00
          2   -1    0    0  502    0 -0.00000000000E+00  0.00000000000E+00  0.68680257275E+03  0.68680257275E+03  0.00000000000E+00 0. -1.
         21   -1    0    0  501  502  0.00000000000E+00 -0.00000000000E+00 -0.26975244651E+02  0.26975244651E+02  0.00000000000E+00 0. -1.
         24    2    1    2    0    0  0.17542275004E+02  0.29388386185E+01  0.51212182719E+03  0.51887000126E+03  0.81491988208E+02 0.  0.
         23    2    1    2    0    0  0.99453178436E-01 -0.17614952416E+02  0.14412316680E+03  0.17168170998E+03  0.91612367581E+02 0.  0.
        -11    1    3    3    0    0  0.65627248734E+01  0.19216998705E+02  0.29299567940E+02  0.35648661665E+02  0.00000000000E+00 0.  1.
         12    1    3    3    0    0  0.10979550131E+02 -0.16278160086E+02  0.48282225925E+03  0.48322133960E+03  0.00000000000E+00 0. -1.
        -11    1    4    4    0    0 -0.41027309831E+02  0.17375340637E+01  0.10099536624E+03  0.10902441551E+03  0.00000000000E+00 0.  1.
         11    1    4    4    0    0  0.41126763009E+02 -0.19352486479E+02  0.43127800563E+02  0.62657294467E+02  0.00000000000E+00 0. -1.
          1    1    1    2  501    0 -0.17641728182E+02  0.14676113797E+02  0.35823341066E+01  0.23226106154E+02  0.00000000000E+00 0. -1.
<scales pt_clust_5="13000.00000" pt_clust_6="13000.00000" pt_clust_7="13000.00000" pt_clust_8="13000.00000" pt_clust_9="22.94818"></scales>
<clustering>
<clus scale="   22.948">  2  9  1 -1</clus>
<clus scale="   81.492">  5  6 -1 -1</clus>
<clus scale="   82.903">  1  5  2 -1</clus>
<clus scale="   91.612">  7  8 -1 -1</clus>
<clus scale="   22.948">  2  5  1 -1</clus>
</clustering>
</event>
<event>
 9    2  0.1654290E-004  0.1151723E+03  0.7546771E-02  0.1252963E+00
         21   -1    0    0  501  502  0.00000000000E+00  0.00000000000E+00  0.46678440082E+02  0.46678440082E+02  0.00000000000E+00 0.  1.
         -3   -1    0    0    0  501 -0.00000000000E+00 -0.00000000000E+00 -0.52228339933E+03  0.52228339933E+03  0.00000000000E+00 0.  1.
         23    2    1    2    0    0 -0.82472875361E+02  0.24549746449E+02 -0.35343879388E+03  0.37491774651E+03  0.90773731920E+02 0.  0.
         24    2    1    2    0    0  0.27905004597E+02 -0.26603283122E+02 -0.61737032690E+02  0.11259748703E+03  0.85908724384E+02 0.  0.
        -13    1    4    4    0    0  0.58945545667E+02 -0.21215437093E+02 -0.40247503763E+02  0.74461625582E+02  0.00000000000E+00 0.  1.
         14    1    4    4    0    0 -0.31040541070E+02 -0.53878460286E+01 -0.21489528927E+02  0.38135861446E+02  0.00000000000E+00 0. -1.
        -11    1    3    3    0    0 -0.52228871460E+02 -0.27666369483E+02 -0.23065799510E+03  0.23811004540E+03  0.00000000000E+00 0.  1.
         11    1    3    3    0    0 -0.30244003902E+02  0.52216115932E+02 -0.12278079878E+03  0.13680770111E+03  0.00000000000E+00 0. -1.
         -4    1    1    2    0  502  0.54567870764E+02  0.20535366725E+01 -0.60429132680E+02  0.81446605878E+02  0.00000000000E+00 0.  1.
<scales pt_clust_5="13000.00000" pt_clust_6="13000.00000" pt_clust_7="13000.00000" pt_clust_8="13000.00000" pt_clust_9="54.60650"></scales>
<clustering>
<clus scale="   54.606">  1  9  2 -1</clus>
<clus scale="   85.909">  5  6 -1 -1</clus>
<clus scale="   90.774">  7  8 -1 -1</clus>
<clus scale="  111.378">  1  5  2 -1</clus>
<clus scale="   54.606">  1  5  2 -1</clus>
</clustering>
</event>
<event>
 9    2  0.1654290E-004  0.9866826E+02  0.7546771E-02  0.1289311E+00
         21   -1    0    0  501  502  0.00000000000E+00  0.00000000000E+00  0.44420630940E+02  0.44420630940E+02  0.00000000000E+00 0. -1.
          4   -1    0    0  502    0 -0.00000000000E+00 -0.00000000000E+00 -0.74387214348E+03  0.74387214348E+03  0.00000000000E+00 0. -1.
         24    2    1    2    0    0  0.34477911014E+02 -0.71232455474E+01 -0.51420268167E+03  0.52152541898E+03  0.79654866921E+02 0.  0.
         23    2    1    2    0    0 -0.35333657904E+02  0.31165791796E+02 -0.20899949431E+03  0.23296098997E+03  0.91489126495E+02 0.  0.
        -11    1    3    3    0    0  0.15282752592E+02  0.23238770298E+02 -0.62653302899E+02  0.68549539283E+02  0.00000000000E+00 0.  1.
         12    1    3    3    0    0  0.19195158422E+02 -0.30362015846E+02 -0.45154937877E+03  0.45297587969E+03  0.00000000000E+00 0. -1.
        -11    1    4    4    0    0 -0.66290392595E+02  0.24384028762E+02 -0.13234755760E+03  0.15001624249E+03  0.00000000000E+00 0.  1.
         11    1    4    4    0    0  0.30956734691E+02  0.67817630338E+01 -0.76651936707E+02  0.82944747474E+02  0.00000000000E+00 0. -1.
          3    1    1    2  501    0  0.85574688943E+00 -0.24042546248E+02  0.23750663440E+02  0.33806365476E+02  0.00000000000E+00 0. -1.
<scales pt_clust_5="13000.00000" pt_clust_6="13000.00000" pt_clust_7="13000.00000" pt_clust_8="13000.00000" pt_clust_9="24.05777"></scales>
<clustering>
<clus scale="   24.058">  1  9  2 -1</clus>
<clus scale="   79.655">  5  6 -1 -1</clus>
<clus scale="   87.807">  2  5  1 -1</clus>
<clus scale="   91.489">  7  8 -1 -1</clus>
<clus scale="   24.058">  1  5  2 -1</clus>
</clustering>
</event>
<event>
 9    2  0.1654290E-004  0.1263784E+03  0.7546771E-02  0.1256355E+00
         21   -1    0    0  501  502  0.00000000000E+00  0.00000000000E+00  0.31763670095E+02  0.31763670095E+02  0.00000000000E+00 0.  1.
          2   -1    0    0  502    0 -0.00000000000E+00 -0.00000000000E+00 -0.72040357239E+03  0.72040357239E+03  0.00000000000E+00 0. -1.
         24    2    1    2    0    0  0.24904315822E+01 -0.86669382101E+01 -0.27068308305E+03  0.28192460804E+03  0.78299649423E+02 0.  0.
         23    2    1    2    0    0 -0.77614482701E+02 -0.40431041531E+02 -0.25482075437E+03  0.28405023306E+03  0.89956884117E+02 0.  0.
        -13    1    3    3    0    0  0.29513122404E+02 -0.31265230193E+02 -0.13136090597E+03  0.13821804018E+03  0.00000000000E+00 0.  1.
         14    1    3    3    0    0 -0.27022690821E+02  0.22598291983E+02 -0.13932217709E+03  0.14370656787E+03  0.00000000000E+00 0. -1.
        -11    1    4    4    0    0 -0.60120129500E+02 -0.69300742892E+02 -0.18562942294E+03  0.20706353034E+03  0.00000000000E+00 0.  1.
         11    1    4    4    0    0 -0.17494353201E+02  0.28869701360E+02 -0.69191331428E+02  0.76986702718E+02  0.00000000000E+00 0. -1.
          1    1    1    2  501    0  0.75124051119E+02  0.49097979742E+02 -0.16313606488E+03  0.18619240139E+03  0.00000000000E+00 0. -1.
<scales pt_clust_5="13000.00000" pt_clust_6="13000.00000" pt_clust_7="13000.00000" pt_clust_8="13000.00000" pt_clust_9="88.76519"></scales>
<clustering>
<clus scale="   78.300">  5  6 -1 -1</clus>
<clus scale="   78.817">  2  5  1 -1</clus>
<clus scale="   88.765">  1  9  2 -1</clus>
<clus scale="   89.957">  7  8 -1 -1</clus>
<clus scale="   88.765">  1  5  2 -1</clus>
</clustering>
</event>
<event>
 9    2  0.1654290E-004  0.1776928E+03  0.7546771E-02  0.1179522E+00
          2   -1    0    0  502    0 -0.00000000000E+00  0.00000000000E+00  0.30918349655E+03  0.30918349655E+03  0.00000000000E+00 0. -1.
         21   -1    0    0  501  502  0.00000000000E+00 -0.00000000000E+00 -0.60245046969E+03  0.60245046969E+03  0.00000000000E+00 0. -1.
         23    2    1    2    0    0  0.66195129340E+02 -0.83931354083E+02  0.19674255758E+03  0.24342870245E+03  0.95517704464E+02 0.  0.
         24    2    1    2    0    0  0.92725677762E+02  0.12755824774E+03 -0.29452056595E+02  0.17905056868E+03  0.79514304535E+02 0.  0.
        -11    1    4    4    0    0  0.10505469909E+02  0.74560277948E+02 -0.30459812204E+02  0.81224381224E+02  0.00000000000E+00 0.  1.
         12    1    4    4    0    0  0.82220207853E+02  0.52997969787E+02  0.10077556095E+01  0.97826187457E+02  0.00000000000E+00 0. -1.
        -11    1    3    3    0    0  0.70735498207E+02 -0.45345148443E+02  0.18443738104E+03  0.20267422313E+03  0.00000000000E+00 0. -1.
         11    1    3    3    0    0 -0.45403688675E+01 -0.38586205640E+02  0.12305176537E+02  0.40754479321E+02  0.00000000000E+00 0.  1.
          1    1    1    2  501    0 -0.15892080710E+03 -0.43626893652E+02 -0.46055747413E+03  0.48915469512E+03  0.00000000000E+00 0. -1.
<scales pt_clust_5="13000.00000" pt_clust_6="13000.00000" pt_clust_7="13000.00000" pt_clust_8="13000.00000" pt_clust_9="158.90940"></scales>
<clustering>
<clus scale="   79.514">  5  6 -1 -1</clus>
<clus scale="   95.518">  7  8 -1 -1</clus>
<clus scale="  143.352">  1  7  2 -1</clus>
<clus scale="  158.909">  2  9  1 -1</clus>
<clus scale="  158.909">  2  5  1 -1</clus>
</clustering>
</event>
<event>
 9    2  0.1654290E-004  0.9435025E+02  0.7546771E-02  0.1296434E+00
          2   -1    0    0  502    0 -0.00000000000E+00  0.00000000000E+00  0.49217059311E+03  0.49217059311E+03  0.00000000000E+00 0. -1.
         21   -1    0    0  501  502  0.00000000000E+00 -0.00000000000E+00 -0.46812279660E+02  0.46812279660E+02  0.00000000000E+00 0. -1.
         24    2    1    2    0    0  0.13818633587E+02  0.25317405327E+02  0.32586440249E+03  0.33737318407E+03  0.82468969148E+02 0.  0.
         23    2    1    2    0    0  0.14274463048E+02 -0.42794972062E+02  0.13253476542E+03  0.16604634660E+03  0.89279086271E+02 0.  0.
        -11    1    3    3    0    0  0.35580253091E+02  0.40172076882E+02  0.27393538407E+03  0.27914215879E+03  0.00000000000E+00 0.  1.
         12    1    3    3    0    0 -0.21761619505E+02 -0.14854671555E+02  0.51929018419E+02  0.58231025274E+02  0.00000000000E+00 0. -1.
        -11    1    4    4    0    0  0.51422078492E+02 -0.32819364667E+02  0.89685681322E+02  0.10846594990E+03  0.00000000000E+00 0. -1.
         11    1    4    4    0    0 -0.37147615444E+02 -0.99756073954E+01  0.42849084093E+02  0.57580396696E+02  0.00000000000E+00 0.  1.
          1    1    1    2  501    0 -0.28093096635E+02  0.17477566735E+02 -0.13040854447E+02  0.35563342112E+02  0.00000000000E+00 0. -1.
<scales pt_clust_5="13000.00000" pt_clust_6="13000.00000" pt_clust_7="13000.00000" pt_clust_8="13000.00000" pt_clust_9="33.08606"></scales>
<clustering>
<clus scale="   33.086">  2  9  1 -1</clus>
<clus scale="   82.469">  5  6 -1 -1</clus>
<clus scale="   87.934">  1  5  2 -1</clus>
<clus scale="   89.279">  7  8 -1 -1</clus>
<clus scale="   33.086">  2  5  1 -1</clus>
</clustering>
</event>
<event>
 9    2  0.1654290E-004  0.3079736E+03  0.7546771E-02  0.1081568E+00
         21   -1    0    0  501  502  0.00000000000E+00  0.00000000000E+00  0.34562714709E+03  0.34562714709E+03  0.00000000000E+00 0. -1.
          2   -1    0    0  502    0 -0.00000000000E+00 -0.00000000000E+00 -0.48529001505E+03  0.48529001505E+03  0.00000000000E+00 0. -1.
         24    2    1    2    0    0  0.23692942857E+03  0.19248642754E+03 -0.32161567187E+03  0.45427374758E+03  0.98698624309E+02 0.  0.
         23    2    1    2    0    0 -0.18203892814E+03 -0.15980832032E+03  0.17424992107E+03  0.31229933842E+03  0.92146465926E+02 0.  0.
        -13    1    3    3    0    0  0.20880025312E+03  0.14293541848E+03 -0.20949637908E+03  0.32850694423E+03  0.00000000000E+00 0.  1.
         14    1    3    3    0    0  0.28129175452E+02  0.49551009063E+02 -0.11211929279E+03  0.12576680335E+03  0.00000000000E+00 0. -1.
        -13    1    4    4    0    0 -0.53934368723E+02 -0.94108220496E+02  0.40479596784E+02  0.11577508821E+03  0.00000000000E+00 0.  1.
         13    1    4    4    0    0 -0.12810455942E+03 -0.65700099826E+02  0.13377032429E+03  0.19652425021E+03  0.00000000000E+00 0. -1.
          1    1    1    2  501    0 -0.54890500432E+02 -0.32678107216E+02  0.77028828332E+01  0.64344076128E+02  0.00000000000E+00 0. -1.
<scales pt_clust_5="13000.00000" pt_clust_6="13000.00000" pt_clust_7="13000.00000" pt_clust_8="13000.00000" pt_clust_9="63.88134"></scales>
<clustering>
<clus scale="   63.881">  1  9  2 -1</clus>
<clus scale="   92.146">  7  8 -1 -1</clus>
<clus scale="   98.699">  5  6 -1 -1</clus>
<clus scale="  305.937">  1  7  2 -1</clus>
<clus scale="   63.881">  1  5  2 -1</clus>
</clustering>
</event>
<event>
 9    2  0.1654290E-004  0.9805282E+02  0.7546771E-02  0.1294454E+00
         21   -1    0    0  501  502  0.00000000000E+00  0.00000000000E+00  0.75944646925E+02  0.75944646925E+02  0.00000000000E+00 0.  1.
          2   -1    0    0  502    0 -0.00000000000E+00 -0.00000000000E+00 -0.39583361156E+03  0.39583361156E+03  0.00000000000E+00 0. -1.
         24    2    1    2    0    0  0.36058080610E+01 -0.22703423083E+02 -0.27872508609E+03  0.29027983730E+03  0.77757720241E+02 0.  0.
         23    2    1    2    0    0  0.44786080892E+02  0.26451917622E+02 -0.66028011184E+02  0.12696355876E+03  0.95155399238E+02 0.  0.
        -13    1    3    3    0    0 -0.26905814723E+02  0.15558041143E+02 -0.13196328838E+03  0.13557390970E+03  0.00000000000E+00 0.  1.
         14    1    3    3    0    0  0.30511622784E+02 -0.38261464226E+02 -0.14676179771E+03  0.15470592761E+03  0.00000000000E+00 0. -1.
        -13    1    4    4    0    0  0.36920695121E+02  0.57987999049E+02 -0.21880752697E+02  0.72142311444E+02  0.00000000000E+00 0.  1.
         13    1    4    4    0    0  0.78653857711E+01 -0.31536081428E+02 -0.44147258487E+02  0.54821247314E+02  0.00000000000E+00 0. -1.
          1    1    1    2  501    0 -0.48391888953E+02 -0.37484945384E+01  0.24864132639E+02  0.54534862424E+02  0.00000000000E+00 0. -1.
<scales pt_clust_5="13000.00000" pt_clust_6="13000.00000" pt_clust_7="13000.00000" pt_clust_8="13000.00000" pt_clust_9="48.53685"></scales>
<clustering>
<clus scale="   48.537">  1  9  2 -1</clus>
<clus scale="   77.758">  5  6 -1 -1</clus>
<clus scale="   81.278">  2  5  1 -1</clus>
<clus scale="   95.155">  7  8 -1 -1</clus>
<clus scale="   48.537">  1  5  2 -1</clus>
</clustering>
</event>
<event>
 9    2  0.1654290E-004  0.2676777E+03  0.7546771E-02  0.1102616E+00
         -1   -1    0    0    0  501 -0.00000000000E+00  0.00000000000E+00  0.26409254138E+03  0.26409254138E+03  0.00000000000E+00 0.  1.
         21   -1    0    0  501  502  0.00000000000E+00 -0.00000000000E+00 -0.20298042700E+03  0.20298042700E+03  0.00000000000E+00 0.  1.
         24    2    1    2    0    0 -0.12077295981E+01 -0.95774521031E+02 -0.20340346522E+02  0.12693112934E+03  0.80768585534E+02 0.  0.
         23    2    1    2    0    0 -0.73143689081E+02 -0.78021496223E+02  0.18038333659E+02  0.14075643183E+03  0.89719777621E+02 0.  0.
        -13    1    3    3    0    0  0.36839122021E+02 -0.23808297947E+02 -0.82915852086E+01  0.44639739556E+02  0.00000000000E+00 0.  1.
         14    1    3    3    0    0 -0.38046851619E+02 -0.71966223084E+02 -0.12048761314E+02  0.82291389783E+02  0.00000000000E+00 0. -1.
        -13    1    4    4    0    0 -0.41932257118E+02 -0.95020541854E+02  0.16660625730E+02  0.10518932461E+03  0.00000000000E+00 0.  1.
         13    1    4    4    0    0 -0.31211431963E+02  0.16999045631E+02  0.13777079290E+01  0.35567107230E+02  0.00000000000E+00 0. -1.
         -2    1    1    2    0  502  0.74351418679E+02  0.17379601725E+03  0.63414127238E+02  0.19938540721E+03  0.00000000000E+00 0.  1.
<scales pt_clust_5="13000.00000" pt_clust_6="13000.00000" pt_clust_7="13000.00000" pt_clust_8="13000.00000" pt_clust_9="189.03234"></scales>
<clustering>
<clus scale="   80.769">  5  6 -1 -1</clus>
<clus scale="   89.720">  7  8 -1 -1</clus>
<clus scale="  119.036">  5  7 -1 -1</clus>
<clus scale="  189.032">  2  9  1 -1</clus>
<clus scale="  189.032">  2  5  1 -1</clus>
</clustering>
</event>
<event>
 9    2  0.1654290E-004  0.1545544E+03  0.7546771E-02  0.1214337E+00
         -1   -1    0    0    0  501 -0.00000000000E+00  0.00000000000E+00  0.15535989028E+03  0.15535989028E+03  0.00000000000E+00 0.  1.
         21   -1    0    0  501  502  0.00000000000E+00 -0.00000000000E+00 -0.32198325022E+03  0.32198325022E+03  0.00000000000E+00 0. -1.
         23    2    1    2    0    0 -0.20774710101E+02  0.38388985801E+02  0.49834968402E+02  0.11339317296E+03  0.92028173875E+02 0.  0.
         24    2    1    2    0    0  0.37400806556E+02 -0.14750198590E+03 -0.17699536615E+03  0.24673478397E+03  0.79968980273E+02 0.  0.
        -11    1    4    4    0    0  0.36961333155E+02 -0.53164167919E+02 -0.28359879687E+02  0.70688412593E+02  0.00000000000E+00 0.  1.
         12    1    4    4    0    0  0.43947340112E+00 -0.94337817986E+02 -0.14863548646E+03  0.17604637138E+03  0.00000000000E+00 0. -1.
        -11    1    3    3    0    0 -0.45129504994E+02 -0.10893985577E+00 -0.99004273526E+00  0.45140494830E+02  0.00000000000E+00 0.  1.
         11    1    3    3    0    0  0.24354794894E+02  0.38497925656E+02  0.50825011137E+02  0.68252678125E+02  0.00000000000E+00 0. -1.
         -2    1    1    2    0  502 -0.16626096455E+02  0.10911300010E+03 -0.39462962185E+02  0.11721518357E+03  0.00000000000E+00 0.  1.
<scales pt_clust_5="13000.00000" pt_clust_6="13000.00000" pt_clust_7="13000.00000" pt_clust_8="13000.00000" pt_clust_9="132.25749"></scales>
<clustering>
<clus scale="   79.969">  5  6 -1 -1</clus>
<clus scale="   92.028">  7  8 -1 -1</clus>
<clus scale="  101.855">  1  7  2 -1</clus>
<clus scale="  132.257">  2  9  1 -1</clus>
<clus scale="  132.257">  2  5  1 -1</clus>
</clustering>
</event>
<event>
 9    2  0.1654290E-004  0.2558596E+03  0.7546771E-02  0.1110378E+00
          2   -1    0    0  502    0 -0.00000000000E+00  0.00000000000E+00  0.67988184560E+03  0.67988184560E+03  0.00000000000E+00 0. -1.
         21   -1    0    0  501  502  0.00000000000E+00 -0.00000000000E+00 -0.51109805419E+03  0.51109805419E+03  0.00000000000E+00 0. -1.
         24    2    1    2    0    0 -0.15330856409E+01 -0.26237296834E+03  0.48212229027E+03  0.55480025441E+03  0.80743387687E+02 0.  0.
         23    2    1    2    0    0  0.58080175001E+01  0.18987702965E+03  0.87068860356E+02  0.22923985931E+03  0.94249176091E+02 0.  0.
        -11    1    3    3    0    0 -0.24642780458E+02 -0.16848074955E+03  0.36615114898E+03  0.40380650503E+03  0.00000000000E+00 0.  1.
         12    1    3    3    0    0  0.23109694817E+02 -0.93892218783E+02  0.11597114129E+03  0.15099374939E+03  0.00000000000E+00 0. -1.
        -11    1    4    4    0    0  0.45140426350E+02  0.13328496625E+03  0.74358802120E+02  0.15915957958E+03  0.00000000000E+00 0.  1.
         11    1    4    4    0    0 -0.39332408850E+02  0.56592063400E+02  0.12710058236E+02  0.70080279724E+02  0.00000000000E+00 0. -1.
          1    1    1    2  501    0 -0.42749318591E+01  0.72495938684E+02 -0.40040735922E+03  0.40693978606E+03  0.00000000000E+00 0. -1.
<scales pt_clust_5="13000.00000" pt_clust_6="13000.00000" pt_clust_7="13000.00000" pt_clust_8="13000.00000" pt_clust_9="72.62187"></scales>
<clustering>
<clus scale="   72.622">  2  9  1 -1</clus>
<clus scale="   80.743">  5  6 -1 -1</clus>
<clus scale="   94.249">  7  8 -1 -1</clus>
<clus scale="  251.199">  1  5  2 -1</clus>
<clus scale="   72.622">  2  5  1 -1</clus>
</clustering>
</event>
<event>
 9    2  0.1654290E-004  0.1067925E+03  0.7546771E-02  0.1271411E+00
         -1   -1    0    0    0  501 -0.00000000000E+00  0.00000000000E+00  0.64377922991E+03  0.64377922991E+03  0.00000000000E+00 0.  1.
         21   -1    0    0  501  502  0.00000000000E+00 -0.00000000000E+00 -0.28101918506E+02  0.28101918506E+02  0.00000000000E+00 0.  1.
         24    2    1    2    0    0 -0.12768584676E+02  0.41004200203E+02  0.23006408295E+03  0.24731316058E+03  0.79937074895E+02 0.  0.
         23    2    1    2    0    0 -0.28327288469E+02 -0.74971466740E+02  0.30089378466E+03  0.32446788722E+03  0.91209561437E+02 0.  0.
        -11    1    3    3    0    0 -0.39970367456E+02  0.47236889495E+02  0.17425921266E+03  0.18491951546E+03  0.00000000000E+00 0.  1.
         12    1    3    3    0    0  0.27201782780E+02 -0.62326892923E+01  0.55804870294E+02  0.62393645115E+02  0.00000000000E+00 0. -1.
        -13    1    4    4    0    0  0.12321091317E+02 -0.62100465011E+02  0.94713340737E+02  0.11392494880E+03  0.00000000000E+00 0.  1.
         13    1    4    4    0    0 -0.40648379786E+02 -0.12871001729E+02  0.20618044392E+03  0.21054293842E+03  0.00000000000E+00 0. -1.
         -2    1    1    2    0  502  0.41095873146E+02  0.33967266537E+02  0.84719443799E+02  0.10010010062E+03  0.00000000000E+00 0.  1.
<scales pt_clust_5="13000.00000" pt_clust_6="13000.00000" pt_clust_7="13000.00000" pt_clust_8="13000.00000" pt_clust_9="53.31647"></scales>
<clustering>
<clus scale="   53.316">  2  9  1 -1</clus>
<clus scale="   79.937">  5  6 -1 -1</clus>
<clus scale="   91.210">  7  8 -1 -1</clus>
<clus scale="   97.342">  1  5  2 -1</clus>
<clus scale="   53.316">  2  5  1 -1</clus>
</clustering>
</event>
<event>
 9    2  0.1654290E-004  0.1395366E+03  0.7546771E-02  0.1216163E+00
          2   -1    0    0  502    0 -0.00000000000E+00  0.00000000000E+00  0.71816630870E+03  0.71816630870E+03  0.00000000000E+00 0. -1.
         21   -1    0    0  501  502  0.00000000000E+00 -0.00000000000E+00 -0.65004203566E+02  0.65004203566E+02  0.00000000000E+00 0. -1.
         24    2    1    2    0    0 -0.25450929557E+02  0.10906596455E+03  0.60255942016E+03  0.61821694316E+03  0.81062935700E+02 0.  0.
         23    2    1    2    0    0  0.11218451002E+02 -0.70288051150E+02  0.35686621460E+02  0.12103570299E+03  0.91158338459E+02 0.  0.
        -11    1    3    3    0    0 -0.51675334045E+02  0.95753321077E+02  0.48013009601E+03  0.49230473057E+03  0.00000000000E+00 0.  1.
         12    1    3    3    0    0  0.26224404488E+02  0.13312643472E+02  0.12242932416E+03  0.12591221259E+03  0.00000000000E+00 0. -1.
        -11    1    4    4    0    0 -0.31888427119E+02 -0.52860209269E+01 -0.55697073921E+01  0.32799930515E+02  0.00000000000E+00 0. -1.
         11    1    4    4    0    0  0.43106878121E+02 -0.65002030223E+02  0.41256328852E+02  0.88235772478E+02  0.00000000000E+00 0.  1.
          1    1    1    2  501    0  0.14232478556E+02 -0.38777913398E+02  0.14916063512E+02  0.43917866114E+02  0.00000000000E+00 0. -1.
<scales pt_clust_5="13000.00000" pt_clust_6="13000.00000" pt_clust_7="13000.00000" pt_clust_8="13000.00000" pt_clust_9="41.30726"></scales>
<clustering>
<clus scale="   41.307">  2  9  1 -1</clus>
<clus scale="   81.063">  5  6 -1 -1</clus>
<clus scale="   91.158">  7  8 -1 -1</clus>
<clus scale="  133.161">  1  5  2 -1</clus>
<clus scale="   41.307">  2  5  1 -1</clus>
</clustering>
</event>
<event>
 9    2  0.1654290E-004  0.1749568E+03  0.7546771E-02  0.1205138E+00
         21   -1    0    0  501  502  0.00000000000E+00  0.00000000000E+00  0.79484978980E+03  0.79484978980E+03  0.00000000000E+00 0. -1.
          2   -1    0    0  502    0 -0.00000000000E+00 -0.00000000000E+00 -0.41261549792E+03  0.41261549792E+03  0.00000000000E+00 0. -1.
         24    2    1    2    0    0  0.27978315633E+02 -0.11330748357E+02  0.98431767751E+02  0.13035642746E+03  0.79955070343E+02 0.  0.
         23    2    1    2    0    0 -0.16758716597E+03  0.66277332456E+02 -0.36203893877E+03  0.41406968088E+03  0.88900868619E+02 0.  0.
        -13    1    3    3    0    0 -0.15444965881E+02 -0.19830294562E+02  0.77373108816E+02  0.81353460414E+02  0.00000000000E+00 0.  1.
         14    1    3    3    0    0  0.43423281514E+02  0.84995462048E+01  0.21058658934E+02  0.49002967045E+02  0.00000000000E+00 0. -1.
        -11    1    4    4    0    0 -0.12415271818E+03  0.32889414262E+02 -0.32062795507E+03  0.34539527584E+03  0.00000000000E+00 0. -1.
         11    1    4    4    0    0 -0.43434447792E+02  0.33387918194E+02 -0.41410983706E+02  0.68674405042E+02  0.00000000000E+00 0.  1.
          1    1    1    2  501    0  0.13960885034E+03 -0.54946584099E+02  0.64584146290E+03  0.66303917938E+03  0.00000000000E+00 0. -1.
<scales pt_clust_5="13000.00000" pt_clust_6="13000.00000" pt_clust_7="13000.00000" pt_clust_8="13000.00000" pt_clust_9="150.68687"></scales>
<clustering>
<clus scale="   79.955">  5  6 -1 -1</clus>
<clus scale="   85.463">  2  5  1 -1</clus>
<clus scale="   88.901">  7  8 -1 -1</clus>
<clus scale="  150.687">  1  9  2 -1</clus>
<clus scale="  150.687">  1  5  2 -1</clus>
</clustering>
</event>
<event>
 9    2  0.1654290E-004  0.1649159E+03  0.7546771E-02  0.1185076E+00
         21   -1    0    0  501  502  0.00000000000E+00  0.00000000000E+00  0.36665171249E+02  0.36665171249E+02  0.00000000000E+00 0. -1.
          2   -1    0    0  502    0 -0.00000000000E+00 -0.00000000000E+00 -0.13617209550E+04  0.13617209550E+04  0.00000000000E+00 0. -1.
         24    2    1    2    0    0 -0.13742628278E+03 -0.10515383221E+03 -0.81027712021E+03  0.83222466851E+03  0.78138183527E+02 0.  0.
         23    2    1    2    0    0  0.10189608149E+03  0.15242370175E+02 -0.33509589568E+03  0.36212135561E+03  0.90705433236E+02 0.  0.
        -13    1    3    3    0    0 -0.23487302229E+02 -0.40621476504E+02 -0.10663716620E+03  0.11650426145E+03  0.00000000000E+00 0.  1.
         14    1    3    3    0    0 -0.11393898055E+03 -0.64532355704E+02 -0.70363995400E+03  0.71572040707E+03  0.00000000000E+00 0. -1.
        -11    1    4    4    0    0  0.74692918667E+02  0.37903716798E+02 -0.30289483339E+03  0.31426263529E+03  0.00000000000E+00 0. -1.
         11    1    4    4    0    0  0.27203162821E+02 -0.22661346624E+02 -0.32201062291E+02  0.47858720323E+02  0.00000000000E+00 0.  1.
          1    1    1    2  501    0  0.35530201288E+02  0.89911462034E+02 -0.17968276789E+03  0.20404010215E+03  0.00000000000E+00 0. -1.
<scales pt_clust_5="13000.00000" pt_clust_6="13000.00000" pt_clust_7="13000.00000" pt_clust_8="13000.00000" pt_clust_9="96.67712"></scales>
<clustering>
<clus scale="   78.138">  5  6 -1 -1</clus>
<clus scale="   90.705">  7  8 -1 -1</clus>
<clus scale="   96.677">  1  9  2 -1</clus>
<clus scale="  158.352">  2  5  1 -1</clus>
<clus scale="   96.677">  1  5  2 -1</clus>
</clustering>
</event>
<event>
 9    2  0.1654290E-004  0.2062607E+03  0.7546771E-02  0.1145908E+00
          2   -1    0    0  502    0 -0.00000000000E+00  0.00000000000E+00  0.13210136608E+04  0.13210136608E+04  0.00000000000E+00 0. -1.
         21   -1    0    0  501  502  0.00000000000E+00 -0.00000000000E+00 -0.68079028790E+02  0.68079028790E+02  0.00000000000E+00 0. -1.
         23    2    1    2    0    0  0.16130420557E+03 -0.10922674488E+03  0.40230632741E+03  0.45686756368E+03  0.94488417991E+02 0.  0.
         24    2    1    2    0    0 -0.38006698032E+02  0.19879067618E+03  0.38276934514E+03  0.44017230446E+03  0.79227798171E+02 0.  0.
        -13    1    4    4    0    0  0.75752308625E+01  0.22789166936E+02  0.11179684653E+02  0.26489915084E+02  0.00000000000E+00 0.  1.
         14    1    4    4    0    0 -0.45581928895E+02  0.17600150924E+03  0.37158966049E+03  0.41368238938E+03  0.00000000000E+00 0. -1.
        -13    1    3    3    0    0  0.36807065383E+02 -0.58885413316E+02  0.21823284004E+03  0.22901490003E+03  0.00000000000E+00 0.  1.
         13    1    3    3    0    0  0.12449714019E+03 -0.50341331562E+02  0.18407348737E+03  0.22785266365E+03  0.00000000000E+00 0. -1.
          1    1    1    2  501    0 -0.12329750754E+03 -0.89563931298E+02  0.46785895948E+03  0.49205282148E+03  0.00000000000E+00 0. -1.
<scales pt_clust_5="13000.00000" pt_clust_6="13000.00000" pt_clust_7="13000.00000" pt_clust_8="13000.00000" pt_clust_9="152.39421"></scales>
<clustering>
<clus scale="   79.228">  5  6 -1 -1</clus>
<clus scale="   94.488">  7  8 -1 -1</clus>
<clus scale="  152.394">  2  9  1 -1</clus>
<clus scale="  199.731">  2  5  1 -1</clus>
<clus scale="  152.394">  2  5  1 -1</clus>
</clustering>
</event>
<event>
 9    2  0.1654290E-004  0.1245493E+03  0.7546771E-02  0.1238997E+00
          2   -1    0    0  502    0 -0.00000000000E+00  0.00000000000E+00  0.81998900924E+03  0.81998900924E+03  0.00000000000E+00 0. -1.
         21   -1    0    0  501  502  0.00000000000E+00 -0.00000000000E+00 -0.21166201811E+02  0.21166201811E+02  0.00000000000E+00 0. -1.
         23    2    1    2    0    0  0.56821920039E+02 -0.59592245975E+02  0.38140280905E+03  0.40080486557E+03  0.91632260359E+02 0.  0.
         24    2    1    2    0    0 -0.73638550703E+02  0.47551239790E+02  0.34094730413E+03  0.36113003330E+03  0.80536204268E+02 0.  0.
        -11    1    4    4    0    0 -0.19357230579E+02  0.55098193658E+02  0.23118072582E+03  0.23844295190E+03  0.00000000000E+00 0.  1.
         12    1    4    4    0    0 -0.54281320124E+02 -0.75469538684E+01  0.10976657832E+03  0.12268708140E+03  0.00000000000E+00 0. -1.
        -11    1    3    3    0    0  0.15431892171E+02 -0.69894102567E+02  0.30516130449E+03  0.31344337707E+03  0.00000000000E+00 0.  1.
         11    1    3    3    0    0  0.41390027868E+02  0.10301856592E+02  0.76241504557E+02  0.87361488502E+02  0.00000000000E+00 0. -1.
          1    1    1    2  501    0  0.16816630664E+02  0.12041006185E+02  0.76472694249E+02  0.79220312184E+02  0.00000000000E+00 0. -1.
<scales pt_clust_5="13000.00000" pt_clust_6="13000.00000" pt_clust_7="13000.00000" pt_clust_8="13000.00000" pt_clust_9="20.68297"></scales>
<clustering>
<clus scale="   20.683">  2  9  1 -1</clus>
<clus scale="   80.536">  5  6 -1 -1</clus>
<clus scale="   91.632">  7  8 -1 -1</clus>
<clus scale="  116.628">  2  5  1 -1</clus>
<clus scale="   20.683">  2  5  1 -1</clus>
</clustering>
</event>
<event>
 9    2  0.1654290E-004  0.9396456E+02  0.7546771E-02  0.1300257E+00
          2   -1    0    0  502    0 -0.00000000000E+00  0.00000000000E+00  0.34889715696E+03  0.34889715696E+03  0.00000000000E+00 0. -1.
         21   -1    0    0  501  502  0.00000000000E+00 -0.00000000000E+00 -0.99045887390E+02  0.99045887390E+02  0.00000000000E+00 0. -1.
         24    2    1    2    0    0  0.33797314986E+01 -0.46679151419E+02  0.20511761151E+03  0.22508018731E+03  0.79984313484E+02 0.  0.
         23    2    1    2    0    0  0.40803261428E+01 -0.28055917908E+02  0.93137394546E+02  0.13351015841E+03  0.91359753421E+02 0.  0.
        -13    1    3    3    0    0  0.32606274866E+02 -0.21513083297E+02  0.41561093923E+02  0.57037763295E+02  0.00000000000E+00 0.  1.
         14    1    3    3    0    0 -0.29226543368E+02 -0.25166068122E+02  0.16355651759E+03  0.16804242401E+03  0.00000000000E+00 0. -1.
        -13    1    4    4    0    0 -0.30479786023E+02 -0.41138130948E+02  0.27329331012E+02  0.58036673815E+02  0.00000000000E+00 0. -1.
         13    1    4    4    0    0  0.34560112166E+02  0.13082213041E+02  0.65808063534E+02  0.75473484596E+02  0.00000000000E+00 0.  1.
          1    1    1    2  501    0 -0.74600576414E+01  0.74735069327E+02 -0.48403736486E+02  0.89352698634E+02  0.00000000000E+00 0. -1.
<scales pt_clust_5="13000.00000" pt_clust_6="13000.00000" pt_clust_7="13000.00000" pt_clust_8="13000.00000" pt_clust_9="75.10648"></scales>
<clustering>
<clus scale="   75.106">  2  9  1 -1</clus>
<clus scale="   79.984">  5  6 -1 -1</clus>
<clus scale="   82.947">  1  5  2 -1</clus>
<clus scale="   91.360">  7  8 -1 -1</clus>
<clus scale="   75.106">  2  5  1 -1</clus>
</clustering>
</event>
<event>
 9    2  0.1654290E-004  0.9906452E+02  0.7546771E-02  0.1290526E+00
         -1   -1    0    0    0  501 -0.00000000000E+00  0.00000000000E+00  0.97488998848E+02  0.97488998848E+02  0.00000000000E+00 0.  1.
         21   -1    0    0  501  502  0.00000000000E+00 -0.00000000000E+00 -0.15470767081E+03  0.15470767081E+03  0.00000000000E+00 0. -1.
         23    2    1    2    0    0 -0.10117677629E+02  0.16067696477E+02  0.17020264246E+02  0.97237033169E+02  0.93833964820E+02 0.  0.
         24    2    1    2    0    0  0.16186120365E+02 -0.52743244206E+02 -0.38790242550E+02  0.10359299673E+03  0.78631963931E+02 0.  0.
        -11    1    4    4    0    0 -0.27501958456E+02 -0.40879930699E+01 -0.48447874806E+00  0.27808346336E+02  0.00000000000E+00 0.  1.
         12    1    4    4    0    0  0.43688078821E+02 -0.48655251136E+02 -0.38305763802E+02  0.75784650389E+02  0.00000000000E+00 0. -1.
        -11    1    3    3    0    0  0.22780962756E+02  0.44903144396E+02  0.18019284001E+02  0.53478586712E+02  0.00000000000E+00 0.  1.
         11    1    3    3    0    0 -0.32898640386E+02 -0.28835447919E+02 -0.99901975490E+00  0.43758446458E+02  0.00000000000E+00 0. -1.
         -2    1    1    2    0  502 -0.60684427356E+01  0.36675547728E+02 -0.35448693653E+02  0.51366639759E+02  0.00000000000E+00 0.  1.
<scales pt_clust_5="13000.00000" pt_clust_6="13000.00000" pt_clust_7="13000.00000" pt_clust_8="13000.00000" pt_clust_9="37.17421"></scales>
<clustering>
<clus scale="   37.174">  2  9  1 -1</clus>
<clus scale="   78.632">  5  6 -1 -1</clus>
<clus scale="   84.805">  2  5  1 -1</clus>
<clus scale="   93.834">  7  8 -1 -1</clus>
<clus scale="   37.174">  2  5  1 -1</clus>
</clustering>
</event>
<event>
 9    2  0.1654290E-004  0.8922769E+02  0.7546771E-02  0.1305480E+00
          4   -1    0    0  502    0 -0.00000000000E+00  0.00000000000E+00  0.33958010425E+03  0.33958010425E+03  0.00000000000E+00 0. -1.
         21   -1    0    0  501  502  0.00000000000E+00 -0.00000000000E+00 -0.54610877956E+02  0.54610877956E+02  0.00000000000E+00 0. -1.
         24    2    1    2    0    0 -0.63852357908E+01  0.38341811292E+02  0.16433818239E+03  0.18754650554E+03  0.81583011825E+02 0.  0.
         23    2    1    2    0    0 -0.40514840582E+02 -0.26878710513E+02  0.12704281060E+03  0.15793995331E+03  0.80257309568E+02 0.  0.
        -13    1    3    3    0    0  0.30225217960E+02 -0.66194500257E+01  0.73922222530E+02  0.80136607759E+02  0.00000000000E+00 0.  1.
         14    1    3    3    0    0 -0.36610453751E+02  0.44961261317E+02  0.90415959863E+02  0.10740989778E+03  0.00000000000E+00 0. -1.
        -13    1    4    4    0    0  0.12761116964E+02  0.18906274858E+02  0.22913714797E+02  0.32331589212E+02  0.00000000000E+00 0.  1.
         13    1    4    4    0    0 -0.53275957546E+02 -0.45784985371E+02  0.10412909581E+03  0.12560836410E+03  0.00000000000E+00 0. -1.
          3    1    1    2  501    0  0.46900076373E+02 -0.11463100779E+02 -0.64117667008E+01  0.48704523358E+02  0.00000000000E+00 0. -1.
<scales pt_clust_5="13000.00000" pt_clust_6="13000.00000" pt_clust_7="13000.00000" pt_clust_8="13000.00000" pt_clust_9="48.28064"></scales>
<clustering>
<clus scale="   48.281">  2  9  1 -1</clus>
<clus scale="   80.257">  7  8 -1 -1</clus>
<clus scale="   81.583">  5  6 -1 -1</clus>
<clus scale="   88.017">  2  7  1 -1</clus>
<clus scale="   48.281">  2  5  1 -1</clus>
</clustering>
</event>
<event>
 9    2  0.1654290E-004  0.2317877E+03  0.7546771E-02  0.1137016E+00
         21   -1    0    0  501  502  0.00000000000E+00  0.00000000000E+00  0.95825772005E+02  0.95825772005E+02  0.00000000000E+00 0. -1.
          2   -1    0    0  502    0 -0.00000000000E+00 -0.00000000000E+00 -0.20069375998E+04  0.20069375998E+04  0.00000000000E+00 0. -1.
         23    2    1    2    0    0 -0.20076836452E+02  0.14760194382E+03 -0.28224017253E+03  0.33172902106E+03  0.90527428143E+02 0.  0.
         24    2    1    2    0    0 -0.55505187270E+02 -0.33499172782E+03 -0.14786637778E+04  0.15192606827E+04  0.80038558012E+02 0.  0.
        -13    1    4    4    0    0 -0.28093887517E+02 -0.13805665522E+03 -0.44935924073E+03  0.47092741881E+03  0.00000000000E+00 0.  1.
         14    1    4    4    0    0 -0.27411299753E+02 -0.19693507260E+03 -0.10293045371E+04  0.10483332639E+04  0.00000000000E+00 0. -1.
        -11    1    3    3    0    0  0.30061838863E+02  0.66954665473E+02 -0.81599216428E+02  0.10975005014E+03  0.00000000000E+00 0.  1.
         11    1    3    3    0    0 -0.50138675316E+02  0.80647278347E+02 -0.20064095610E+03  0.22197897092E+03  0.00000000000E+00 0. -1.
          1    1    1    2  501    0  0.75582023723E+02  0.18738978400E+03 -0.15020787748E+03  0.25177366803E+03  0.00000000000E+00 0. -1.
<scales pt_clust_5="13000.00000" pt_clust_6="13000.00000" pt_clust_7="13000.00000" pt_clust_8="13000.00000" pt_clust_9="217.53018"></scales>
<clustering>
<clus scale="   80.039">  5  6 -1 -1</clus>
<clus scale="   90.527">  7  8 -1 -1</clus>
<clus scale="  174.312">  2  7  1 -1</clus>
<clus scale="  217.530">  1  9  2 -1</clus>
<clus scale="  217.530">  1  5  2 -1</clus>
</clustering>
</event>
<event>
 9    2  0.1654290E-004  0.1368254E+03  0.7546771E-02  0.1222049E+00
         21   -1    0    0  501  502  0.00000000000E+00  0.00000000000E+00  0.21861735331E+03  0.21861735331E+03  0.00000000000E+00 0.  1.
          2   -1    0    0  502    0 -0.00000000000E+00 -0.00000000000E+00 -0.60575750855E+03  0.60575750855E+03  0.00000000000E+00 0. -1.
         24    2    1    2    0    0 -0.67768423339E+02  0.69779131408E+02 -0.54311025668E+03  0.55758742537E+03  0.80456818461E+02 0.  0.
         23    2    1    2    0    0  0.88511670594E+02  0.82914689972E+01  0.11878299252E+03  0.17785947675E+03  0.98089397331E+02 0.  0.
        -13    1    3    3    0    0 -0.59560337940E+02  0.52966272749E+02 -0.22099081752E+03  0.23492509728E+03  0.00000000000E+00 0.  1.
         14    1    3    3    0    0 -0.82080853990E+01  0.16812858659E+02 -0.32211943917E+03  0.32266232809E+03  0.00000000000E+00 0. -1.
        -13    1    4    4    0    0  0.10149947161E+03  0.26899363742E+02  0.76647940812E+02  0.13000240512E+03  0.00000000000E+00 0.  1.
         13    1    4    4    0    0 -0.12987801019E+02 -0.18607894745E+02  0.42135051710E+02  0.47857071627E+02  0.00000000000E+00 0. -1.
          1    1    1    2  501    0 -0.20743247256E+02 -0.78070600406E+02  0.37187108919E+02  0.88927959744E+02  0.00000000000E+00 0. -1.
<scales pt_clust_5="13000.00000" pt_clust_6="13000.00000" pt_clust_7="13000.00000" pt_clust_8="13000.00000" pt_clust_9="80.77933"></scales>
<clustering>
<clus scale="   80.457">  5  6 -1 -1</clus>
<clus scale="   80.779">  1  9  2 -1</clus>
<clus scale="   98.089">  7  8 -1 -1</clus>
<clus scale="  124.792">  2  5  1 -1</clus>
<clus scale="   80.779">  1  5  2 -1</clus>
</clustering>
</event>
<event>
 9    2  0.1654290E-004  0.1165839E+03  0.7546771E-02  0.1252283E+00
         21   -1    0    0  501  502  0.00000000000E+00  0.00000000000E+00  0.91426983687E+02  0.91426983687E+02  0.00000000000E+00 0.  1.
         -3   -1    0    0    0  501 -0.00000000000E+00 -0.00000000000E+00 -0.31790905420E+03  0.31790905420E+03  0.00000000000E+00 0.  1.
         23    2    1    2    0    0 -0.79050937055E+02 -0.48883164502E+02 -0.20927596743E+03  0.24632752556E+03  0.90786589764E+02 0.  0.
         24    2    1    2    0    0  0.97472102697E+01  0.26478613081E+02  0.83727935507E+01  0.85812330926E+02  0.80607241663E+02 0.  0.
        -11    1    4    4    0    0  0.29576225494E+02  0.96349036254E+01  0.36192175668E+02  0.47722720605E+02  0.00000000000E+00 0.  1.
         12    1    4    4    0    0 -0.19829015225E+02  0.16843709455E+02 -0.27819382118E+02  0.38089610321E+02  0.00000000000E+00 0. -1.
        -13    1    3    3    0    0  0.10485446783E+02 -0.38367096043E+02 -0.63827454227E+02  0.75205867897E+02  0.00000000000E+00 0. -1.
         13    1    3    3    0    0 -0.89536383837E+02 -0.10516068459E+02 -0.14544851321E+03  0.17112165766E+03  0.00000000000E+00 0.  1.
         -4    1    1    2    0  502  0.69303726785E+02  0.22404551421E+02 -0.25578896632E+02  0.77196181405E+02  0.00000000000E+00 0.  1.
<scales pt_clust_5="13000.00000" pt_clust_6="13000.00000" pt_clust_7="13000.00000" pt_clust_8="13000.00000" pt_clust_9="72.83523"></scales>
<clustering>
<clus scale="   72.835">  1  9  2 -1</clus>
<clus scale="   80.607">  5  6 -1 -1</clus>
<clus scale="   90.787">  7  8 -1 -1</clus>
<clus scale="  108.844">  1  5  2 -1</clus>
<clus scale="   72.835">  1  5  2 -1</clus>
</clustering>
</event>
<event>
 9    2  0.1654290E-004  0.2529635E+03  0.7546771E-02  0.1132693E+00
          4   -1    0    0  502    0 -0.00000000000E+00  0.00000000000E+00  0.87986017871E+03  0.87986017871E+03  0.00000000000E+00 0. -1.
         21   -1    0    0  501  502  0.00000000000E+00 -0.00000000000E+00 -0.19406672614E+03  0.19406672614E+03  0.00000000000E+00 0. -1.
         24    2    1    2    0    0  0.12396983188E+03  0.12173634254E+02  0.16517139073E+03  0.22243509263E+03  0.81725550054E+02 0.  0.
         23    2    1    2    0    0 -0.18275093451E+03 -0.23480834391E+03  0.53770691627E+03  0.62059502961E+03  0.86467338014E+02 0.  0.
        -11    1    3    3    0    0  0.12467762128E+03  0.20770674738E+02  0.11296226973E+03  0.16951815407E+03  0.00000000000E+00 0.  1.
         12    1    3    3    0    0 -0.70778940124E+00 -0.85970404838E+01  0.52209121008E+02  0.52916938567E+02  0.00000000000E+00 0. -1.
        -13    1    4    4    0    0 -0.98504990009E+02 -0.10588244948E+03  0.17827170207E+03  0.22955418951E+03  0.00000000000E+00 0.  1.
         13    1    4    4    0    0 -0.84245944502E+02 -0.12892589443E+03  0.35943521420E+03  0.39104084010E+03  0.00000000000E+00 0. -1.
          3    1    1    2  501    0  0.58781102636E+02  0.22263470965E+03 -0.17084854431E+02  0.23089678261E+03  0.00000000000E+00 0. -1.
<scales pt_clust_5="13000.00000" pt_clust_6="13000.00000" pt_clust_7="13000.00000" pt_clust_8="13000.00000" pt_clust_9="237.72656"></scales>
<clustering>
<clus scale="   81.726">  5  6 -1 -1</clus>
<clus scale="   86.467">  7  8 -1 -1</clus>
<clus scale="  148.982">  1  5  2 -1</clus>
<clus scale="  237.727">  2  9  1 -1</clus>
<clus scale="  237.727">  2  5  1 -1</clus>
</clustering>
</event>
<event>
 9    2  0.1654290E-004  0.9798838E+02  0.7546771E-02  0.1290922E+00
          2   -1    0    0  502    0 -0.00000000000E+00  0.00000000000E+00  0.50374888452E+03  0.50374888452E+03  0.00000000000E+00 0. -1.
         21   -1    0    0  501  502  0.00000000000E+00 -0.00000000000E+00 -0.29323077644E+02  0.29323077644E+02  0.00000000000E+00 0. -1.
         24    2    1    2    0    0  0.22628611134E+02  0.15869468680E+02  0.28195661817E+03  0.29512707740E+03  0.82683512316E+02 0.  0.
         23    2    1    2    0    0 -0.34213314262E+02  0.15058138299E+02  0.17029107374E+03  0.19816309240E+03  0.94192690754E+02 0.  0.
        -13    1    3    3    0    0  0.11765605453E+02 -0.33640824471E+02  0.96590686481E+02  0.10295579273E+03  0.00000000000E+00 0.  1.
         14    1    3    3    0    0  0.10863005681E+02  0.49510293151E+02  0.18536593169E+03  0.19217128467E+03  0.00000000000E+00 0. -1.
        -13    1    4    4    0    0 -0.16624863111E+02 -0.31241724113E+02  0.12873456186E+03  0.13351036970E+03  0.00000000000E+00 0.  1.
         13    1    4    4    0    0 -0.17588451151E+02  0.46299862412E+02  0.41556511884E+02  0.64652722706E+02  0.00000000000E+00 0. -1.
          1    1    1    2  501    0  0.11584703128E+02 -0.30927606979E+02  0.22178114961E+02  0.39781792358E+02  0.00000000000E+00 0. -1.
<scales pt_clust_5="13000.00000" pt_clust_6="13000.00000" pt_clust_7="13000.00000" pt_clust_8="13000.00000" pt_clust_9="33.02608"></scales>
<clustering>
<clus scale="   33.026">  2  9  1 -1</clus>
<clus scale="   82.684">  5  6 -1 -1</clus>
<clus scale="   86.983">  1  5  2 -1</clus>
<clus scale="   94.193">  7  8 -1 -1</clus>
<clus scale="   33.026">  2  5  1 -1</clus>
</clustering>
</event>
<event>
 9    2  0.1654290E-004  0.9247853E+02  0.7546771E-02  0.1304996E+00
          2   -1    0    0  502    0 -0.00000000000E+00  0.00000000000E+00  0.22133200612E+03  0.22133200612E+03  0.00000000000E+00 0. -1.
         21   -1    0    0  501  502  0.00000000000E+00 -0.00000000000E+00 -0.60436038613E+02  0.60436038613E+02  0.00000000000E+00 0.  1.
         24    2    1    2    0    0 -0.89711788042E+01  0.65916788406E+00  0.13269772372E+03  0.15463712619E+03  0.78886236842E+02 0.  0.
         23    2    1    2    0    0  0.13844323285E+02 -0.20664342972E+02  0.40320098907E+02  0.10323753162E+03  0.91725662719E+02 0.  0.
        -13    1    3    3    0    0  0.12225946336E+02 -0.30376987546E+02  0.26950403892E+02  0.42409425911E+02  0.00000000000E+00 0.  1.
         14    1    3    3    0    0 -0.21197125140E+02  0.31036155430E+02  0.10574731983E+03  0.11222770028E+03  0.00000000000E+00 0. -1.
        -13    1    4    4    0    0 -0.32939478258E+02  0.50531028667E+01 -0.43761466571E+01  0.33610916917E+02  0.00000000000E+00 0. -1.
         13    1    4    4    0    0  0.46783801543E+02 -0.25717445839E+02  0.44696245564E+02  0.69626614701E+02  0.00000000000E+00 0.  1.
          1    1    1    2  501    0 -0.48731444810E+01  0.20005175088E+02 -0.12121855119E+02  0.23893386929E+02  0.00000000000E+00 0. -1.
<scales pt_clust_5="13000.00000" pt_clust_6="13000.00000" pt_clust_7="13000.00000" pt_clust_8="13000.00000" pt_clust_9="20.59016"></scales>
<clustering>
<clus scale="   20.590">  2  9  1 -1</clus>
<clus scale="   78.886">  5  6 -1 -1</clus>
<clus scale="   79.760">  1  5  2 -1</clus>
<clus scale="   91.726">  7  8 -1 -1</clus>
<clus scale="   20.590">  2  5  1 -1</clus>
</clustering>
</event>
<event>
 9    2  0.1654290E-004  0.1298907E+03  0.7546771E-02  0.1229615E+00
         21   -1    0    0  501  502  0.00000000000E+00  0.00000000000E+00  0.40706846403E+03  0.40706846403E+03  0.00000000000E+00 0.  1.
          4   -1    0    0  502    0 -0.00000000000E+00 -0.00000000000E+00 -0.12053979801E+03  0.12053979801E+03  0.00000000000E+00 0. -1.
         23    2    1    2    0    0  0.31048210556E+01 -0.10585578098E+03 -0.54790029842E+02  0.14914362428E+03  0.89592337909E+02 0.  0.
         24    2    1    2    0    0 -0.25216019167E+02  0.46290397987E+02  0.17193143210E+03  0.19755309844E+03  0.81781176255E+02 0.  0.
        -13    1    4    4    0    0  0.16505747529E+01  0.33492367692E+02  0.16309963873E+03  0.16651112649E+03  0.00000000000E+00 0.  1.
         14    1    4    4    0    0 -0.26866593920E+02  0.12798030294E+02  0.88317933692E+01  0.31041971947E+02  0.00000000000E+00 0. -1.
        -13    1    3    3    0    0  0.25779547308E+02 -0.94763141039E+02 -0.69143003582E+02  0.12010575716E+03  0.00000000000E+00 0. -1.
         13    1    3    3    0    0 -0.22674726253E+02 -0.11092639943E+02  0.14352973740E+02  0.29037867117E+02  0.00000000000E+00 0.  1.
          3    1    1    2  501    0  0.22111198111E+02  0.59565382995E+02  0.16938726376E+03  0.18091153932E+03  0.00000000000E+00 0. -1.
<scales pt_clust_5="13000.00000" pt_clust_6="13000.00000" pt_clust_7="13000.00000" pt_clust_8="13000.00000" pt_clust_9="63.53692"></scales>
<clustering>
<clus scale="   63.537">  1  9  2 -1</clus>
<clus scale="   81.781">  5  6 -1 -1</clus>
<clus scale="   89.592">  7  8 -1 -1</clus>
<clus scale="  124.631">  1  5  2 -1</clus>
<clus scale="   63.537">  1  5  2 -1</clus>
</clustering>
</event>
<event>
 9    2  0.1654290E-004  0.9788112E+02  0.7546771E-02  0.1292769E+00
          2   -1    0    0  502    0 -0.00000000000E+00  0.00000000000E+00  0.11146575609E+04  0.11146575609E+04  0.00000000000E+00 0. -1.
         21   -1    0    0  501  502  0.00000000000E+00 -0.00000000000E+00 -0.17442183964E+02  0.17442183964E+02  0.00000000000E+00 0.  1.
         24    2    1    2    0    0  0.24379217034E+02  0.16492626663E+02  0.85951292981E+03  0.86375829978E+03  0.80309220931E+02 0.  0.
         23    2    1    2    0    0 -0.10515304570E+02  0.11381086002E+01  0.22037782864E+03  0.24000077996E+03  0.94456974893E+02 0.  0.
        -11    1    3    3    0    0 -0.23026635264E+02 -0.30920858314E+00  0.10154525832E+03  0.10412377745E+03  0.00000000000E+00 0.  1.
         12    1    3    3    0    0  0.47405852299E+02  0.16801835246E+02  0.75796767149E+03  0.75963452233E+03  0.00000000000E+00 0. -1.
        -13    1    4    4    0    0  0.13256842276E+02 -0.42097105989E+02  0.82549584618E+02  0.93607393513E+02  0.00000000000E+00 0.  1.
         13    1    4    4    0    0 -0.23772146846E+02  0.43235214589E+02  0.13782824402E+03  0.14639338645E+03  0.00000000000E+00 0. -1.
          1    1    1    2  501    0 -0.13863912465E+02 -0.17630735264E+02  0.17324618527E+02  0.28340665163E+02  0.00000000000E+00 0. -1.
<scales pt_clust_5="13000.00000" pt_clust_6="13000.00000" pt_clust_7="13000.00000" pt_clust_8="13000.00000" pt_clust_9="22.42880"></scales>
<clustering>
<clus scale="   22.429">  2  9  1 -1</clus>
<clus scale="   80.309">  5  6 -1 -1</clus>
<clus scale="   84.310">  1  5  2 -1</clus>
<clus scale="   94.457">  7  8 -1 -1</clus>
<clus scale="   22.429">  2  5  1 -1</clus>
</clustering>
</event>
<event>
 9    2  0.1654290E-004  0.1452838E+03  0.7546771E-02  0.1209539E+00
         21   -1    0    0  501  502  0.00000000000E+00  0.00000000000E+00  0.15923322445E+03  0.15923322445E+03  0.00000000000E+00 0. -1.
          2   -1    0    0  502    0 -0.00000000000E+00 -0.00000000000E+00 -0.31162852433E+03  0.31162852433E+03  0.00000000000E+00 0. -1.
         23    2    1    2    0    0  0.73280550813E+02 -0.89547765120E+01 -0.67737636889E+02  0.13693879617E+03  0.93346769061E+02 0.  0.
         24    2    1    2    0    0 -0.16937836333E+03  0.70927601408E+02 -0.91411408629E+02  0.21937587201E+03  0.77781572265E+02 0.  0.
        -13    1    4    4    0    0 -0.13324157040E+03  0.69102023262E+02 -0.37944711235E+02  0.15481668777E+03  0.00000000000E+00 0.  1.
         14    1    4    4    0    0 -0.36136792937E+02  0.18255781453E+01 -0.53466697394E+02  0.64559184238E+02  0.00000000000E+00 0. -1.
        -13    1    3    3    0    0  0.51658051147E+02 -0.49421524568E+02 -0.52116039191E+02  0.88471028478E+02  0.00000000000E+00 0.  1.
         13    1    3    3    0    0  0.21622499666E+02  0.40466748056E+02 -0.15621597698E+02  0.48467767688E+02  0.00000000000E+00 0. -1.
          1    1    1    2  501    0  0.96097812519E+02 -0.61972824896E+02  0.67537456335E+01  0.11454708061E+03  0.00000000000E+00 0. -1.
<scales pt_clust_5="13000.00000" pt_clust_6="13000.00000" pt_clust_7="13000.00000" pt_clust_8="13000.00000" pt_clust_9="114.34781"></scales>
<clustering>
<clus scale="   77.782">  5  6 -1 -1</clus>
<clus scale="   93.347">  7  8 -1 -1</clus>
<clus scale="  114.348">  1  9  2 -1</clus>
<clus scale="  135.808">  1  5  2 -1</clus>
<clus scale="  114.348">  1  5  2 -1</clus>
</clustering>
</event>
<event>
 9    2  0.1654290E-004  0.2112241E+03  0.7546771E-02  0.1167508E+00
          2   -1    0    0  502    0 -0.00000000000E+00  0.00000000000E+00  0.97535902514E+03  0.97535902514E+03  0.00000000000E+00 0. -1.
         21   -1    0    0  501  502  0.00000000000E+00 -0.00000000000E+00 -0.20346825949E+03  0.20346825949E+03  0.00000000000E+00 0. -1.
         23    2    1    2    0    0 -0.50165863711E+02  0.41322860199E+02  0.19963163831E+03  0.22897711354E+03  0.91397674236E+02 0.  0.
         24    2    1    2    0    0  0.15011801270E+03  0.12597090907E+03 -0.11097969674E+03  0.23936236116E+03  0.81078722122E+02 0.  0.
        -11    1    4    4    0    0  0.88871977470E+02  0.63462105949E+02 -0.16267732169E+02  0.11040972050E+03  0.00000000000E+00 0.  1.
         12    1    4    4    0    0  0.61246035227E+02  0.62508803122E+02 -0.94711964575E+02  0.12895264066E+03  0.00000000000E+00 0. -1.
        -13    1    3    3    0    0 -0.77190493860E+02  0.29509667074E+02  0.14890321952E+03  0.17029786134E+03  0.00000000000E+00 0. -1.
         13    1    3    3    0    0  0.27024630148E+02  0.11813193125E+02  0.50728418784E+02  0.58679252201E+02  0.00000000000E+00 0.  1.
          1    1    1    2  501    0 -0.99952148985E+02 -0.16729376927E+03  0.68323882408E+03  0.71048780993E+03  0.00000000000E+00 0. -1.
<scales pt_clust_5="13000.00000" pt_clust_6="13000.00000" pt_clust_7="13000.00000" pt_clust_8="13000.00000" pt_clust_9="195.04337"></scales>
<clustering>
<clus scale="   81.079">  5  6 -1 -1</clus>
<clus scale="   91.398">  7  8 -1 -1</clus>
<clus scale="  112.150">  1  7  2 -1</clus>
<clus scale="  195.043">  2  9  1 -1</clus>
<clus scale="  195.043">  2  5  1 -1</clus>
</clustering>
</event>
<event>
 9    2  0.1654290E-004  0.9063200E+02  0.7546771E-02  0.1305613E+00
         21   -1    0    0  501  502  0.00000000000E+00  0.00000000000E+00  0.22830532639E+03  0.22830532639E+03  0.00000000000E+00 0.  1.
          2   -1    0    0  502    0 -0.00000000000E+00 -0.00000000000E+00 -0.95241594851E+02  0.95241594851E+02  0.00000000000E+00 0. -1.
         24    2    1    2    0    0  0.17058393231E+02  0.40578888027E+01 -0.53192961164E+02  0.99357495783E+02  0.82066836236E+02 0.  0.
         23    2    1    2    0    0 -0.37075664987E+01 -0.26277946766E+02  0.16957641952E+03  0.19336399661E+03  0.89046036355E+02 0.  0.
        -11    1    3    3    0    0 -0.27828993201E+01  0.41120889224E+02 -0.20098502432E+02  0.45854354856E+02  0.00000000000E+00 0.  1.
         12    1    3    3    0    0  0.19841292551E+02 -0.37063000422E+02 -0.33094458732E+02  0.53503140928E+02  0.00000000000E+00 0. -1.
        -13    1    4    4    0    0 -0.39129418124E+02 -0.12896938700E+02  0.36624850583E+02  0.55125511978E+02  0.00000000000E+00 0. -1.
         13    1    4    4    0    0  0.35421851626E+02 -0.13381008065E+02  0.13295156894E+03  0.13823848463E+03  0.00000000000E+00 0.  1.
          1    1    1    2  501    0 -0.13350826733E+02  0.22220057963E+02  0.16680273180E+02  0.30825428848E+02  0.00000000000E+00 0. -1.
<scales pt_clust_5="13000.00000" pt_clust_6="13000.00000" pt_clust_7="13000.00000" pt_clust_8="13000.00000" pt_clust_9="25.92249"></scales>
<clustering>
<clus scale="   25.922">  1  9  2 -1</clus>
<clus scale="   82.067">  5  6 -1 -1</clus>
<clus scale="   83.785">  2  5  1 -1</clus>
<clus scale="   89.046">  7  8 -1 -1</clus>
<clus scale="   25.922">  1  5  2 -1</clus>
</clustering>
</event>
<event>
 9    2  0.1654290E-004  0.1463912E+03  0.7546771E-02  0.1208661E+00
         21   -1    0    0  501  502  0.00000000000E+00  0.00000000000E+00  0.46858709008E+03  0.46858709008E+03  0.00000000000E+00 0.  1.
         -1   -1    0    0    0  501 -0.00000000000E+00 -0.00000000000E+00 -0.87728106892E+02  0.87728106892E+02  0.00000000000E+00 0.  1.
         23    2    1    2    0    0  0.20029385349E+02  0.10919745563E+03  0.54046457918E+02  0.15619082326E+03  0.95651937059E+02 0.  0.
         24    2    1    2    0    0  0.28717273962E+01 -0.11195401571E+03  0.34488993056E+03  0.37081819398E+03  0.77557206868E+02 0.  0.
        -13    1    4    4    0    0 -0.23984831765E+02 -0.10520779172E+03  0.28787606817E+03  0.30743549277E+03  0.00000000000E+00 0.  1.
         14    1    4    4    0    0  0.26856559161E+02 -0.67462239939E+01  0.57013862387E+02  0.63382701208E+02  0.00000000000E+00 0. -1.
        -13    1    3    3    0    0 -0.41539613794E-01  0.72481699121E+02 -0.16344807733E+02  0.74301757535E+02  0.00000000000E+00 0.  1.
         13    1    3    3    0    0  0.20070924963E+02  0.36715756505E+02  0.70391265651E+02  0.81889065720E+02  0.00000000000E+00 0. -1.
         -2    1    1    2    0  502 -0.22901112745E+02  0.27565600868E+01 -0.18077405288E+02  0.29306179731E+02  0.00000000000E+00 0.  1.
<scales pt_clust_5="13000.00000" pt_clust_6="13000.00000" pt_clust_7="13000.00000" pt_clust_8="13000.00000" pt_clust_9="23.06643"></scales>
<clustering>
<clus scale="   23.066">  1  9  2 -1</clus>
<clus scale="   77.557">  5  6 -1 -1</clus>
<clus scale="   95.652">  7  8 -1 -1</clus>
<clus scale="  135.263">  1  5  2 -1</clus>
<clus scale="   23.066">  1  5  2 -1</clus>
</clustering>
</event>
<event>
 9    2  0.1654290E-004  0.1291762E+03  0.7546771E-02  0.1245749E+00
         -1   -1    0    0    0  501 -0.00000000000E+00  0.00000000000E+00  0.20400403073E+03  0.20400403073E+03  0.00000000000E+00 0.  1.
         21   -1    0    0  501  502  0.00000000000E+00 -0.00000000000E+00 -0.13269436835E+03  0.13269436835E+03  0.00000000000E+00 0. -1.
         23    2    1    2    0    0  0.73181116892E+01  0.94122796901E-01  0.25701641674E+02  0.94744866026E+02  0.90898028778E+02 0.  0.
         24    2    1    2    0    0 -0.27278201715E+02 -0.98557877448E+02 -0.40051448123E+01  0.12990451536E+03  0.80008664714E+02 0.  0.
        -11    1    4    4    0    0  0.24142299771E+02 -0.50843195619E+02  0.12910520527E+02  0.57745672732E+02  0.00000000000E+00 0.  1.
         12    1    4    4    0    0 -0.51420501486E+02 -0.47714681829E+02 -0.16915665339E+02  0.72158842625E+02  0.00000000000E+00 0. -1.
        -13    1    3    3    0    0 -0.24213511243E+02  0.28732929387E+02 -0.10312692825E+02  0.38964432386E+02  0.00000000000E+00 0.  1.
         13    1    3    3    0    0  0.31531622932E+02 -0.28638806590E+02  0.36014334500E+02  0.55780433640E+02  0.00000000000E+00 0. -1.
         -2    1    1    2    0  502  0.19960090026E+02  0.98463754651E+02  0.49613165522E+02  0.11204901770E+03  0.00000000000E+00 0.  1.
<scales pt_clust_5="13000.00000" pt_clust_6="13000.00000" pt_clust_7="13000.00000" pt_clust_8="13000.00000" pt_clust_9="101.41554"></scales>
<clustering>
<clus scale="   80.009">  5  6 -1 -1</clus>
<clus scale="   90.898">  7  8 -1 -1</clus>
<clus scale="   91.192">  1  7  2 -1</clus>
<clus scale="  101.416">  2  9  1 -1</clus>
<clus scale="  101.416">  2  5  1 -1</clus>
</clustering>
</event>
<event>
 9    2  0.1654290E-004  0.8435351E+02  0.7546771E-02  0.1320989E+00
          2   -1    0    0  502    0 -0.00000000000E+00  0.00000000000E+00  0.90798417480E+02  0.90798417480E+02  0.00000000000E+00 0. -1.
         21   -1    0    0  501  502  0.00000000000E+00 -0.00000000000E+00 -0.25871599633E+03  0.25871599633E+03  0.00000000000E+00 0.  1.
         23    2    1    2    0    0  0.11681600812E+02  0.76389739611E+01  0.39647804426E+02  0.93506614950E+02  0.83526791647E+02 0.  0.
         24    2    1    2    0    0  0.18618783937E+01  0.92380829686E+01 -0.21822589186E+03  0.23188504357E+03  0.77841664856E+02 0.  0.
        -11    1    4    4    0    0 -0.11905210341E+02  0.39966659586E+02 -0.15163914488E+03  0.15726887223E+03  0.00000000000E+00 0.  1.
         12    1    4    4    0    0  0.13767088735E+02 -0.30728576617E+02 -0.66586746975E+02  0.74616171343E+02  0.00000000000E+00 0. -1.
        -13    1    3    3    0    0 -0.59058329315E+01 -0.34830268425E+02  0.44397488393E+01  0.35605306219E+02  0.00000000000E+00 0. -1.
         13    1    3    3    0    0  0.17587433744E+02  0.42469242386E+02  0.35208055586E+02  0.57901308731E+02  0.00000000000E+00 0.  1.
          1    1    1    2  501    0 -0.13543479206E+02 -0.16877056930E+02  0.10660508579E+02  0.24122755290E+02  0.00000000000E+00 0. -1.
<scales pt_clust_5="13000.00000" pt_clust_6="13000.00000" pt_clust_7="13000.00000" pt_clust_8="13000.00000" pt_clust_9="21.63935"></scales>
<clustering>
<clus scale="   21.639">  2  9  1 -1</clus>
<clus scale="   77.842">  5  6 -1 -1</clus>
<clus scale="   78.728">  2  5  1 -1</clus>
<clus scale="   83.527">  7  8 -1 -1</clus>
<clus scale="   21.639">  2  5  1 -1</clus>
</clustering>
</event>
<event>
 9    2  0.1654290E-004  0.1327940E+03  0.7546771E-02  0.1226409E+00
         -3   -1    0    0    0  501 -0.00000000000E+00  0.00000000000E+00  0.10012685848E+03  0.10012685848E+03  0.00000000000E+00 0.  1.
         21   -1    0    0  501  502  0.00000000000E+00 -0.00000000000E+00 -0.49868105415E+03  0.49868105415E+03  0.00000000000E+00 0.  1.
         23    2    1    2    0    0  0.54181450456E+02  0.40147392339E+02 -0.69425730518E+02  0.13398012383E+03  0.92646094563E+02 0.  0.
         24    2    1    2    0    0 -0.24773783927E+02 -0.13476660208E+03 -0.46901574243E+02  0.16571305553E+03  0.80531246724E+02 0.  0.
        -13    1    4    4    0    0 -0.49154694430E+02 -0.74888276869E+02 -0.72536476448E+01  0.89872428481E+02  0.00000000000E+00 0.  1.
         14    1    4    4    0    0  0.24380910503E+02 -0.59878325216E+02 -0.39647926598E+02  0.75840627049E+02  0.00000000000E+00 0. -1.
        -11    1    3    3    0    0  0.59578154907E+02  0.92693877617E+01 -0.28128716576E+01  0.60360503134E+02  0.00000000000E+00 0.  1.
         11    1    3    3    0    0 -0.53967044510E+01  0.30878004577E+02 -0.66612858861E+02  0.73619620694E+02  0.00000000000E+00 0. -1.
         -4    1    1    2    0  502 -0.29407666528E+02  0.94619209746E+02 -0.28222689091E+03  0.29911473327E+03  0.00000000000E+00 0.  1.
<scales pt_clust_5="13000.00000" pt_clust_6="13000.00000" pt_clust_7="13000.00000" pt_clust_8="13000.00000" pt_clust_9="99.08383"></scales>
<clustering>
<clus scale="   80.531">  5  6 -1 -1</clus>
<clus scale="   92.646">  7  8 -1 -1</clus>
<clus scale="   99.084">  2  9  1 -1</clus>
<clus scale="  124.644">  2  5  1 -1</clus>
<clus scale="   99.084">  2  5  1 -1</clus>
</clustering>
</event>
<event>
 9    2  0.1654290E-004  0.1044101E+03  0.7546771E-02  0.1276050E+00
          2   -1    0    0  502    0 -0.00000000000E+00  0.00000000000E+00  0.95787094201E+03  0.95787094201E+03  0.00000000000E+00 0. -1.
         21   -1    0    0  501  502  0.00000000000E+00 -0.00000000000E+00 -0.25307356426E+02  0.25307356426E+02  0.00000000000E+00 0. -1.
         24    2    1    2    0    0 -0.61392492184E+02 -0.93666768355E+01  0.66443975598E+03  0.67228164542E+03  0.81398087881E+02 0.  0.
         23    2    1    2    0    0 -0.34848455041E-01  0.17616468073E+02  0.13774317510E+03  0.16653428845E+03  0.91924674501E+02 0.  0.
        -11    1    3    3    0    0 -0.23799918635E+02  0.29827033956E+02  0.14237847761E+03  0.14740325291E+03  0.00000000000E+00 0.  1.
         12    1    3    3    0    0 -0.37592573549E+02 -0.39193710792E+02  0.52206127838E+03  0.52487839252E+03  0.00000000000E+00 0. -1.
        -11    1    4    4    0    0 -0.21634007352E+01  0.55502714650E+02  0.85708970573E+02  0.10213353648E+03  0.00000000000E+00 0. -1.
         11    1    4    4    0    0  0.21285522801E+01 -0.37886246577E+02  0.52034204527E+02  0.64400751977E+02  0.00000000000E+00 0.  1.
          1    1    1    2  501    0  0.61427340639E+02 -0.82497912372E+01  0.13038065450E+03  0.14436236456E+03  0.00000000000E+00 0. -1.
<scales pt_clust_5="13000.00000" pt_clust_6="13000.00000" pt_clust_7="13000.00000" pt_clust_8="13000.00000" pt_clust_9="61.97885"></scales>
<clustering>
<clus scale="   61.979">  2  9  1 -1</clus>
<clus scale="   81.398">  5  6 -1 -1</clus>
<clus scale="   91.925">  7  8 -1 -1</clus>
<clus scale="   95.273">  1  5  2 -1</clus>
<clus scale="   61.979">  2  5  1 -1</clus>
</clustering>
</event>
<event>
 9    2  0.1654290E-004  0.1774087E+03  0.7546771E-02  0.1171840E+00
         21   -1    0    0  501  502  0.00000000000E+00  0.00000000000E+00  0.24278021808E+03  0.24278021808E+03  0.00000000000E+00 0.  1.
         -3   -1    0    0    0  501 -0.00000000000E+00 -0.00000000000E+00 -0.24081819694E+03  0.24081819694E+03  0.00000000000E+00 0.  1.
         23    2    1    2    0    0  0.12788323813E+03 -0.44328450089E+02 -0.48435787958E+02  0.17022006351E+03  0.91157612868E+02 0.  0.
         24    2    1    2    0    0 -0.16901168983E+03  0.10574615015E+03  0.86409122266E+02  0.23115610334E+03  0.78863224189E+02 0.  0.
        -11    1    4    4    0    0 -0.11403246002E+03  0.10979210574E+03  0.54253190369E+02  0.16733534321E+03  0.00000000000E+00 0.  1.
         12    1    4    4    0    0 -0.54979229811E+02 -0.40459555964E+01  0.32155931897E+02  0.63820760129E+02  0.00000000000E+00 0. -1.
        -13    1    3    3    0    0  0.80793490255E+02 -0.61696878285E+02 -0.17478610050E+01  0.10167176538E+03  0.00000000000E+00 0.  1.
         13    1    3    3    0    0  0.47089747877E+02  0.17368428196E+02 -0.46687926953E+02  0.68548298128E+02  0.00000000000E+00 0. -1.
         -4    1    1    2    0  502  0.41128451697E+02 -0.61417700059E+02 -0.36011313158E+02  0.82222248174E+02  0.00000000000E+00 0.  1.
<scales pt_clust_5="13000.00000" pt_clust_6="13000.00000" pt_clust_7="13000.00000" pt_clust_8="13000.00000" pt_clust_9="73.91677"></scales>
<clustering>
<clus scale="   73.917">  1  9  2 -1</clus>
<clus scale="   78.863">  5  6 -1 -1</clus>
<clus scale="   91.158">  7  8 -1 -1</clus>
<clus scale="  171.416">  1  5  2 -1</clus>
<clus scale="   73.917">  1  5  2 -1</clus>
</clustering>
</event>
<event>
 9    2  0.1654290E-004  0.1001160E+03  0.7546771E-02  0.1285323E+00
          2   -1    0    0  502    0 -0.00000000000E+00  0.00000000000E+00  0.31204300650E+03  0.31204300650E+03  0.00000000000E+00 0. -1.
         21   -1    0    0  501  502  0.00000000000E+00 -0.00000000000E+00 -0.52171848814E+02  0.52171848814E+02  0.00000000000E+00 0.  1.
         24    2    1    2    0    0 -0.44721241002E+02 -0.35649094444E+02  0.12691355609E+03  0.16102555018E+03  0.80940285148E+02 0.  0.
         23    2    1    2    0    0  0.13675871040E+02  0.18527577676E+01  0.42588468553E+02  0.10183553078E+03  0.91467128061E+02 0.  0.
        -11    1    3    3    0    0 -0.49059656770E+02 -0.37611919991E+02  0.39235704390E+02  0.73218487739E+02  0.00000000000E+00 0.  1.
         12    1    3    3    0    0  0.43384157684E+01  0.19628255475E+01  0.87677851705E+02  0.87807062444E+02  0.00000000000E+00 0. -1.
        -13    1    4    4    0    0  0.17182122118E+02 -0.41477844456E+02  0.65567702060E+01  0.45372107475E+02  0.00000000000E+00 0.  1.
         13    1    4    4    0    0 -0.35062510777E+01  0.43330602224E+02  0.36031698347E+02  0.56463423306E+02  0.00000000000E+00 0. -1.
          1    1    1    2  501    0  0.31045369962E+02  0.33796336676E+02  0.90369133039E+02  0.10135377435E+03  0.00000000000E+00 0. -1.
<scales pt_clust_5="13000.00000" pt_clust_6="13000.00000" pt_clust_7="13000.00000" pt_clust_8="13000.00000" pt_clust_9="45.89128"></scales>
<clustering>
<clus scale="   45.891">  2  9  1 -1</clus>
<clus scale="   80.940">  5  6 -1 -1</clus>
<clus scale="   90.600">  1  5  2 -1</clus>
<clus scale="   91.467">  7  8 -1 -1</clus>
<clus scale="   45.891">  2  5  1 -1</clus>
</clustering>
</event>
<event>
 9    2  0.1654290E-004  0.8953193E+02  0.7546771E-02  0.1308938E+00
         21   -1    0    0  501  502  0.00000000000E+00  0.00000000000E+00  0.24976123918E+02  0.24976123918E+02  0.00000000000E+00 0.  1.
         -3   -1    0    0    0  501 -0.00000000000E+00 -0.00000000000E+00 -0.40229164788E+03  0.40229164788E+03  0.00000000000E+00 0.  1.
         23    2    1    2    0    0 -0.91761638121E+01  0.20141062250E+02 -0.19752950813E+03  0.21762344300E+03  0.88612594993E+02 0.  0.
         24    2    1    2    0    0  0.96915047040E+01  0.52049262412E+01 -0.12452874615E+03  0.14884917635E+03  0.80793886899E+02 0.  0.
        -11    1    4    4    0    0  0.13797612994E+02 -0.35915195853E+02 -0.44848934029E+02  0.59090627861E+02  0.00000000000E+00 0.  1.
         12    1    4    4    0    0 -0.41061082903E+01  0.41120122094E+02 -0.79679812123E+02  0.89758548485E+02  0.00000000000E+00 0. -1.
        -13    1    3    3    0    0  0.18119059473E+00 -0.35141036536E+02 -0.70628918152E+02  0.78888334741E+02  0.00000000000E+00 0. -1.
         13    1    3    3    0    0 -0.93573544068E+01  0.55282098786E+02 -0.12690058998E+03  0.13873510826E+03  0.00000000000E+00 0.  1.
         -4    1    1    2    0  502 -0.51534089189E+00 -0.25345988491E+02 -0.55257269678E+02  0.60795152448E+02  0.00000000000E+00 0.  1.
<scales pt_clust_5="13000.00000" pt_clust_6="13000.00000" pt_clust_7="13000.00000" pt_clust_8="13000.00000" pt_clust_9="25.35124"></scales>
<clustering>
<clus scale="   25.351">  1  9  2 -1</clus>
<clus scale="   80.794">  5  6 -1 -1</clus>
<clus scale="   81.801">  1  5  2 -1</clus>
<clus scale="   88.613">  7  8 -1 -1</clus>
<clus scale="   25.351">  1  5  2 -1</clus>
</clustering>
</event>
<event>
 9    2  0.1654290E-004  0.9749267E+02  0.7546771E-02  0.1289871E+00
         21   -1    0    0  501  502  0.00000000000E+00  0.00000000000E+00  0.13100521044E+03  0.13100521044E+03  0.00000000000E+00 0. -1.
         -1   -1    0    0    0  501 -0.00000000000E+00 -0.00000000000E+00 -0.11934339388E+03  0.11934339388E+03  0.00000000000E+00 0.  1.
         24    2    1    2    0    0  0.34223989722E+02  0.29035547142E+02 -0.24935459493E+02  0.96115489822E+02  0.81253097007E+02 0.  0.
         23    2    1    2    0    0 -0.24722050388E+02 -0.64476694469E+01  0.67418725183E+02  0.11485722344E+03  0.89409982969E+02 0.  0.
        -11    1    3    3    0    0  0.60951324922E+02  0.15639455099E+02 -0.16592280117E+02  0.65076572782E+02  0.00000000000E+00 0.  1.
         12    1    3    3    0    0 -0.26727335200E+02  0.13396092044E+02 -0.83431793760E+01  0.31038917040E+02  0.00000000000E+00 0. -1.
        -11    1    4    4    0    0  0.30127755635E+02  0.15532597595E+02  0.24164390781E+02  0.41627647417E+02  0.00000000000E+00 0.  1.
         11    1    4    4    0    0 -0.54849806024E+02 -0.21980267041E+02  0.43254334403E+02  0.73229576024E+02  0.00000000000E+00 0. -1.
         -2    1    1    2    0  502 -0.95019393338E+01 -0.22587877695E+02 -0.30821449127E+02  0.39375891053E+02  0.00000000000E+00 0.  1.
<scales pt_clust_5="13000.00000" pt_clust_6="13000.00000" pt_clust_7="13000.00000" pt_clust_8="13000.00000" pt_clust_9="24.50509"></scales>
<clustering>
<clus scale="   24.505">  1  9  2 -1</clus>
<clus scale="   81.253">  5  6 -1 -1</clus>
<clus scale="   89.410">  7  8 -1 -1</clus>
<clus scale="   90.071">  2  5  1 -1</clus>
<clus scale="   24.505">  1  5  2 -1</clus>
</clustering>
</event>
<event>
 9    2  0.1654290E-004  0.1016871E+03  0.7546771E-02  0.1277393E+00
          2   -1    0    0  502    0 -0.00000000000E+00  0.00000000000E+00  0.82882074519E+03  0.82882074519E+03  0.00000000000E+00 0. -1.
         21   -1    0    0  501  502  0.00000000000E+00 -0.00000000000E+00 -0.49862297134E+02  0.49862297134E+02  0.00000000000E+00 0. -1.
         24    2    1    2    0    0 -0.25046892392E+02 -0.53276800976E+02  0.60732255904E+03  0.61605278225E+03  0.84938657026E+02 0.  0.
         23    2    1    2    0    0  0.53326253032E+02  0.23452030543E+02  0.19156485219E+03  0.21695310229E+03  0.83533639927E+02 0.  0.
        -13    1    3    3    0    0 -0.50072694764E+01 -0.22413108578E+02  0.31120965231E+02  0.38677314548E+02  0.00000000000E+00 0.  1.
         14    1    3    3    0    0 -0.20039622916E+02 -0.30863692398E+02  0.57620159381E+03  0.57737546771E+03  0.00000000000E+00 0. -1.
        -11    1    4    4    0    0 -0.12820566311E+02  0.32289023436E+02  0.74513628324E+02  0.82214528892E+02  0.00000000000E+00 0. -1.
         11    1    4    4    0    0  0.66146819342E+02 -0.88369928933E+01  0.11705122386E+03  0.13473857339E+03  0.00000000000E+00 0.  1.
          1    1    1    2  501    0 -0.28279360639E+02  0.29824770433E+02 -0.19928963179E+02  0.45677157781E+02  0.00000000000E+00 0. -1.
<scales pt_clust_5="13000.00000" pt_clust_6="13000.00000" pt_clust_7="13000.00000" pt_clust_8="13000.00000" pt_clust_9="41.10035"></scales>
<clustering>
<clus scale="   41.100">  2  9  1 -1</clus>
<clus scale="   83.534">  7  8 -1 -1</clus>
<clus scale="   84.939">  5  6 -1 -1</clus>
<clus scale="  100.516">  2  7  1 -1</clus>
<clus scale="   41.100">  2  5  1 -1</clus>
</clustering>
</event>
<event>
 9    2  0.1654290E-004  0.1036974E+03  0.7546771E-02  0.1277472E+00
          2   -1    0    0  502    0 -0.00000000000E+00  0.00000000000E+00  0.53998723688E+03  0.53998723688E+03  0.00000000000E+00 0. -1.
         21   -1    0    0  501  502  0.00000000000E+00 -0.00000000000E+00 -0.27136522477E+02  0.27136522477E+02  0.00000000000E+00 0.  1.
         23    2    1    2    0    0 -0.30965616086E+02  0.46452527815E+02  0.26329723944E+03  0.28391215447E+03  0.90354681325E+02 0.  0.
         24    2    1    2    0    0  0.48452864201E+02 -0.15758235436E+02  0.14802281695E+03  0.17571082374E+03  0.79796849614E+02 0.  0.
        -13    1    4    4    0    0  0.25148615667E+02  0.32446557810E+02  0.60632031138E+02  0.73222094914E+02  0.00000000000E+00 0.  1.
         14    1    4    4    0    0  0.23304248534E+02 -0.48204793245E+02  0.87390785808E+02  0.10248872882E+03  0.00000000000E+00 0. -1.
        -11    1    3    3    0    0  0.19465747697E+02 -0.16275400474E+02  0.73410753060E+02  0.77672019794E+02  0.00000000000E+00 0.  1.
         11    1    3    3    0    0 -0.50431363782E+02  0.62727928288E+02  0.18988648638E+03  0.20624013467E+03  0.00000000000E+00 0. -1.
          1    1    1    2  501    0 -0.17487248115E+02 -0.30694292379E+02  0.10153065802E+03  0.10750078115E+03  0.00000000000E+00 0. -1.
<scales pt_clust_5="13000.00000" pt_clust_6="13000.00000" pt_clust_7="13000.00000" pt_clust_8="13000.00000" pt_clust_9="35.32626"></scales>
<clustering>
<clus scale="   35.326">  2  9  1 -1</clus>
<clus scale="   79.797">  5  6 -1 -1</clus>
<clus scale="   90.355">  7  8 -1 -1</clus>
<clus scale="   94.640">  2  5  1 -1</clus>
<clus scale="   35.326">  2  5  1 -1</clus>
</clustering>
</event>
<event>
 9    2  0.1654290E-004  0.1857049E+03  0.7546771E-02  0.1193618E+00
          2   -1    0    0  502    0 -0.00000000000E+00  0.00000000000E+00  0.77845511558E+03  0.77845511558E+03  0.00000000000E+00 0. -1.
         21   -1    0    0  501  502  0.00000000000E+00 -0.00000000000E+00 -0.81332710814E+02  0.81332710814E+02  0.00000000000E+00 0. -1.
         23    2    1    2    0    0  0.15185662396E+02  0.30493731969E+02  0.29160670308E+03  0.30571755720E+03  0.85254228414E+02 0.  0.
         24    2    1    2    0    0 -0.46532439166E+02  0.15198093524E+03  0.12232761114E+03  0.21572854961E+03  0.79443628429E+02 0.  0.
        -11    1    4    4    0    0 -0.10585235028E+02  0.47761907266E+02 -0.27531293452E+01  0.48998231677E+02  0.00000000000E+00 0.  1.
         12    1    4    4    0    0 -0.35947204138E+02  0.10421902798E+03  0.12508074049E+03  0.16673031794E+03  0.00000000000E+00 0. -1.
        -11    1    3    3    0    0 -0.14580748075E+01 -0.29367298278E+02  0.82975443650E+02  0.88031178790E+02  0.00000000000E+00 0.  1.
         11    1    3    3    0    0  0.16643737204E+02  0.59861030247E+02  0.20863125943E+03  0.21768637841E+03  0.00000000000E+00 0. -1.
          1    1    1    2  501    0  0.31346776770E+02 -0.18247466721E+03  0.28318809054E+03  0.33834171958E+03  0.00000000000E+00 0. -1.
<scales pt_clust_5="13000.00000" pt_clust_6="13000.00000" pt_clust_7="13000.00000" pt_clust_8="13000.00000" pt_clust_9="167.85421"></scales>
<clustering>
<clus scale="   79.444">  5  6 -1 -1</clus>
<clus scale="   85.254">  7  8 -1 -1</clus>
<clus scale="   91.808">  1  7  2 -1</clus>
<clus scale="  167.854">  2  9  1 -1</clus>
<clus scale="  167.854">  2  5  1 -1</clus>
</clustering>
</event>
<event>
 9    2  0.1654290E-004  0.9791805E+02  0.7546771E-02  0.1287427E+00
          2   -1    0    0  502    0 -0.00000000000E+00  0.00000000000E+00  0.56809205912E+02  0.56809205912E+02  0.00000000000E+00 0. -1.
         21   -1    0    0  501  502  0.00000000000E+00 -0.00000000000E+00 -0.45254751623E+03  0.45254751623E+03  0.00000000000E+00 0. -1.
         23    2    1    2    0    0  0.49982215969E+01  0.44786366024E+02 -0.42200097094E+01  0.98141214895E+02  0.87080932346E+02 0.  0.
         24    2    1    2    0    0 -0.32166845290E+02 -0.38544233820E+02 -0.26856093332E+03  0.28513770390E+03  0.81597618713E+02 0.  0.
        -11    1    4    4    0    0  0.22828571219E+02 -0.12593778250E+02 -0.34134099466E+02  0.42952108921E+02  0.00000000000E+00 0.  1.
         12    1    4    4    0    0 -0.54995416508E+02 -0.25950455571E+02 -0.23442683386E+03  0.24218559497E+03  0.00000000000E+00 0. -1.
        -11    1    3    3    0    0  0.27028949668E+02  0.59607216846E+02  0.12681374276E+02  0.66666345887E+02  0.00000000000E+00 0.  1.
         11    1    3    3    0    0 -0.22030728071E+02 -0.14820850822E+02 -0.16901383986E+02  0.31474869008E+02  0.00000000000E+00 0. -1.
          1    1    1    2  501    0  0.27168623693E+02 -0.62421322038E+01 -0.12295736729E+03  0.12607780335E+03  0.00000000000E+00 0. -1.
<scales pt_clust_5="13000.00000" pt_clust_6="13000.00000" pt_clust_7="13000.00000" pt_clust_8="13000.00000" pt_clust_9="27.87648"></scales>
<clustering>
<clus scale="   27.876">  2  9  1 -1</clus>
<clus scale="   81.598">  5  6 -1 -1</clus>
<clus scale="   87.081">  7  8 -1 -1</clus>
<clus scale="   93.075">  2  5  1 -1</clus>
<clus scale="   27.876">  2  5  1 -1</clus>
</clustering>
</event>
<event>
 9    2  0.1654290E-004  0.3517700E+03  0.7546771E-02  0.1078331E+00
          2   -1    0    0  502    0 -0.00000000000E+00  0.00000000000E+00  0.83317746664E+03  0.83317746664E+03  0.00000000000E+00 0. -1.
         21   -1    0    0  501  502  0.00000000000E+00 -0.00000000000E+00 -0.31523720510E+03  0.31523720510E+03  0.00000000000E+00 0.  1.
         24    2    1    2    0    0  0.20937888507E+03  0.13403520900E+02  0.11322599054E+03  0.25100388820E+03  0.78508949009E+02 0.  0.
         23    2    1    2    0    0 -0.47356110161E+03 -0.12306589127E+03  0.34469817124E+03  0.60514376308E+03  0.89313012380E+02 0.  0.
        -13    1    3    3    0    0  0.12943248340E+03  0.27727407845E+02  0.32094436612E+02  0.13620436765E+03  0.00000000000E+00 0.  1.
         14    1    3    3    0    0  0.79946401663E+02 -0.14323886946E+02  0.81131553925E+02  0.11479952055E+03  0.00000000000E+00 0. -1.
        -11    1    4    4    0    0 -0.42452929321E+03 -0.10687339411E+03  0.27001955858E+03  0.51435163573E+03  0.00000000000E+00 0.  1.
         11    1    4    4    0    0 -0.49031808401E+02 -0.16192497158E+02  0.74678612657E+02  0.90792127344E+02  0.00000000000E+00 0. -1.
          1    1    1    2  501    0  0.26418221655E+03  0.10966237037E+03  0.60016099768E+02  0.29226702046E+03  0.00000000000E+00 0. -1.
<scales pt_clust_5="13000.00000" pt_clust_6="13000.00000" pt_clust_7="13000.00000" pt_clust_8="13000.00000" pt_clust_9="340.24298"></scales>
<clustering>
<clus scale="   78.509">  5  6 -1 -1</clus>
<clus scale="   89.313">  7  8 -1 -1</clus>
<clus scale="  224.015">  1  5  2 -1</clus>
<clus scale="  340.243">  2  9  1 -1</clus>
<clus scale="  340.243">  2  5  1 -1</clus>
</clustering>
</event>
<event>
 9    2  0.1654290E-004  0.1078196E+03  0.7546771E-02  0.1269826E+00
         21   -1    0    0  501  502  0.00000000000E+00  0.00000000000E+00  0.10454461142E+03  0.10454461142E+03  0.00000000000E+00 0.  1.
         -1   -1    0    0    0  501 -0.00000000000E+00 -0.00000000000E+00 -0.38153781425E+03  0.38153781425E+03  0.00000000000E+00 0.  1.
         23    2    1    2    0    0  0.55299177885E+02  0.97473784638E+01 -0.19428352679E+03  0.22260896454E+03  0.93035755756E+02 0.  0.
         24    2    1    2    0    0 -0.28026803561E+02 -0.68547593223E+02  0.46344708913E+02  0.11905641944E+03  0.80884638288E+02 0.  0.
        -13    1    4    4    0    0  0.23982244217E+02 -0.44810836755E+02  0.11516210182E+02  0.52113167485E+02  0.00000000000E+00 0.  1.
         14    1    4    4    0    0 -0.52009047778E+02 -0.23736756468E+02  0.34828498730E+02  0.66943251954E+02  0.00000000000E+00 0. -1.
        -13    1    3    3    0    0  0.18801957241E+02 -0.33072108639E+02 -0.13752433754E+03  0.14268924761E+03  0.00000000000E+00 0.  1.
         13    1    3    3    0    0  0.36497220645E+02  0.42819487103E+02 -0.56759189250E+02  0.79919716934E+02  0.00000000000E+00 0. -1.
         -2    1    1    2    0  502 -0.27272374324E+02  0.58800214759E+02 -0.12905438495E+03  0.14441704169E+03  0.00000000000E+00 0.  1.
<scales pt_clust_5="13000.00000" pt_clust_6="13000.00000" pt_clust_7="13000.00000" pt_clust_8="13000.00000" pt_clust_9="64.81706"></scales>
<clustering>
<clus scale="   64.817">  1  9  2 -1</clus>
<clus scale="   80.885">  5  6 -1 -1</clus>
<clus scale="   93.036">  7  8 -1 -1</clus>
<clus scale="   97.528">  1  5  2 -1</clus>
<clus scale="   64.817">  1  5  2 -1</clus>
</clustering>
</event>
<event>
 9    2  0.1654290E-004  0.2308786E+03  0.7546771E-02  0.1139649E+00
          2   -1    0    0  502    0 -0.00000000000E+00  0.00000000000E+00  0.14204155705E+04  0.14204155705E+04  0.00000000000E+00 0. -1.
         21   -1    0    0  501  502  0.00000000000E+00 -0.00000000000E+00 -0.92877302506E+02  0.92877302506E+02  0.00000000000E+00 0. -1.
         24    2    1    2    0    0  0.46157880521E+02 -0.13739867297E+03  0.33772115477E+03  0.37609063089E+03  0.79872642369E+02 0.  0.
         23    2    1    2    0    0 -0.24851378681E+03  0.97875758648E+02  0.82882166875E+03  0.87561190072E+03  0.91717368683E+02 0.  0.
        -13    1    3    3    0    0  0.69146978124E+01 -0.48283099707E+02  0.20940767738E+03  0.21501313008E+03  0.00000000000E+00 0.  1.
         14    1    3    3    0    0  0.39243182709E+02 -0.89115573264E+02  0.12831347739E+03  0.16107750081E+03  0.00000000000E+00 0. -1.
        -13    1    4    4    0    0 -0.15510603460E+03  0.35601301433E+02  0.36120283339E+03  0.39470599372E+03  0.00000000000E+00 0. -1.
         13    1    4    4    0    0 -0.93407752206E+02  0.62274457214E+02  0.46761883536E+03  0.48090590699E+03  0.00000000000E+00 0.  1.
          1    1    1    2  501    0  0.20235590628E+03  0.39522914323E+02  0.16099544444E+03  0.26159034137E+03  0.00000000000E+00 0. -1.
<scales pt_clust_5="13000.00000" pt_clust_6="13000.00000" pt_clust_7="13000.00000" pt_clust_8="13000.00000" pt_clust_9="211.87931"></scales>
<clustering>
<clus scale="   79.873">  5  6 -1 -1</clus>
<clus scale="   91.717">  7  8 -1 -1</clus>
<clus scale="  165.495">  1  5  2 -1</clus>
<clus scale="  211.879">  2  9  1 -1</clus>
<clus scale="  211.879">  2  5  1 -1</clus>
</clustering>
</event>
<event>
 9    2  0.1654290E-004  0.9773862E+02  0.7546771E-02  0.1290241E+00
         -3   -1    0    0    0  501 -0.00000000000E+00  0.00000000000E+00  0.11509587560E+03  0.11509587560E+03  0.00000000000E+00 0.  1.
         21   -1    0    0  501  502  0.00000000000E+00 -0.00000000000E+00 -0.23896315093E+03  0.23896315093E+03  0.00000000000E+00 0.  1.
         24    2    1    2    0    0  0.38887267281E+02  0.14543754169E+00  0.75637555768E+02  0.11724851947E+03  0.80708950963E+02 0.  0.
         23    2    1    2    0    0 -0.24152713291E+02 -0.17661179201E+02 -0.11546894434E+03  0.14971321349E+03  0.90474849406E+02 0.  0.
        -11    1    3    3    0    0  0.42396370008E+02  0.27232079141E+02  0.74463574359E+02  0.89910301026E+02  0.00000000000E+00 0.  1.
         12    1    3    3    0    0 -0.35091027271E+01 -0.27086641599E+02  0.11739814091E+01  0.27338218439E+02  0.00000000000E+00 0. -1.
        -11    1    4    4    0    0  0.99944085881E+01  0.30006314431E+02 -0.19218199158E+02  0.37008192169E+02  0.00000000000E+00 0. -1.
         11    1    4    4    0    0 -0.34147121879E+02 -0.47667493632E+02 -0.96250745182E+02  0.11270502132E+03  0.00000000000E+00 0.  1.
         -4    1    1    2    0  502 -0.14734553990E+02  0.17515741659E+02 -0.84035886754E+02  0.87097293584E+02  0.00000000000E+00 0.  1.
<scales pt_clust_5="13000.00000" pt_clust_6="13000.00000" pt_clust_7="13000.00000" pt_clust_8="13000.00000" pt_clust_9="22.88904"></scales>
<clustering>
<clus scale="   22.889">  2  9  1 -1</clus>
<clus scale="   80.709">  5  6 -1 -1</clus>
<clus scale="   88.775">  1  5  2 -1</clus>
<clus scale="   90.475">  7  8 -1 -1</clus>
<clus scale="   22.889">  2  5  1 -1</clus>
</clustering>
</event>
<event>
 9    2  0.1654290E-004  0.1540644E+03  0.7546771E-02  0.1203670E+00
         -3   -1    0    0    0  501 -0.00000000000E+00  0.00000000000E+00  0.21979520896E+03  0.21979520896E+03  0.00000000000E+00 0.  1.
         21   -1    0    0  501  502  0.00000000000E+00 -0.00000000000E+00 -0.35370017660E+03  0.35370017660E+03  0.00000000000E+00 0. -1.
         24    2    1    2    0    0  0.19298551601E+02  0.98294353241E+02 -0.12331778233E+03  0.17859338257E+03  0.81572709210E+02 0.  0.
         23    2    1    2    0    0 -0.96442742954E+02  0.65963072290E+02 -0.11391810338E+03  0.18607430671E+03  0.89409080996E+02 0.  0.
        -13    1    3    3    0    0  0.18348776134E+01  0.82535186183E+02 -0.39464905186E+02  0.91503565370E+02  0.00000000000E+00 0.  1.
         14    1    3    3    0    0  0.17463673988E+02  0.15759167058E+02 -0.83852877143E+02  0.87089817204E+02  0.00000000000E+00 0. -1.
        -11    1    4    4    0    0 -0.23380775899E+02 -0.15720550333E+02 -0.54645087893E+02  0.61480745077E+02  0.00000000000E+00 0.  1.
         11    1    4    4    0    0 -0.73061967055E+02  0.81683622623E+02 -0.59273015489E+02  0.12459356163E+03  0.00000000000E+00 0. -1.
         -4    1    1    2    0  502  0.77144191353E+02 -0.16425742553E+03  0.10333091807E+03  0.20882769627E+03  0.00000000000E+00 0.  1.
<scales pt_clust_5="13000.00000" pt_clust_6="13000.00000" pt_clust_7="13000.00000" pt_clust_8="13000.00000" pt_clust_9="125.46662"></scales>
<clustering>
<clus scale="   81.573">  5  6 -1 -1</clus>
<clus scale="   89.409">  7  8 -1 -1</clus>
<clus scale="  129.183">  1  5  2 -1</clus>
<clus scale="  125.467">  2  9  1 -1</clus>
<clus scale="  125.467">  2  5  1 -1</clus>
</clustering>
</event>
<event>
 9    2  0.1654290E-004  0.1070725E+03  0.7546771E-02  0.1273927E+00
         -3   -1    0    0    0  501 -0.00000000000E+00  0.00000000000E+00  0.28399812471E+03  0.28399812471E+03  0.00000000000E+00 0.  1.
         21   -1    0    0  501  502  0.00000000000E+00 -0.00000000000E+00 -0.64511559287E+02  0.64511559287E+02  0.00000000000E+00 0. -1.
         23    2    1    2    0    0 -0.11932215762E+02 -0.45900413734E+02  0.14459607767E+03  0.17939984822E+03  0.95010810490E+02 0.  0.
         24    2    1    2    0    0 -0.21925460001E+02  0.57617167079E+02  0.16358977484E+02  0.10048358561E+03  0.77645805393E+02 0.  0.
        -11    1    4    4    0    0  0.22106048092E+02  0.40755634345E+02  0.24805514486E+02  0.52583387510E+02  0.00000000000E+00 0.  1.
         12    1    4    4    0    0 -0.44031508093E+02  0.16861532734E+02 -0.84465370018E+01  0.47900198104E+02  0.00000000000E+00 0. -1.
        -11    1    3    3    0    0  0.22576168241E+02 -0.60331357322E+02  0.65306888495E+02  0.91730833059E+02  0.00000000000E+00 0. -1.
         11    1    3    3    0    0 -0.34508384003E+02  0.14430943588E+02  0.79289189174E+02  0.87669015161E+02  0.00000000000E+00 0.  1.
         -4    1    1    2    0  502  0.33857675763E+02 -0.11716753344E+02  0.58531510266E+02  0.68626250160E+02  0.00000000000E+00 0.  1.
<scales pt_clust_5="13000.00000" pt_clust_6="13000.00000" pt_clust_7="13000.00000" pt_clust_8="13000.00000" pt_clust_9="35.82772"></scales>
<clustering>
<clus scale="   35.828">  2  9  1 -1</clus>
<clus scale="   77.646">  5  6 -1 -1</clus>
<clus scale="   92.013">  2  5  1 -1</clus>
<clus scale="   95.011">  7  8 -1 -1</clus>
<clus scale="   35.828">  2  5  1 -1</clus>
</clustering>
</event>
<event>
 9    2  0.1654290E-004  0.2189254E+03  0.7546771E-02  0.1134687E+00
          4   -1    0    0  502    0 -0.00000000000E+00  0.00000000000E+00  0.46239744982E+03  0.46239744982E+03  0.00000000000E+00 0. -1.
         21   -1    0    0  501  502  0.00000000000E+00 -0.00000000000E+00 -0.13666015263E+03  0.13666015263E+03  0.00000000000E+00 0. -1.
         24    2    1    2    0    0  0.52110705863E+02  0.27745972580E+02  0.12265362273E+03  0.15830556806E+03  0.80816935413E+02 0.  0.
         23    2    1    2    0    0  0.74179825452E+02  0.21846801795E+02  0.26863808530E+03  0.29006652630E+03  0.77409557238E+02 0.  0.
        -11    1    3    3    0    0  0.54511802995E+02  0.29602639795E+02  0.36245595383E+02  0.71844249132E+02  0.00000000000E+00 0.  1.
         12    1    3    3    0    0 -0.24010971327E+01 -0.18566672147E+01  0.86408027347E+02  0.86461318927E+02  0.00000000000E+00 0. -1.
        -13    1    4    4    0    0  0.51393867156E+02  0.50955623741E+02  0.17256443171E+03  0.18712639649E+03  0.00000000000E+00 0. -1.
         13    1    4    4    0    0  0.22785958296E+02 -0.29108821946E+02  0.96073653594E+02  0.10294012981E+03  0.00000000000E+00 0.  1.
          3    1    1    2  501    0 -0.12629053131E+03 -0.49592774375E+02 -0.65554410844E+02  0.15068550810E+03  0.00000000000E+00 0. -1.
<scales pt_clust_5="13000.00000" pt_clust_6="13000.00000" pt_clust_7="13000.00000" pt_clust_8="13000.00000" pt_clust_9="135.67882"></scales>
<clustering>
<clus scale="   77.410">  7  8 -1 -1</clus>
<clus scale="   80.817">  5  6 -1 -1</clus>
<clus scale="   89.808">  5  7 -1 -1</clus>
<clus scale="  135.679">  2  9  1 -1</clus>
<clus scale="  135.679">  2  5  1 -1</clus>
</clustering>
</event>
<event>
 9    2  0.1654290E-004  0.1449341E+03  0.7546771E-02  0.1212236E+00
         -3   -1    0    0    0  501 -0.00000000000E+00  0.00000000000E+00  0.10230694527E+03  0.10230694527E+03  0.00000000000E+00 0.  1.
         21   -1    0    0  501  502  0.00000000000E+00 -0.00000000000E+00 -0.55455459347E+03  0.55455459347E+03  0.00000000000E+00 0.  1.
         24    2    1    2    0    0 -0.73685836242E+02 -0.72726246573E+02 -0.95259340036E+02  0.16047870654E+03  0.77203393605E+02 0.  0.
         23    2    1    2    0    0  0.21868709466E+02 -0.99199916113E+02 -0.26001515079E+03  0.29230585335E+03  0.86694691035E+02 0.  0.
        -11    1    3    3    0    0 -0.85861121694E+02 -0.45899958631E+02 -0.85120247549E+02  0.12932283234E+03  0.00000000000E+00 0.  1.
         12    1    3    3    0    0  0.12175285453E+02 -0.26826287942E+02 -0.10139092488E+02  0.31155874199E+02  0.00000000000E+00 0. -1.
        -13    1    4    4    0    0 -0.31155572952E+02 -0.44872515051E+02 -0.79318193524E+02  0.96309854931E+02  0.00000000000E+00 0. -1.
         13    1    4    4    0    0  0.53024282418E+02 -0.54327401062E+02 -0.18069695727E+03  0.19599599842E+03  0.00000000000E+00 0.  1.
         -4    1    1    2    0  502  0.51817126776E+02  0.17192616269E+03 -0.96973157375E+02  0.20407697884E+03  0.00000000000E+00 0.  1.
<scales pt_clust_5="13000.00000" pt_clust_6="13000.00000" pt_clust_7="13000.00000" pt_clust_8="13000.00000" pt_clust_9="116.14619"></scales>
<clustering>
<clus scale="   77.203">  5  6 -1 -1</clus>
<clus scale="   86.695">  7  8 -1 -1</clus>
<clus scale="  129.147">  1  5  2 -1</clus>
<clus scale="  116.146">  2  9  1 -1</clus>
<clus scale="  116.146">  2  5  1 -1</clus>
</clustering>
</event>
<event>
 9    2  0.1654290E-004  0.2366605E+03  0.7546771E-02  0.1140426E+00
         21   -1    0    0  501  502  0.00000000000E+00  0.00000000000E+00  0.14103196060E+03  0.14103196060E+03  0.00000000000E+00 0. -1.
          2   -1    0    0  502    0 -0.00000000000E+00 -0.00000000000E+00 -0.78905496447E+03  0.78905496447E+03  0.00000000000E+00 0. -1.
         23    2    1    2    0    0 -0.63245459938E+02 -0.10165885288E+03 -0.13813778859E+03  0.20451113113E+03  0.91696475107E+02 0.  0.
         24    2    1    2    0    0  0.15661477151E+03 -0.12004111980E+03 -0.41591679274E+03  0.46731474254E+03  0.80363132221E+02 0.  0.
        -11    1    4    4    0    0  0.69848909702E+02 -0.10299401761E+03 -0.23325652140E+03  0.26437708415E+03  0.00000000000E+00 0.  1.
         12    1    4    4    0    0  0.86765861804E+02 -0.17047102194E+02 -0.18266027134E+03  0.20293765839E+03  0.00000000000E+00 0. -1.
        -13    1    3    3    0    0 -0.71430436608E+02 -0.62511816366E+02 -0.49022003606E+02  0.10683253857E+03  0.00000000000E+00 0. -1.
         13    1    3    3    0    0  0.81849766702E+01 -0.39147036514E+02 -0.89115784988E+02  0.97678592563E+02  0.00000000000E+00 0.  1.
          1    1    1    2  501    0 -0.93369311567E+02  0.22169997268E+03 -0.93968422544E+02  0.25826105139E+03  0.00000000000E+00 0. -1.
<scales pt_clust_5="13000.00000" pt_clust_6="13000.00000" pt_clust_7="13000.00000" pt_clust_8="13000.00000" pt_clust_9="222.59819"></scales>
<clustering>
<clus scale="   80.363">  5  6 -1 -1</clus>
<clus scale="   91.696">  7  8 -1 -1</clus>
<clus scale="  150.807">  2  7  1 -1</clus>
<clus scale="  222.598">  1  9  2 -1</clus>
<clus scale="  222.598">  1  5  2 -1</clus>
</clustering>
</event>
<event>
 9    2  0.1654290E-004  0.9323274E+02  0.7546771E-02  0.1300790E+00
         21   -1    0    0  501  502  0.00000000000E+00  0.00000000000E+00  0.74289794098E+03  0.74289794098E+03  0.00000000000E+00 0. -1.
         -3   -1    0    0    0  501 -0.00000000000E+00 -0.00000000000E+00 -0.42921742828E+02  0.42921742828E+02  0.00000000000E+00 0.  1.
         23    2    1    2    0    0 -0.13417392023E+01  0.18084123707E+02  0.20358886454E+02  0.95413779434E+02  0.91435601676E+02 0.  0.
         24    2    1    2    0    0 -0.24591733553E+02 -0.19359523137E+02  0.60618902220E+03  0.61252211048E+03  0.82089345807E+02 0.  0.
        -13    1    4    4    0    0 -0.46885235979E+02 -0.14888316568E+02  0.21014276640E+03  0.21582370026E+03  0.00000000000E+00 0.  1.
         14    1    4    4    0    0  0.22293502426E+02 -0.44712065687E+01  0.39604625580E+03  0.39669841022E+03  0.00000000000E+00 0. -1.
        -11    1    3    3    0    0  0.43032001540E+02 -0.42455011896E+01  0.56627639018E+01  0.43610140241E+02  0.00000000000E+00 0. -1.
         11    1    3    3    0    0 -0.44373740742E+02  0.22329624897E+02  0.14696122552E+02  0.51803639192E+02  0.00000000000E+00 0.  1.
         -4    1    1    2    0  502  0.25933472755E+02  0.12753994293E+01  0.73428289499E+02  0.77883793896E+02  0.00000000000E+00 0.  1.
<scales pt_clust_5="13000.00000" pt_clust_6="13000.00000" pt_clust_7="13000.00000" pt_clust_8="13000.00000" pt_clust_9="25.96482"></scales>
<clustering>
<clus scale="   25.965">  1  9  2 -1</clus>
<clus scale="   82.089">  5  6 -1 -1</clus>
<clus scale="   84.086">  1  5  2 -1</clus>
<clus scale="   91.436">  7  8 -1 -1</clus>
<clus scale="   25.965">  1  5  2 -1</clus>
</clustering>
</event>
<event>
 9    2  0.2751540E-004  0.1199709E+03  0.7546771E-02  0.1246782E+00
          2   -1    0    0  502    0 -0.00000000000E+00  0.00000000000E+00  0.83218377908E+03  0.83218377908E+03  0.00000000000E+00 0. -1.
         21   -1    0    0  501  502  0.00000000000E+00 -0.00000000000E+00 -0.20383338115E+03  0.20383338115E+03  0.00000000000E+00 0.  1.
         24    2    1    2    0    0 -0.26703092890E+02 -0.73217201814E+02  0.79447347580E+03  0.80238164323E+03  0.80959149165E+02 0.  0.
         23    2    1    2    0    0 -0.11878028310E+02  0.52112396856E+02 -0.68996617682E+02  0.12701720256E+03  0.92282430794E+02 0.  0.
        -11    1    3    3    0    0  0.28314034485E+00 -0.57339564853E+02  0.22997973247E+03  0.23702021688E+03  0.00000000000E+00 0.  1.
         12    1    3    3    0    0 -0.26986233235E+02 -0.15877636961E+02  0.56449374333E+03  0.56536142635E+03  0.00000000000E+00 0. -1.
        -13    1    4    4    0    0  0.13226736286E+02 -0.15135405082E+02 -0.48294514826E+02  0.52310488452E+02  0.00000000000E+00 0.  1.
         13    1    4    4    0    0 -0.25104764596E+02  0.67247801938E+02 -0.20702102855E+02  0.74706714112E+02  0.00000000000E+00 0. -1.
          1    1    1    2  501    0  0.38581121200E+02  0.21104804958E+02 -0.97126460182E+02  0.10661831443E+03  0.00000000000E+00 0. -1.
<scales pt_clust_5="13000.00000" pt_clust_6="13000.00000" pt_clust_7="13000.00000" pt_clust_8="13000.00000" pt_clust_9="43.97631"></scales>
<clustering>
<clus scale="   43.976">  2  9  1 -1</clus>
<clus scale="   80.959">  5  6 -1 -1</clus>
<clus scale="   92.282">  7  8 -1 -1</clus>
<clus scale="  111.496">  1  5  2 -1</clus>
<clus scale="   43.976">  2  5  1 -1</clus>
</clustering>
</event>
<event>
 9    2  0.1654290E-004  0.1832392E+03  0.7546771E-02  0.1166651E+00
          2   -1    0    0  502    0 -0.00000000000E+00  0.00000000000E+00  0.26121460544E+03  0.26121460544E+03  0.00000000000E+00 0. -1.
         21   -1    0    0  501  502  0.00000000000E+00 -0.00000000000E+00 -0.31702331088E+03  0.31702331088E+03  0.00000000000E+00 0. -1.
         24    2    1    2    0    0 -0.19020746966E+01  0.15871720103E+03  0.14580742566E+03  0.22960877132E+03  0.79155635937E+02 0.  0.
         23    2    1    2    0    0 -0.66065980284E+02 -0.14583462859E+03 -0.68617959432E+02  0.19871540034E+03  0.95639601248E+02 0.  0.
        -11    1    3    3    0    0 -0.38351388860E+02  0.61033685696E+02  0.47630206394E+02  0.86397779939E+02  0.00000000000E+00 0.  1.
         12    1    3    3    0    0  0.36449314164E+02  0.97683515329E+02  0.98177219264E+02  0.14321099138E+03  0.00000000000E+00 0. -1.
        -11    1    4    4    0    0 -0.52613756251E+02 -0.87003010663E+02  0.70610946385E+01  0.10191952840E+03  0.00000000000E+00 0. -1.
         11    1    4    4    0    0 -0.13452224033E+02 -0.58831617932E+02 -0.75679054070E+02  0.96795871941E+02  0.00000000000E+00 0.  1.
          1    1    1    2  501    0  0.67968054981E+02 -0.12882572431E+02 -0.13299817167E+03  0.14991374466E+03  0.00000000000E+00 0. -1.
<scales pt_clust_5="13000.00000" pt_clust_6="13000.00000" pt_clust_7="13000.00000" pt_clust_8="13000.00000" pt_clust_9="69.17816"></scales>
<clustering>
<clus scale="   69.178">  2  9  1 -1</clus>
<clus scale="   79.156">  5  6 -1 -1</clus>
<clus scale="   95.640">  7  8 -1 -1</clus>
<clus scale="  175.201">  1  5  2 -1</clus>
<clus scale="   69.178">  2  5  1 -1</clus>
</clustering>
</event>
<event>
 9    2  0.1654290E-004  0.1155307E+03  0.7546771E-02  0.1253718E+00
          2   -1    0    0  502    0 -0.00000000000E+00  0.00000000000E+00  0.10590603917E+04  0.10590603917E+04  0.00000000000E+00 0. -1.
         21   -1    0    0  501  502  0.00000000000E+00 -0.00000000000E+00 -0.31445495071E+02  0.31445495071E+02  0.00000000000E+00 0.  1.
         24    2    1    2    0    0  0.36118827622E+02 -0.58804593881E+02  0.78934443479E+03  0.79645763934E+03  0.80731558594E+02 0.  0.
         23    2    1    2    0    0 -0.51627286578E+02  0.73169549183E+02  0.24142138380E+03  0.27267554167E+03  0.89713470670E+02 0.  0.
        -13    1    3    3    0    0  0.53061284035E+02 -0.36811403634E+02  0.32909099836E+03  0.33536765572E+03  0.00000000000E+00 0.  1.
         14    1    3    3    0    0 -0.16942456413E+02 -0.21993190247E+02  0.46025343643E+03  0.46108998362E+03  0.00000000000E+00 0. -1.
        -13    1    4    4    0    0 -0.51247703072E+02  0.88234853653E+01  0.56070208560E+02  0.76472539202E+02  0.00000000000E+00 0.  1.
         13    1    4    4    0    0 -0.37958350588E+00  0.64346063818E+02  0.18535117524E+03  0.19620300247E+03  0.00000000000E+00 0. -1.
          1    1    1    2  501    0  0.15508458956E+02 -0.14364955303E+02 -0.31509220156E+01  0.21372705715E+02  0.00000000000E+00 0. -1.
<scales pt_clust_5="13000.00000" pt_clust_6="13000.00000" pt_clust_7="13000.00000" pt_clust_8="13000.00000" pt_clust_9="21.13916"></scales>
<clustering>
<clus scale="   21.139">  2  9  1 -1</clus>
<clus scale="   80.732">  5  6 -1 -1</clus>
<clus scale="   89.713">  7  8 -1 -1</clus>
<clus scale="  108.703">  1  5  2 -1</clus>
<clus scale="   21.139">  2  5  1 -1</clus>
</clustering>
</event>
<event>
 9    2  0.1654290E-004  0.8990403E+02  0.7546771E-02  0.1307304E+00
          4   -1    0    0  502    0 -0.00000000000E+00  0.00000000000E+00  0.66768912496E+02  0.66768912496E+02  0.00000000000E+00 0. -1.
         21   -1    0    0  501  502  0.00000000000E+00 -0.00000000000E+00 -0.45324101137E+03  0.45324101137E+03  0.00000000000E+00 0. -1.
         23    2    1    2    0    0  0.19432228382E+02  0.14427791083E+02  0.22712021548E+02  0.92302428261E+02  0.86128564859E+02 0.  0.
         24    2    1    2    0    0 -0.13395543598E+02 -0.42005423153E+02 -0.24706561062E+03  0.26314936431E+03  0.79134542549E+02 0.  0.
        -11    1    4    4    0    0  0.15177403105E+02  0.17466722875E+02 -0.86848710069E+02  0.89878464683E+02  0.00000000000E+00 0.  1.
         12    1    4    4    0    0 -0.28572946704E+02 -0.59472146027E+02 -0.16021690055E+03  0.17327089963E+03  0.00000000000E+00 0. -1.
        -11    1    3    3    0    0 -0.32546362411E+02  0.17221451090E+02  0.14645771029E+02  0.39627549670E+02  0.00000000000E+00 0.  1.
         11    1    3    3    0    0  0.51978590793E+02 -0.27936600066E+01  0.80662505191E+01  0.52674878591E+02  0.00000000000E+00 0. -1.
          3    1    1    2  501    0 -0.60366847840E+01  0.27577632070E+02 -0.16211850980E+03  0.16455813129E+03  0.00000000000E+00 0. -1.
<scales pt_clust_5="13000.00000" pt_clust_6="13000.00000" pt_clust_7="13000.00000" pt_clust_8="13000.00000" pt_clust_9="28.23061"></scales>
<clustering>
<clus scale="   28.231">  2  9  1 -1</clus>
<clus scale="   79.135">  5  6 -1 -1</clus>
<clus scale="   83.228">  2  5  1 -1</clus>
<clus scale="   86.129">  7  8 -1 -1</clus>
<clus scale="   28.231">  2  5  1 -1</clus>
</clustering>
</event>
<event>
 9    2  0.1654290E-004  0.8845889E+02  0.7546771E-02  0.1307874E+00
          2   -1    0    0  502    0 -0.00000000000E+00  0.00000000000E+00  0.42488138947E+03  0.42488138947E+03  0.00000000000E+00 0. -1.
         21   -1    0    0  501  502  0.00000000000E+00 -0.00000000000E+00 -0.53923113017E+02  0.53923113017E+02  0.00000000000E+00 0. -1.
         23    2    1    2    0    0  0.10623149573E+02 -0.70654561563E+02  0.29835807499E+03  0.31369284723E+03  0.65427388108E+02 0.  0.
         24    2    1    2    0    0 -0.27769620955E+01  0.30920335398E+02  0.93345388589E+02  0.11960633496E+03  0.68033338390E+02 0.  0.
        -11    1    4    4    0    0 -0.20403214536E+02  0.30202469846E+02  0.15193627723E+02  0.39488310569E+02  0.00000000000E+00 0.  1.
         12    1    4    4    0    0  0.17626252441E+02  0.71786555165E+00  0.78151760867E+02  0.80118024393E+02  0.00000000000E+00 0. -1.
        -11    1    3    3    0    0 -0.23777218580E+02 -0.45319692844E+02  0.12335414873E+03  0.13354952898E+03  0.00000000000E+00 0. -1.
         11    1    3    3    0    0  0.34400368153E+02 -0.25334868718E+02  0.17500392626E+03  0.18014331825E+03  0.00000000000E+00 0.  1.
          1    1    1    2  501    0 -0.78461874775E+01  0.39734226165E+02 -0.20745187123E+02  0.45505320300E+02  0.00000000000E+00 0. -1.
<scales pt_clust_5="13000.00000" pt_clust_6="13000.00000" pt_clust_7="13000.00000" pt_clust_8="13000.00000" pt_clust_9="40.50150"></scales>
<clustering>
<clus scale="   40.501">  2  9  1 -1</clus>
<clus scale="   65.427">  7  8 -1 -1</clus>
<clus scale="   68.033">  5  6 -1 -1</clus>
<clus scale="   86.471">  1  7  2 -1</clus>
<clus scale="   40.501">  2  5  1 -1</clus>
</clustering>
</event>
<event>
 9    2  0.1654290E-004  0.1575197E+03  0.7546771E-02  0.1193462E+00
         21   -1    0    0  501  502  0.00000000000E+00  0.00000000000E+00  0.67609031604E+02  0.67609031604E+02  0.00000000000E+00 0. -1.
          2   -1    0    0  502    0 -0.00000000000E+00 -0.00000000000E+00 -0.58493515459E+03  0.58493515459E+03  0.00000000000E+00 0. -1.
         24    2    1    2    0    0  0.78240688875E+02  0.10369181864E+03 -0.34073188128E+03  0.37331782823E+03  0.79964912982E+02 0.  0.
         23    2    1    2    0    0 -0.29001799102E+02 -0.12858360291E+03 -0.12290103266E+03  0.20223915196E+03  0.91766897455E+02 0.  0.
        -13    1    3    3    0    0  0.21839049957E+00  0.44414785518E+02 -0.51862023356E+02  0.68281698379E+02  0.00000000000E+00 0.  1.
         14    1    3    3    0    0  0.78022298375E+02  0.59277033119E+02 -0.28886985792E+03  0.30503612985E+03  0.00000000000E+00 0. -1.
        -13    1    4    4    0    0 -0.22795623121E+02 -0.64891022618E+02 -0.60904456746E+01  0.69047655850E+02  0.00000000000E+00 0. -1.
         13    1    4    4    0    0 -0.62061759818E+01 -0.63692580290E+02 -0.11681058698E+03  0.13319149611E+03  0.00000000000E+00 0.  1.
          1    1    1    2  501    0 -0.49238889772E+02  0.24891784272E+02 -0.53693209053E+02  0.76987206006E+02  0.00000000000E+00 0. -1.
<scales pt_clust_5="13000.00000" pt_clust_6="13000.00000" pt_clust_7="13000.00000" pt_clust_8="13000.00000" pt_clust_9="55.17308"></scales>
<clustering>
<clus scale="   55.173">  1  9  2 -1</clus>
<clus scale="   79.965">  5  6 -1 -1</clus>
<clus scale="   91.767">  7  8 -1 -1</clus>
<clus scale="  150.949">  2  5  1 -1</clus>
<clus scale="   55.173">  1  5  2 -1</clus>
</clustering>
</event>
<event>
 9    2  0.1654290E-004  0.9790292E+02  0.7546771E-02  0.1288599E+00
         21   -1    0    0  501  502  0.00000000000E+00  0.00000000000E+00  0.47343969542E+02  0.47343969542E+02  0.00000000000E+00 0. -1.
         -3   -1    0    0    0  501 -0.00000000000E+00 -0.00000000000E+00 -0.28840475181E+03  0.28840475181E+03  0.00000000000E+00 0.  1.
         23    2    1    2    0    0  0.31380567134E+02  0.44455202317E+02 -0.14714231511E+03  0.17979319110E+03  0.87827818266E+02 0.  0.
         24    2    1    2    0    0 -0.70920551285E+01 -0.25027073616E+02 -0.39051218593E+02  0.92885735860E+02  0.80163025099E+02 0.  0.
        -13    1    4    4    0    0 -0.21683809042E+02  0.92506420731E+01 -0.48956674186E+02  0.54337076666E+02  0.00000000000E+00 0.  1.
         14    1    4    4    0    0  0.14591753913E+02 -0.34277715689E+02  0.99054555925E+01  0.38548659194E+02  0.00000000000E+00 0. -1.
        -11    1    3    3    0    0 -0.21355756009E+02  0.19043203204E+02 -0.10180687603E+03  0.10575136836E+03  0.00000000000E+00 0.  1.
         11    1    3    3    0    0  0.52736323143E+02  0.25411999113E+02 -0.45335439086E+02  0.74041822740E+02  0.00000000000E+00 0. -1.
         -4    1    1    2    0  502 -0.24288512006E+02 -0.19428128701E+02 -0.54867248557E+02  0.63069794391E+02  0.00000000000E+00 0.  1.
<scales pt_clust_5="13000.00000" pt_clust_6="13000.00000" pt_clust_7="13000.00000" pt_clust_8="13000.00000" pt_clust_9="31.10281"></scales>
<clustering>
<clus scale="   31.103">  1  9  2 -1</clus>
<clus scale="   80.163">  5  6 -1 -1</clus>
<clus scale="   87.828">  7  8 -1 -1</clus>
<clus scale="   91.090">  1  5  2 -1</clus>
<clus scale="   31.103">  1  5  2 -1</clus>
</clustering>
</event>
<event>
 9    2  0.1654290E-004  0.1563277E+03  0.7546771E-02  0.1194643E+00
         -3   -1    0    0    0  501 -0.00000000000E+00  0.00000000000E+00  0.22599266669E+03  0.22599266669E+03  0.00000000000E+00 0.  1.
         21   -1    0    0  501  502  0.00000000000E+00 -0.00000000000E+00 -0.24716934115E+03  0.24716934115E+03  0.00000000000E+00 0. -1.
         23    2    1    2    0    0  0.11901170218E+03  0.22243539680E+02  0.11109154598E+03  0.18780759356E+03  0.90949438143E+02 0.  0.
         24    2    1    2    0    0 -0.13343121656E+03 -0.52019772548E+02 -0.16677864561E+02  0.16512265136E+03  0.80482249833E+02 0.  0.
        -13    1    4    4    0    0 -0.71555065852E+02 -0.59362755214E+02  0.16660235070E+02  0.94454367756E+02  0.00000000000E+00 0.  1.
         14    1    4    4    0    0 -0.61876150709E+02  0.73429826660E+01 -0.33338099631E+02  0.70668283607E+02  0.00000000000E+00 0. -1.
        -13    1    3    3    0    0  0.54457702339E+02  0.96446650997E+01 -0.37852282303E+01  0.55434545742E+02  0.00000000000E+00 0.  1.
         13    1    3    3    0    0  0.64553999841E+02  0.12598874580E+02  0.11487677421E+03  0.13237304782E+03  0.00000000000E+00 0. -1.
         -4    1    1    2    0  502  0.14419514381E+02  0.29776232868E+02 -0.11559035589E+03  0.12023176291E+03  0.00000000000E+00 0.  1.
<scales pt_clust_5="13000.00000" pt_clust_6="13000.00000" pt_clust_7="13000.00000" pt_clust_8="13000.00000" pt_clust_9="33.08393"></scales>
<clustering>
<clus scale="   33.084">  2  9  1 -1</clus>
<clus scale="   80.482">  5  6 -1 -1</clus>
<clus scale="   90.949">  7  8 -1 -1</clus>
<clus scale="  150.479">  2  5  1 -1</clus>
<clus scale="   33.084">  2  5  1 -1</clus>
</clustering>
</event>
<event>
 9    2  0.1654290E-004  0.8981317E+02  0.7546771E-02  0.1308998E+00
          2   -1    0    0  502    0 -0.00000000000E+00  0.00000000000E+00  0.27780495422E+03  0.27780495422E+03  0.00000000000E+00 0. -1.
         21   -1    0    0  501  502  0.00000000000E+00 -0.00000000000E+00 -0.14562827475E+03  0.14562827475E+03  0.00000000000E+00 0.  1.
         24    2    1    2    0    0  0.37796996462E+01  0.96056969173E+01  0.23052396704E+03  0.24423356476E+03  0.80013619052E+02 0.  0.
         23    2    1    2    0    0  0.36524856989E+01 -0.30795896507E+02 -0.18199557294E+02  0.95965532962E+02  0.88974331902E+02 0.  0.
        -11    1    3    3    0    0 -0.28051345208E+02 -0.21490017495E+02  0.84837813604E+02  0.91902956628E+02  0.00000000000E+00 0.  1.
         12    1    3    3    0    0  0.31831044854E+02  0.31095714413E+02  0.14568615343E+03  0.15233060813E+03  0.00000000000E+00 0. -1.
        -11    1    4    4    0    0 -0.30985514140E+02 -0.20801887127E+02 -0.39297213841E+02  0.54194940817E+02  0.00000000000E+00 0.  1.
         11    1    4    4    0    0  0.34637999839E+02 -0.99940093801E+01  0.21097656547E+02  0.41770592144E+02  0.00000000000E+00 0. -1.
          1    1    1    2  501    0 -0.74321853452E+01  0.21190199590E+02 -0.80147730272E+02  0.83234131253E+02  0.00000000000E+00 0. -1.
<scales pt_clust_5="13000.00000" pt_clust_6="13000.00000" pt_clust_7="13000.00000" pt_clust_8="13000.00000" pt_clust_9="22.45578"></scales>
<clustering>
<clus scale="   22.456">  2  9  1 -1</clus>
<clus scale="   80.014">  5  6 -1 -1</clus>
<clus scale="   80.945">  1  5  2 -1</clus>
<clus scale="   88.974">  7  8 -1 -1</clus>
<clus scale="   22.456">  2  5  1 -1</clus>
</clustering>
</event>
<event>
 9    2  0.1654290E-004  0.9542313E+02  0.7546771E-02  0.1296042E+00
          4   -1    0    0  502    0 -0.00000000000E+00  0.00000000000E+00  0.29886120888E+03  0.29886120888E+03  0.00000000000E+00 0. -1.
         21   -1    0    0  501  502  0.00000000000E+00 -0.00000000000E+00 -0.91930654397E+02  0.91930654397E+02  0.00000000000E+00 0. -1.
         23    2    1    2    0    0  0.29034404365E+02 -0.78492279046E+00  0.15642795461E+03  0.18340341286E+03  0.91233185443E+02 0.  0.
         24    2    1    2    0    0 -0.20634955773E+02 -0.26165345311E+02 -0.51504229400E+02  0.10154771673E+03  0.80924819633E+02 0.  0.
        -11    1    4    4    0    0  0.25781213770E+02 -0.25654344695E+02 -0.66018513930E+01  0.36964859353E+02  0.00000000000E+00 0.  1.
         12    1    4    4    0    0 -0.46416169543E+02 -0.51100061634E+00 -0.44902378007E+02  0.64582857380E+02  0.00000000000E+00 0. -1.
        -13    1    3    3    0    0  0.24358853126E+00  0.42677380054E+02  0.83277766024E+02  0.93576730107E+02  0.00000000000E+00 0. -1.
         13    1    3    3    0    0  0.28790815834E+02 -0.43462302844E+02  0.73150188586E+02  0.89826682757E+02  0.00000000000E+00 0.  1.
          3    1    1    2  501    0 -0.83994485923E+01  0.26950268102E+02  0.10200682927E+03  0.10584073368E+03  0.00000000000E+00 0. -1.
<scales pt_clust_5="13000.00000" pt_clust_6="13000.00000" pt_clust_7="13000.00000" pt_clust_8="13000.00000" pt_clust_9="28.22886"></scales>
<clustering>
<clus scale="   28.229">  2  9  1 -1</clus>
<clus scale="   80.925">  5  6 -1 -1</clus>
<clus scale="   85.621">  2  5  1 -1</clus>
<clus scale="   91.233">  7  8 -1 -1</clus>
<clus scale="   28.229">  2  5  1 -1</clus>
</clustering>
</event>
<event>
 9    2  0.1654290E-004  0.1308641E+03  0.7546771E-02  0.1231345E+00
         21   -1    0    0  501  502  0.00000000000E+00  0.00000000000E+00  0.28898491925E+03  0.28898491925E+03  0.00000000000E+00 0.  1.
          2   -1    0    0  502    0 -0.00000000000E+00 -0.00000000000E+00 -0.29984734622E+03  0.29984734622E+03  0.00000000000E+00 0. -1.
         23    2    1    2    0    0  0.87925713595E+02 -0.40546031300E+02 -0.25354530442E+03  0.28471430644E+03  0.86035476024E+02 0.  0.
         24    2    1    2    0    0 -0.12125356268E+03  0.39448986703E+02  0.22482549173E+03  0.26629157596E+03  0.64078488422E+02 0.  0.
        -13    1    4    4    0    0 -0.11213773370E+03  0.10914573122E+02  0.18121113812E+03  0.21338105775E+03  0.00000000000E+00 0.  1.
         14    1    4    4    0    0 -0.91158289816E+01  0.28534413582E+02  0.43614353611E+02  0.52910518211E+02  0.00000000000E+00 0. -1.
        -11    1    3    3    0    0  0.57706231698E+02  0.26511723231E+01 -0.56745716020E+02  0.80976009893E+02  0.00000000000E+00 0.  1.
         11    1    3    3    0    0  0.30219481897E+02 -0.43197203623E+02 -0.19679958840E+03  0.20373829655E+03  0.00000000000E+00 0. -1.
          1    1    1    2  501    0  0.33327849087E+02  0.10970445971E+01  0.17857385717E+02  0.37826383071E+02  0.00000000000E+00 0. -1.
<scales pt_clust_5="13000.00000" pt_clust_6="13000.00000" pt_clust_7="13000.00000" pt_clust_8="13000.00000" pt_clust_9="33.34590"></scales>
<clustering>
<clus scale="   33.346">  1  9  2 -1</clus>
<clus scale="   64.078">  5  6 -1 -1</clus>
<clus scale="   86.035">  7  8 -1 -1</clus>
<clus scale="  117.598">  1  5  2 -1</clus>
<clus scale="   33.346">  1  5  2 -1</clus>
</clustering>
</event>
<event>
 9    2  0.1654290E-004  0.1287763E+03  0.7546771E-02  0.1231686E+00
          2   -1    0    0  502    0 -0.00000000000E+00  0.00000000000E+00  0.35259049692E+03  0.35259049692E+03  0.00000000000E+00 0. -1.
         21   -1    0    0  501  502  0.00000000000E+00 -0.00000000000E+00 -0.17360923105E+03  0.17360923105E+03  0.00000000000E+00 0.  1.
         23    2    1    2    0    0 -0.72634343447E+02 -0.57688679774E+02  0.28805070749E+03  0.31503692556E+03  0.87586087708E+02 0.  0.
         24    2    1    2    0    0  0.10899209860E+03  0.37644109180E+02 -0.84699672077E+02  0.16302179248E+03  0.78139067437E+02 0.  0.
        -11    1    4    4    0    0  0.11810408647E+03  0.33226676209E+02 -0.89451543637E+02  0.15183598359E+03  0.00000000000E+00 0.  1.
         12    1    4    4    0    0 -0.91119878770E+01  0.44174329705E+01  0.47518715605E+01  0.11185808887E+02  0.00000000000E+00 0. -1.
        -13    1    3    3    0    0 -0.53695857579E+02  0.10441843734E+02  0.15487791061E+03  0.16425420669E+03  0.00000000000E+00 0.  1.
         13    1    3    3    0    0 -0.18938485868E+02 -0.68130523508E+02  0.13317279688E+03  0.15078271887E+03  0.00000000000E+00 0. -1.
          1    1    1    2  501    0 -0.36357755151E+02  0.20044570594E+02 -0.24369769540E+02  0.48141009933E+02  0.00000000000E+00 0. -1.
<scales pt_clust_5="13000.00000" pt_clust_6="13000.00000" pt_clust_7="13000.00000" pt_clust_8="13000.00000" pt_clust_9="41.51712"></scales>
<clustering>
<clus scale="   41.517">  2  9  1 -1</clus>
<clus scale="   78.139">  5  6 -1 -1</clus>
<clus scale="   87.586">  7  8 -1 -1</clus>
<clus scale="  122.547">  2  5  1 -1</clus>
<clus scale="   41.517">  2  5  1 -1</clus>
</clustering>
</event>
<event>
 9    2  0.1654290E-004  0.2966227E+03  0.7546771E-02  0.1132914E+00
         21   -1    0    0  501  502  0.00000000000E+00  0.00000000000E+00  0.12025107386E+03  0.12025107386E+03  0.00000000000E+00 0. -1.
          4   -1    0    0  502    0 -0.00000000000E+00 -0.00000000000E+00 -0.10731839102E+04  0.10731839102E+04  0.00000000000E+00 0. -1.
         24    2    1    2    0    0  0.51959939867E+02  0.16122065855E+02 -0.30040140434E+03  0.31414631304E+03  0.74075271920E+02 0.  0.
         23    2    1    2    0    0  0.23425220087E+03 -0.10377312801E+03 -0.41769907978E+03  0.49883324412E+03  0.93376273672E+02 0.  0.
        -13    1    3    3    0    0  0.25681922575E+02  0.16479136288E+02 -0.31115061315E+02  0.43580616340E+02  0.00000000000E+00 0.  1.
         14    1    3    3    0    0  0.26278017292E+02 -0.35707043298E+00 -0.26928634302E+03  0.27056569670E+03  0.00000000000E+00 0. -1.
        -11    1    4    4    0    0  0.10266495066E+03 -0.35584819797E+02 -0.26318025609E+03  0.28472832435E+03  0.00000000000E+00 0.  1.
         11    1    4    4    0    0  0.13158725022E+03 -0.68188308211E+02 -0.15451882369E+03  0.21410491977E+03  0.00000000000E+00 0. -1.
          3    1    1    2  501    0 -0.28621214074E+03  0.87651062153E+02 -0.23483235222E+03  0.38045542689E+03  0.00000000000E+00 0. -1.
<scales pt_clust_5="13000.00000" pt_clust_6="13000.00000" pt_clust_7="13000.00000" pt_clust_8="13000.00000" pt_clust_9="281.54198"></scales>
<clustering>
<clus scale="   74.075">  5  6 -1 -1</clus>
<clus scale="   91.907">  2  5  1 -1</clus>
<clus scale="   93.376">  7  8 -1 -1</clus>
<clus scale="  281.542">  1  9  2 -1</clus>
<clus scale="  281.542">  1  5  2 -1</clus>
</clustering>
</event>
<event>
 9    2  0.1654290E-004  0.3450418E+03  0.7546771E-02  0.1064908E+00
          2   -1    0    0  502    0 -0.00000000000E+00  0.00000000000E+00  0.19823749208E+04  0.19823749208E+04  0.00000000000E+00 0. -1.
         21   -1    0    0  501  502  0.00000000000E+00 -0.00000000000E+00 -0.79742733450E+02  0.79742733450E+02  0.00000000000E+00 0. -1.
         24    2    1    2    0    0  0.30261858752E+03 -0.19803886996E+03  0.10064437149E+04  0.10724068347E+04  0.79561701879E+02 0.  0.
         23    2    1    2    0    0 -0.20752340464E+03  0.22640454818E+03  0.65359280226E+03  0.72760327535E+03  0.88870648886E+02 0.  0.
        -13    1    3    3    0    0  0.44449684727E+02 -0.58296588725E+02  0.26526521280E+03  0.27520882953E+03  0.00000000000E+00 0.  1.
         14    1    3    3    0    0  0.25816890279E+03 -0.13974228124E+03  0.74117850205E+03  0.79719800517E+03  0.00000000000E+00 0. -1.
        -11    1    4    4    0    0 -0.61136043830E+02  0.17989015870E+02  0.15876449497E+03  0.17107713292E+03  0.00000000000E+00 0.  1.
         11    1    4    4    0    0 -0.14638736081E+03  0.20841553231E+03  0.49482830729E+03  0.55652614243E+03  0.00000000000E+00 0. -1.
          1    1    1    2  501    0 -0.95095182884E+02 -0.28365678215E+02  0.24259567024E+03  0.26210754420E+03  0.00000000000E+00 0. -1.
<scales pt_clust_5="13000.00000" pt_clust_6="13000.00000" pt_clust_7="13000.00000" pt_clust_8="13000.00000" pt_clust_9="99.23566"></scales>
<clustering>
<clus scale="   79.562">  5  6 -1 -1</clus>
<clus scale="   88.871">  7  8 -1 -1</clus>
<clus scale="   99.236">  2  9  1 -1</clus>
<clus scale="  342.762">  1  5  2 -1</clus>
<clus scale="   99.236">  2  5  1 -1</clus>
</clustering>
</event>
<event>
 9    2  0.1654290E-004  0.2045735E+03  0.7546771E-02  0.1172645E+00
         21   -1    0    0  501  502  0.00000000000E+00  0.00000000000E+00  0.71192246574E+02  0.71192246574E+02  0.00000000000E+00 0.  1.
          2   -1    0    0  502    0 -0.00000000000E+00 -0.00000000000E+00 -0.90898456327E+03  0.90898456327E+03  0.00000000000E+00 0. -1.
         24    2    1    2    0    0 -0.74830328182E+02  0.39999516977E+01 -0.30857891760E+03  0.32751999305E+03  0.80204861641E+02 0.  0.
         23    2    1    2    0    0  0.14189774819E+03 -0.13751915038E+03 -0.33998280917E+03  0.41154764773E+03  0.12139467928E+03 0.  0.
        -11    1    3    3    0    0 -0.61802169228E+02  0.21102777147E+02 -0.11108511135E+03  0.12885937020E+03  0.00000000000E+00 0.  1.
         12    1    3    3    0    0 -0.13028158954E+02 -0.17102825449E+02 -0.19749380625E+03  0.19866062285E+03  0.00000000000E+00 0. -1.
        -13    1    4    4    0    0  0.14087710459E+03 -0.11261194645E+03 -0.19978233913E+03  0.26914827161E+03  0.00000000000E+00 0.  1.
         13    1    4    4    0    0  0.10206435973E+01 -0.24907203935E+02 -0.14020047003E+03  0.14239937612E+03  0.00000000000E+00 0. -1.
          1    1    1    2  501    0 -0.67067420006E+02  0.13351919868E+03 -0.18923058992E+03  0.24110916906E+03  0.00000000000E+00 0. -1.
<scales pt_clust_5="13000.00000" pt_clust_6="13000.00000" pt_clust_7="13000.00000" pt_clust_8="13000.00000" pt_clust_9="164.66221"></scales>
<clustering>
<clus scale="   80.205">  5  6 -1 -1</clus>
<clus scale="  109.765">  2  5  1 -1</clus>
<clus scale="  121.395">  7  8 -1 -1</clus>
<clus scale="  164.662">  1  9  2 -1</clus>
<clus scale="  164.662">  1  5  2 -1</clus>
</clustering>
</event>
<event>
 9    2  0.1654290E-004  0.1478230E+03  0.7546771E-02  0.1206077E+00
          2   -1    0    0  502    0 -0.00000000000E+00  0.00000000000E+00  0.97375889022E+02  0.97375889022E+02  0.00000000000E+00 0. -1.
         21   -1    0    0  501  502  0.00000000000E+00 -0.00000000000E+00 -0.34123655281E+03  0.34123655281E+03  0.00000000000E+00 0. -1.
         24    2    1    2    0    0 -0.92914446944E+02 -0.73351026513E+02 -0.15990356322E+02  0.14186056873E+03  0.76519683238E+02 0.  0.
         23    2    1    2    0    0  0.58828915761E+02  0.98390555030E+02 -0.18863706314E+03  0.23906262901E+03  0.91790284610E+02 0.  0.
        -11    1    3    3    0    0 -0.13562819097E+02 -0.58567215530E+02 -0.97501946307E+01  0.60902669007E+02  0.00000000000E+00 0.  1.
         12    1    3    3    0    0 -0.79351627847E+02 -0.14783810983E+02 -0.62401616916E+01  0.80957899720E+02  0.00000000000E+00 0. -1.
        -13    1    4    4    0    0  0.26778500041E+02 -0.11642769792E+02 -0.20888527518E+02  0.35902266429E+02  0.00000000000E+00 0.  1.
         13    1    4    4    0    0  0.32050415720E+02  0.11003332482E+03 -0.16774853563E+03  0.20316036258E+03  0.00000000000E+00 0. -1.
          1    1    1    2  501    0  0.34085531183E+02 -0.25039528517E+02 -0.39233244324E+02  0.57689244097E+02  0.00000000000E+00 0. -1.
<scales pt_clust_5="13000.00000" pt_clust_6="13000.00000" pt_clust_7="13000.00000" pt_clust_8="13000.00000" pt_clust_9="42.29422"></scales>
<clustering>
<clus scale="   42.294">  2  9  1 -1</clus>
<clus scale="   76.520">  5  6 -1 -1</clus>
<clus scale="   91.790">  7  8 -1 -1</clus>
<clus scale="  138.858">  1  5  2 -1</clus>
<clus scale="   42.294">  2  5  1 -1</clus>
</clustering>
</event>
<event>
 9    2  0.1654290E-004  0.9878420E+02  0.7546771E-02  0.1286721E+00
         -1   -1    0    0    0  501 -0.00000000000E+00  0.00000000000E+00  0.37037137818E+02  0.37037137818E+02  0.00000000000E+00 0.  1.
         21   -1    0    0  501  502  0.00000000000E+00 -0.00000000000E+00 -0.40166930472E+03  0.40166930472E+03  0.00000000000E+00 0. -1.
         23    2    1    2    0    0 -0.22223701435E+02  0.26740050295E+02 -0.82200693765E+02  0.12703092399E+03  0.90393464367E+02 0.  0.
         24    2    1    2    0    0  0.52236285646E+02 -0.19927435428E+02 -0.23210039198E+03  0.25268073349E+03  0.82772150522E+02 0.  0.
        -13    1    4    4    0    0  0.65428146561E+02  0.10182794170E+02 -0.13947804758E+03  0.15439772478E+03  0.00000000000E+00 0.  1.
         14    1    4    4    0    0 -0.13191860914E+02 -0.30110229599E+02 -0.92622344393E+02  0.98283008713E+02  0.00000000000E+00 0. -1.
        -13    1    3    3    0    0 -0.11220557907E+02  0.48522893641E+02 -0.88744902732E+02  0.10176458071E+03  0.00000000000E+00 0.  1.
         13    1    3    3    0    0 -0.11003143528E+02 -0.21782843346E+02  0.65442089674E+01  0.25266343280E+02  0.00000000000E+00 0. -1.
         -2    1    1    2    0  502 -0.30012584211E+02 -0.68126148662E+01 -0.50331081161E+02  0.58994785050E+02  0.00000000000E+00 0.  1.
<scales pt_clust_5="13000.00000" pt_clust_6="13000.00000" pt_clust_7="13000.00000" pt_clust_8="13000.00000" pt_clust_9="30.77608"></scales>
<clustering>
<clus scale="   30.776">  2  9  1 -1</clus>
<clus scale="   82.772">  5  6 -1 -1</clus>
<clus scale="   90.393">  7  8 -1 -1</clus>
<clus scale="   91.862">  2  5  1 -1</clus>
<clus scale="   30.776">  2  5  1 -1</clus>
</clustering>
</event>
<event>
 9    2  0.1654290E-004  0.9939832E+02  0.7546771E-02  0.1285186E+00
         21   -1    0    0  501  502  0.00000000000E+00  0.00000000000E+00  0.37390692714E+02  0.37390692714E+02  0.00000000000E+00 0. -1.
          2   -1    0    0  502    0 -0.00000000000E+00 -0.00000000000E+00 -0.83120129547E+03  0.83120129547E+03  0.00000000000E+00 0. -1.
         24    2    1    2    0    0  0.46216438442E+02  0.15017507372E+02 -0.64769355423E+03  0.65480913970E+03  0.83105863379E+02 0.  0.
         23    2    1    2    0    0 -0.12641265088E+02  0.30705572081E+02 -0.11148307097E+03  0.14731928958E+03  0.90398364093E+02 0.  0.
        -11    1    3    3    0    0 -0.17531160466E+02 -0.10742711050E+02 -0.67669511382E+02  0.70724183973E+02  0.00000000000E+00 0.  1.
         12    1    3    3    0    0  0.63747598908E+02  0.25760218423E+02 -0.58002404285E+03  0.58408495573E+03  0.00000000000E+00 0. -1.
        -11    1    4    4    0    0 -0.37618270860E+02  0.37837148779E+02 -0.10883445706E+03  0.12120941867E+03  0.00000000000E+00 0.  1.
         11    1    4    4    0    0  0.24977005772E+02 -0.71315766976E+01 -0.26486139081E+01  0.26109870914E+02  0.00000000000E+00 0. -1.
          1    1    1    2  501    0 -0.33575173354E+02 -0.45723079454E+02 -0.34633977552E+02  0.66463558899E+02  0.00000000000E+00 0. -1.
<scales pt_clust_5="13000.00000" pt_clust_6="13000.00000" pt_clust_7="13000.00000" pt_clust_8="13000.00000" pt_clust_9="56.72647"></scales>
<clustering>
<clus scale="   56.726">  1  9  2 -1</clus>
<clus scale="   83.106">  5  6 -1 -1</clus>
<clus scale="   90.398">  7  8 -1 -1</clus>
<clus scale="   92.816">  2  5  1 -1</clus>
<clus scale="   56.726">  1  5  2 -1</clus>
</clustering>
</event>
<event>
 9    2  0.1654290E-004  0.2147448E+03  0.7546771E-02  0.1163631E+00
         21   -1    0    0  501  502  0.00000000000E+00  0.00000000000E+00  0.14236712796E+03  0.14236712796E+03  0.00000000000E+00 0. -1.
          2   -1    0    0  502    0 -0.00000000000E+00 -0.00000000000E+00 -0.17280879772E+04  0.17280879772E+04  0.00000000000E+00 0. -1.
         24    2    1    2    0    0 -0.71282787825E+02 -0.46376877690E+02  0.85619418104E+02  0.14474232151E+03  0.79922489044E+02 0.  0.
         23    2    1    2    0    0  0.23268224585E+03 -0.25615035617E+02 -0.10686524319E+04  0.10976480994E+04  0.89533079432E+02 0.  0.
        -11    1    3    3    0    0 -0.53316536316E+02 -0.41452439218E+02  0.11736567209E+02  0.68547098930E+02  0.00000000000E+00 0.  1.
         12    1    3    3    0    0 -0.17966251509E+02 -0.49244384717E+01  0.73882850895E+02  0.76195222580E+02  0.00000000000E+00 0. -1.
        -11    1    4    4    0    0  0.11945377785E+03 -0.56866057579E+02 -0.61133189460E+03  0.62548352408E+03  0.00000000000E+00 0. -1.
         11    1    4    4    0    0  0.11322846799E+03  0.31251021962E+02 -0.45732053727E+03  0.47216457528E+03  0.00000000000E+00 0.  1.
          1    1    1    2  501    0 -0.16139945802E+03  0.71991913306E+02 -0.60268783552E+03  0.62806468434E+03  0.00000000000E+00 0. -1.
<scales pt_clust_5="13000.00000" pt_clust_6="13000.00000" pt_clust_7="13000.00000" pt_clust_8="13000.00000" pt_clust_9="195.19009"></scales>
<clustering>
<clus scale="   79.922">  5  6 -1 -1</clus>
<clus scale="   89.533">  7  8 -1 -1</clus>
<clus scale="  116.703">  2  5  1 -1</clus>
<clus scale="  195.190">  1  9  2 -1</clus>
<clus scale="  195.190">  1  5  2 -1</clus>
</clustering>
</event>
<event>
 9    2  0.1654290E-004  0.9535458E+02  0.7546771E-02  0.1292986E+00
          2   -1    0    0  502    0 -0.00000000000E+00  0.00000000000E+00  0.81780721427E+02  0.81780721427E+02  0.00000000000E+00 0. -1.
         21   -1    0    0  501  502  0.00000000000E+00 -0.00000000000E+00 -0.13643524279E+03  0.13643524279E+03  0.00000000000E+00 0.  1.
         24    2    1    2    0    0  0.94064408963E+01  0.17233360827E+02 -0.19822254738E+02  0.98808750182E+02  0.94788066094E+02 0.  0.
         23    2    1    2    0    0 -0.62517152774E+01  0.49549603170E+01 -0.34690845160E+02  0.96995300036E+02  0.90227478717E+02 0.  0.
        -13    1    3    3    0    0  0.18697097394E+02 -0.35423985488E+02  0.40331111209E+01  0.40257995282E+02  0.00000000000E+00 0.  1.
         14    1    3    3    0    0 -0.92906564977E+01  0.52657346315E+02 -0.23855365859E+02  0.58550754900E+02  0.00000000000E+00 0. -1.
        -11    1    4    4    0    0  0.10948815141E+02  0.43242876123E+02 -0.32070684730E+02  0.54939527732E+02  0.00000000000E+00 0.  1.
         11    1    4    4    0    0 -0.17200530418E+02 -0.38287915806E+02 -0.26201604298E+01  0.42055772304E+02  0.00000000000E+00 0. -1.
          1    1    1    2  501    0 -0.31547256189E+01 -0.22188321144E+02 -0.14142146236E+00  0.22411913995E+02  0.00000000000E+00 0. -1.
<scales pt_clust_5="13000.00000" pt_clust_6="13000.00000" pt_clust_7="13000.00000" pt_clust_8="13000.00000" pt_clust_9="22.41148"></scales>
<clustering>
<clus scale="   22.411">  2  9  1 -1</clus>
<clus scale="   90.227">  7  8 -1 -1</clus>
<clus scale="   90.822">  2  7  1 -1</clus>
<clus scale="   94.788">  5  6 -1 -1</clus>
<clus scale="   22.411">  2  5  1 -1</clus>
</clustering>
</event>
<event>
 9    2  0.1654290E-004  0.9934119E+02  0.7546771E-02  0.1287432E+00
         21   -1    0    0  501  502  0.00000000000E+00  0.00000000000E+00  0.63090407266E+03  0.63090407266E+03  0.00000000000E+00 0. -1.
         -3   -1    0    0    0  501 -0.00000000000E+00 -0.00000000000E+00 -0.64103435439E+02  0.64103435439E+02  0.00000000000E+00 0.  1.
         24    2    1    2    0    0  0.21572309852E+02 -0.32338078324E+02 -0.18453817041E+01  0.89306783312E+02  0.80381467080E+02 0.  0.
         23    2    1    2    0    0 -0.81450761331E+02 -0.22152509228E+02  0.39367943046E+03  0.41291078687E+03  0.91579821791E+02 0.  0.
        -13    1    3    3    0    0  0.47583308902E+02 -0.18921808392E+02  0.17623868377E+02  0.54155395442E+02  0.00000000000E+00 0.  1.
         14    1    3    3    0    0 -0.26010999050E+02 -0.13416269932E+02 -0.19469250081E+02  0.35151387870E+02  0.00000000000E+00 0. -1.
        -13    1    4    4    0    0 -0.32435718913E+01 -0.29132075794E+02  0.34600287264E+02  0.45347309484E+02  0.00000000000E+00 0.  1.
         13    1    4    4    0    0 -0.78207189440E+02  0.69795665661E+01  0.35907914320E+03  0.36756347739E+03  0.00000000000E+00 0. -1.
         -4    1    1    2    0  502  0.59878451479E+02  0.54490587552E+02  0.17496658846E+03  0.19278993792E+03  0.00000000000E+00 0.  1.
<scales pt_clust_5="13000.00000" pt_clust_6="13000.00000" pt_clust_7="13000.00000" pt_clust_8="13000.00000" pt_clust_9="80.96081"></scales>
<clustering>
<clus scale="   80.381">  5  6 -1 -1</clus>
<clus scale="   80.961">  1  9  2 -1</clus>
<clus scale="   89.123">  2  5  1 -1</clus>
<clus scale="   91.580">  7  8 -1 -1</clus>
<clus scale="   80.961">  1  5  2 -1</clus>
</clustering>
</event>
<event>
 9    2  0.1654290E-004  0.9691810E+02  0.7546771E-02  0.1294573E+00
          2   -1    0    0  502    0 -0.00000000000E+00  0.00000000000E+00  0.23320349956E+03  0.23320349956E+03  0.00000000000E+00 0. -1.
         21   -1    0    0  501  502  0.00000000000E+00 -0.00000000000E+00 -0.21168146030E+03  0.21168146030E+03  0.00000000000E+00 0.  1.
         23    2    1    2    0    0 -0.28683890781E+02 -0.52200533239E+01  0.19899592723E+03  0.22152148920E+03  0.92856753008E+02 0.  0.
         24    2    1    2    0    0  0.22762323346E+01  0.12338607033E+02 -0.17879957031E+03  0.19598107366E+03  0.79258264115E+02 0.  0.
        -11    1    4    4    0    0 -0.94277902155E+01 -0.31699461306E+02 -0.56485451260E+02  0.65454910278E+02  0.00000000000E+00 0.  1.
         12    1    4    4    0    0  0.11704022550E+02  0.44038068338E+02 -0.12231411905E+03  0.13052616338E+03  0.00000000000E+00 0. -1.
        -11    1    3    3    0    0 -0.34216010359E+02  0.29742182844E+02  0.16946179836E+03  0.17542130403E+03  0.00000000000E+00 0. -1.
         11    1    3    3    0    0  0.55321195777E+01 -0.34962236167E+02  0.29534128866E+02  0.46100185170E+02  0.00000000000E+00 0.  1.
          1    1    1    2  501    0  0.26407658447E+02 -0.71185537088E+01  0.13256823453E+01  0.27382396995E+02  0.00000000000E+00 0. -1.
<scales pt_clust_5="13000.00000" pt_clust_6="13000.00000" pt_clust_7="13000.00000" pt_clust_8="13000.00000" pt_clust_9="27.35030"></scales>
<clustering>
<clus scale="   27.350">  2  9  1 -1</clus>
<clus scale="   79.258">  5  6 -1 -1</clus>
<clus scale="   83.980">  2  5  1 -1</clus>
<clus scale="   92.857">  7  8 -1 -1</clus>
<clus scale="   27.350">  2  5  1 -1</clus>
</clustering>
</event>
<event>
 9    2  0.1654290E-004  0.1357640E+03  0.7546771E-02  0.1220393E+00
         21   -1    0    0  501  502  0.00000000000E+00  0.00000000000E+00  0.11082702595E+03  0.11082702595E+03  0.00000000000E+00 0.  1.
         -1   -1    0    0    0  501 -0.00000000000E+00 -0.00000000000E+00 -0.24100181061E+03  0.24100181061E+03  0.00000000000E+00 0.  1.
         24    2    1    2    0    0 -0.66199929905E+02  0.72642789483E+02 -0.69640044101E+02  0.14668087740E+03  0.83702678986E+02 0.  0.
         23    2    1    2    0    0  0.52951284878E+02 -0.98439329505E+02 -0.56663718929E+01  0.14308729568E+03  0.89150021035E+02 0.  0.
        -11    1    3    3    0    0 -0.76032484952E+02  0.83486630105E+02 -0.68329616838E+02  0.13198444117E+03  0.00000000000E+00 0.  1.
         12    1    3    3    0    0  0.98325550472E+01 -0.10843840622E+02 -0.13104272625E+01  0.14696436228E+02  0.00000000000E+00 0. -1.
        -13    1    4    4    0    0  0.16644446865E+02 -0.77912177323E+02  0.32980388733E+02  0.86226741952E+02  0.00000000000E+00 0.  1.
         13    1    4    4    0    0  0.36306838013E+02 -0.20527152181E+02 -0.38646760626E+02  0.56860553726E+02  0.00000000000E+00 0. -1.
         -2    1    1    2    0  502  0.13248645026E+02  0.25796540022E+02 -0.54868368662E+02  0.62060663482E+02  0.00000000000E+00 0.  1.
<scales pt_clust_5="13000.00000" pt_clust_6="13000.00000" pt_clust_7="13000.00000" pt_clust_8="13000.00000" pt_clust_9="28.99981"></scales>
<clustering>
<clus scale="   29.000">  1  9  2 -1</clus>
<clus scale="   83.703">  5  6 -1 -1</clus>
<clus scale="   89.150">  7  8 -1 -1</clus>
<clus scale="  132.251">  2  5  1 -1</clus>
<clus scale="   29.000">  1  5  2 -1</clus>
</clustering>
</event>
<event>
 9    2  0.1654290E-004  0.9299420E+02  0.7546771E-02  0.1304804E+00
          2   -1    0    0  502    0 -0.00000000000E+00  0.00000000000E+00  0.18404651664E+03  0.18404651664E+03  0.00000000000E+00 0. -1.
         21   -1    0    0  501  502  0.00000000000E+00 -0.00000000000E+00 -0.11845394177E+03  0.11845394177E+03  0.00000000000E+00 0. -1.
         23    2    1    2    0    0 -0.15574324183E+02  0.21636758528E+02  0.10752031907E+03  0.14374005218E+03  0.91596259173E+02 0.  0.
         24    2    1    2    0    0  0.14633476822E+02  0.26728039424E+02  0.14832344401E+02  0.84183288191E+02  0.77060371365E+02 0.  0.
        -13    1    4    4    0    0  0.42009196062E+02 -0.97732692090E+00  0.16633080128E+02  0.45192776815E+02  0.00000000000E+00 0.  1.
         14    1    4    4    0    0 -0.27375719240E+02  0.27705366345E+02 -0.18007357269E+01  0.38990511376E+02  0.00000000000E+00 0. -1.
        -11    1    3    3    0    0  0.27337995448E+02  0.33221034300E+02  0.24346251570E+02  0.49434229847E+02  0.00000000000E+00 0.  1.
         11    1    3    3    0    0 -0.42912319631E+02 -0.11584275772E+02  0.83174067505E+02  0.94305822337E+02  0.00000000000E+00 0. -1.
          1    1    1    2  501    0  0.94084736076E+00 -0.48364797952E+02 -0.56760088606E+02  0.74577118027E+02  0.00000000000E+00 0. -1.
<scales pt_clust_5="13000.00000" pt_clust_6="13000.00000" pt_clust_7="13000.00000" pt_clust_8="13000.00000" pt_clust_9="48.37395"></scales>
<clustering>
<clus scale="   48.374">  2  9  1 -1</clus>
<clus scale="   77.060">  5  6 -1 -1</clus>
<clus scale="   78.717">  2  5  1 -1</clus>
<clus scale="   91.596">  7  8 -1 -1</clus>
<clus scale="   48.374">  2  5  1 -1</clus>
</clustering>
</event>
<event>
 9    2  0.1654290E-004  0.1509769E+03  0.7546771E-02  0.1202086E+00
         21   -1    0    0  501  502  0.00000000000E+00  0.00000000000E+00  0.22961141545E+03  0.22961141545E+03  0.00000000000E+00 0.  1.
         -1   -1    0    0    0  501 -0.00000000000E+00 -0.00000000000E+00 -0.33084700744E+03  0.33084700744E+03  0.00000000000E+00 0.  1.
         24    2    1    2    0    0 -0.97879189633E+02  0.79408824846E+02 -0.26847504556E+03  0.30736249241E+03  0.80664455750E+02 0.  0.
         23    2    1    2    0    0  0.58475009455E+02 -0.40402328296E+02  0.62200054567E+02  0.13432105295E+03  0.95507191425E+02 0.  0.
        -13    1    3    3    0    0 -0.21631431699E+02  0.68580513433E+02 -0.11464984252E+03  0.13533584909E+03  0.00000000000E+00 0.  1.
         14    1    3    3    0    0 -0.76247757934E+02  0.10828311413E+02 -0.15382520305E+03  0.17202664332E+03  0.00000000000E+00 0. -1.
        -13    1    4    4    0    0 -0.16626103265E+02 -0.31419240616E+02 -0.12886039388E+01  0.35570444062E+02  0.00000000000E+00 0.  1.
         13    1    4    4    0    0  0.75101112719E+02 -0.89830876798E+01  0.63488658506E+02  0.98750608883E+02  0.00000000000E+00 0. -1.
         -2    1    1    2    0  502  0.39404180178E+02 -0.39006496549E+02  0.10503939901E+03  0.11877487754E+03  0.00000000000E+00 0.  1.
<scales pt_clust_5="13000.00000" pt_clust_6="13000.00000" pt_clust_7="13000.00000" pt_clust_8="13000.00000" pt_clust_9="55.44543"></scales>
<clustering>
<clus scale="   55.445">  1  9  2 -1</clus>
<clus scale="   80.664">  5  6 -1 -1</clus>
<clus scale="   95.507">  7  8 -1 -1</clus>
<clus scale="  142.053">  2  5  1 -1</clus>
<clus scale="   55.445">  1  5  2 -1</clus>
</clustering>
</event>
<event>
 9    2  0.1654290E-004  0.2613846E+03  0.7546771E-02  0.1124318E+00
         -1   -1    0    0    0  501 -0.00000000000E+00  0.00000000000E+00  0.25468852911E+03  0.25468852911E+03  0.00000000000E+00 0.  1.
         21   -1    0    0  501  502  0.00000000000E+00 -0.00000000000E+00 -0.70341288007E+03  0.70341288007E+03  0.00000000000E+00 0.  1.
         23    2    1    2    0    0 -0.13147712136E+03 -0.57808811233E+02 -0.15950316855E+03  0.23019261422E+03  0.83182250304E+02 0.  0.
         24    2    1    2    0    0  0.28362862146E+03  0.22062939236E+03 -0.89488026067E+01  0.36984004807E+03  0.87057776247E+02 0.  0.
        -11    1    4    4    0    0  0.26880503102E+03  0.21653614612E+03 -0.26880044933E+02  0.34621753869E+03  0.00000000000E+00 0.  1.
         12    1    4    4    0    0  0.14823590443E+02  0.40932462396E+01  0.17931242327E+02  0.23622509387E+02  0.00000000000E+00 0. -1.
        -13    1    3    3    0    0 -0.10585522415E+03 -0.48586532909E+01 -0.11540000295E+03  0.15667193646E+03  0.00000000000E+00 0. -1.
         13    1    3    3    0    0 -0.25621897211E+02 -0.52950157942E+02 -0.44103165597E+02  0.73520677761E+02  0.00000000000E+00 0.  1.
         -2    1    1    2    0  502 -0.15215150010E+03 -0.16282058113E+03 -0.28027237980E+03  0.35806874689E+03  0.00000000000E+00 0.  1.
<scales pt_clust_5="13000.00000" pt_clust_6="13000.00000" pt_clust_7="13000.00000" pt_clust_8="13000.00000" pt_clust_9="246.46070"></scales>
<clustering>
<clus scale="   83.182">  7  8 -1 -1</clus>
<clus scale="   87.058">  5  6 -1 -1</clus>
<clus scale="  165.974">  1  7  2 -1</clus>
<clus scale="  246.461">  2  9  1 -1</clus>
<clus scale="  246.461">  2  5  1 -1</clus>
</clustering>
</event>
<event>
 9    2  0.1654290E-004  0.1297061E+03  0.7546771E-02  0.1241723E+00
         21   -1    0    0  501  502  0.00000000000E+00  0.00000000000E+00  0.39891026618E+02  0.39891026618E+02  0.00000000000E+00 0. -1.
          2   -1    0    0  502    0 -0.00000000000E+00 -0.00000000000E+00 -0.73878704357E+03  0.73878704357E+03  0.00000000000E+00 0. -1.
         23    2    1    2    0    0  0.21677844090E+02  0.24497804289E+02 -0.26076250259E+03  0.27846596837E+03  0.92065962461E+02 0.  0.
         24    2    1    2    0    0  0.59131470968E+02  0.66360386201E+02 -0.19070974682E+03  0.22452409533E+03  0.78362172852E+02 0.  0.
        -13    1    4    4    0    0  0.46675791421E+02  0.34441204674E+02 -0.17923881326E+03  0.18839155571E+03  0.00000000000E+00 0.  1.
         14    1    4    4    0    0  0.12455679547E+02  0.31919181527E+02 -0.11470933561E+02  0.36132539616E+02  0.00000000000E+00 0. -1.
        -13    1    3    3    0    0 -0.26649767763E+02  0.39008942057E+02 -0.12510434125E+03  0.13372734905E+03  0.00000000000E+00 0. -1.
         13    1    3    3    0    0  0.48327611853E+02 -0.14511137768E+02 -0.13565816134E+03  0.14473861932E+03  0.00000000000E+00 0.  1.
          1    1    1    2  501    0 -0.80809315058E+02 -0.90858190490E+02 -0.24742376754E+03  0.27568800649E+03  0.00000000000E+00 0. -1.
<scales pt_clust_5="13000.00000" pt_clust_6="13000.00000" pt_clust_7="13000.00000" pt_clust_8="13000.00000" pt_clust_9="103.35882"></scales>
<clustering>
<clus scale="   78.362">  5  6 -1 -1</clus>
<clus scale="   92.066">  7  8 -1 -1</clus>
<clus scale="   97.705">  2  7  1 -1</clus>
<clus scale="  103.359">  1  9  2 -1</clus>
<clus scale="  103.359">  1  5  2 -1</clus>
</clustering>
</event>
<event>
 9    2  0.1654290E-004  0.9772033E+02  0.7546771E-02  0.1289981E+00
          2   -1    0    0  502    0 -0.00000000000E+00  0.00000000000E+00  0.18324496823E+03  0.18324496823E+03  0.00000000000E+00 0. -1.
         21   -1    0    0  501  502  0.00000000000E+00 -0.00000000000E+00 -0.23742331778E+03  0.23742331778E+03  0.00000000000E+00 0. -1.
         24    2    1    2    0    0 -0.25701182615E+02  0.28637691875E+02  0.14090398442E+03  0.16818395504E+03  0.83374107039E+02 0.  0.
         23    2    1    2    0    0 -0.14889868388E+02  0.52501608683E+01 -0.70900361473E+02  0.11751328860E+03  0.92375534482E+02 0.  0.
        -13    1    3    3    0    0 -0.24898946729E+02  0.39616717637E+02  0.27555915931E+02  0.54302581590E+02  0.00000000000E+00 0.  1.
         14    1    3    3    0    0 -0.80223588520E+00 -0.10979025762E+02  0.11334806849E+03  0.11388137345E+03  0.00000000000E+00 0. -1.
        -11    1    4    4    0    0 -0.43385746695E+02 -0.22046353718E+02 -0.58615543402E+02  0.76184950331E+02  0.00000000000E+00 0. -1.
         11    1    4    4    0    0  0.28495878307E+02  0.27296514586E+02 -0.12284818071E+02  0.41328338269E+02  0.00000000000E+00 0.  1.
          1    1    1    2  501    0  0.40591051003E+02 -0.33887852743E+02 -0.12418197249E+03  0.13497104237E+03  0.00000000000E+00 0. -1.
<scales pt_clust_5="13000.00000" pt_clust_6="13000.00000" pt_clust_7="13000.00000" pt_clust_8="13000.00000" pt_clust_9="52.87741"></scales>
<clustering>
<clus scale="   52.877">  2  9  1 -1</clus>
<clus scale="   83.374">  5  6 -1 -1</clus>
<clus scale="   89.260">  1  5  2 -1</clus>
<clus scale="   92.376">  7  8 -1 -1</clus>
<clus scale="   52.877">  2  5  1 -1</clus>
</clustering>
</event>
<event>
 9    2  0.1654290E-004  0.1195294E+03  0.7546771E-02  0.1246467E+00
         21   -1    0    0  501  502  0.00000000000E+00  0.00000000000E+00  0.17294822685E+03  0.17294822685E+03  0.00000000000E+00 0.  1.
         -1   -1    0    0    0  501 -0.00000000000E+00 -0.00000000000E+00 -0.12293555215E+03  0.12293555215E+03  0.00000000000E+00 0.  1.
         24    2    1    2    0    0 -0.73619703671E+02 -0.54525726908E+02 -0.26904345937E+02  0.12522572981E+03  0.81022983861E+02 0.  0.
         23    2    1    2    0    0  0.56846720457E+02  0.26233185033E+02  0.29603509024E+02  0.11303540370E+03  0.89335911695E+02 0.  0.
        -13    1    3    3    0    0 -0.34452508558E+02 -0.33790140582E+02 -0.54675659091E+02  0.72925829742E+02  0.00000000000E+00 0.  1.
         14    1    3    3    0    0 -0.39167195113E+02 -0.20735586326E+02  0.27771313154E+02  0.52299900073E+02  0.00000000000E+00 0. -1.
        -11    1    4    4    0    0  0.77468638824E+02  0.34193544715E+02  0.32580598833E+02  0.90730832255E+02  0.00000000000E+00 0. -1.
         11    1    4    4    0    0 -0.20621918367E+02 -0.79603596820E+01 -0.29770898093E+01  0.22304571440E+02  0.00000000000E+00 0.  1.
         -2    1    1    2    0  502  0.16772983214E+02  0.28292541876E+02  0.47313511618E+02  0.57622645491E+02  0.00000000000E+00 0.  1.
<scales pt_clust_5="13000.00000" pt_clust_6="13000.00000" pt_clust_7="13000.00000" pt_clust_8="13000.00000" pt_clust_9="32.89074"></scales>
<clustering>
<clus scale="   32.891">  1  9  2 -1</clus>
<clus scale="   81.023">  5  6 -1 -1</clus>
<clus scale="   89.336">  7  8 -1 -1</clus>
<clus scale="  113.451">  2  5  1 -1</clus>
<clus scale="   32.891">  1  5  2 -1</clus>
</clustering>
</event>
<event>
 9    2  0.1654290E-004  0.1447881E+03  0.7546771E-02  0.1228827E+00
         -1   -1    0    0    0  501 -0.00000000000E+00  0.00000000000E+00  0.47895066223E+03  0.47895066223E+03  0.00000000000E+00 0.  1.
         21   -1    0    0  501  502  0.00000000000E+00 -0.00000000000E+00 -0.17336334757E+03  0.17336334757E+03  0.00000000000E+00 0. -1.
         23    2    1    2    0    0  0.51276730231E+01 -0.11654768347E+02 -0.11531009147E+03  0.14717864607E+03  0.90570469834E+02 0.  0.
         24    2    1    2    0    0 -0.98357508097E+02  0.81881997232E+02  0.15514319373E+03  0.21487863730E+03  0.75660804517E+02 0.  0.
        -13    1    4    4    0    0 -0.48115223135E+02 -0.44724566910E+01  0.58507308977E+02  0.75882690846E+02  0.00000000000E+00 0.  1.
         14    1    4    4    0    0 -0.50242284962E+02  0.86354453923E+02  0.96635884749E+02  0.13899594646E+03  0.00000000000E+00 0. -1.
        -11    1    3    3    0    0 -0.22984579978E+02 -0.43338345925E+02 -0.64243486102E+02  0.80831483042E+02  0.00000000000E+00 0.  1.
         11    1    3    3    0    0  0.28112253001E+02  0.31683577578E+02 -0.51066605373E+02  0.66347163024E+02  0.00000000000E+00 0. -1.
         -2    1    1    2    0  502  0.93229835074E+02 -0.70227228885E+02  0.26575421241E+03  0.29025672643E+03  0.00000000000E+00 0.  1.
<scales pt_clust_5="13000.00000" pt_clust_6="13000.00000" pt_clust_7="13000.00000" pt_clust_8="13000.00000" pt_clust_9="123.44661"></scales>
<clustering>
<clus scale="   75.661">  5  6 -1 -1</clus>
<clus scale="   90.570">  7  8 -1 -1</clus>
<clus scale="   91.461">  1  7  2 -1</clus>
<clus scale="  123.447">  2  9  1 -1</clus>
<clus scale="  123.447">  2  5  1 -1</clus>
</clustering>
</event>
<event>
 9    2  0.1654290E-004  0.1257655E+03  0.7546771E-02  0.1237370E+00
          2   -1    0    0  502    0 -0.00000000000E+00  0.00000000000E+00  0.57086538846E+03  0.57086538846E+03  0.00000000000E+00 0. -1.
         21   -1    0    0  501  502  0.00000000000E+00 -0.00000000000E+00 -0.97122902824E+02  0.97122902824E+02  0.00000000000E+00 0. -1.
         24    2    1    2    0    0  0.18470668419E+02 -0.94585887972E+02  0.41539887458E+03  0.43382746654E+03  0.79764590661E+02 0.  0.
         23    2    1    2    0    0 -0.63319253444E+02  0.17527194698E+01 -0.72726593186E+01  0.11195244659E+03  0.92022056284E+02 0.  0.
        -11    1    3    3    0    0  0.32678417309E+01 -0.78585521565E+02  0.16860254734E+03  0.18604618233E+03  0.00000000000E+00 0.  1.
         12    1    3    3    0    0  0.15202826688E+02 -0.16000366407E+02  0.24679632725E+03  0.24778128421E+03  0.00000000000E+00 0. -1.
        -11    1    4    4    0    0 -0.64206022453E+02  0.38342042772E+02 -0.81853745939E+00  0.74787669884E+02  0.00000000000E+00 0. -1.
         11    1    4    4    0    0  0.88676900900E+00 -0.36589323302E+02 -0.64541218592E+01  0.37164776711E+02  0.00000000000E+00 0.  1.
          1    1    1    2  501    0  0.44848585025E+02  0.92833168502E+02  0.65616270374E+02  0.12220837815E+03  0.00000000000E+00 0. -1.
<scales pt_clust_5="13000.00000" pt_clust_6="13000.00000" pt_clust_7="13000.00000" pt_clust_8="13000.00000" pt_clust_9="103.09895"></scales>
<clustering>
<clus scale="   79.765">  5  6 -1 -1</clus>
<clus scale="   92.022">  7  8 -1 -1</clus>
<clus scale="  103.099">  2  9  1 -1</clus>
<clus scale="  117.095">  1  5  2 -1</clus>
<clus scale="  103.099">  2  5  1 -1</clus>
</clustering>
</event>
<event>
 9    2  0.1654290E-004  0.1095347E+03  0.7546771E-02  0.1263434E+00
          2   -1    0    0  502    0 -0.00000000000E+00  0.00000000000E+00  0.90500126202E+02  0.90500126202E+02  0.00000000000E+00 0. -1.
         21   -1    0    0  501  502  0.00000000000E+00 -0.00000000000E+00 -0.27148447710E+03  0.27148447710E+03  0.00000000000E+00 0. -1.
         24    2    1    2    0    0  0.86800232862E+02  0.20119370889E+02 -0.92345779195E+02  0.15059826801E+03  0.78822749769E+02 0.  0.
         23    2    1    2    0    0 -0.44405559508E+02 -0.18711310522E+02 -0.12303939304E+03  0.15677216614E+03  0.84361442503E+02 0.  0.
        -13    1    3    3    0    0  0.19353496615E+02 -0.23186197918E+02 -0.53711573813E+02  0.61620538513E+02  0.00000000000E+00 0.  1.
         14    1    3    3    0    0  0.67446736247E+02  0.43305568808E+02 -0.38634205382E+02  0.88977729493E+02  0.00000000000E+00 0. -1.
        -13    1    4    4    0    0 -0.28118983987E+02  0.32268785045E+02 -0.44606277196E+02  0.61819670931E+02  0.00000000000E+00 0.  1.
         13    1    4    4    0    0 -0.16286575520E+02 -0.50980095567E+02 -0.78433115844E+02  0.94952495213E+02  0.00000000000E+00 0. -1.
          1    1    1    2  501    0 -0.42394673355E+02 -0.14080603668E+01  0.34400821341E+02  0.54614169148E+02  0.00000000000E+00 0. -1.
<scales pt_clust_5="13000.00000" pt_clust_6="13000.00000" pt_clust_7="13000.00000" pt_clust_8="13000.00000" pt_clust_9="42.41807"></scales>
<clustering>
<clus scale="   42.418">  2  9  1 -1</clus>
<clus scale="   78.823">  5  6 -1 -1</clus>
<clus scale="   84.361">  7  8 -1 -1</clus>
<clus scale="  105.328">  1  5  2 -1</clus>
<clus scale="   42.418">  2  5  1 -1</clus>
</clustering>
</event>
<event>
 9    2  0.1654290E-004  0.9185996E+02  0.7546771E-02  0.1305842E+00
          2   -1    0    0  502    0 -0.00000000000E+00  0.00000000000E+00  0.35521593587E+03  0.35521593587E+03  0.00000000000E+00 0. -1.
         21   -1    0    0  501  502  0.00000000000E+00 -0.00000000000E+00 -0.12377197642E+03  0.12377197642E+03  0.00000000000E+00 0. -1.
         24    2    1    2    0    0  0.25137624901E+02  0.81796197050E+01  0.23023377900E+03  0.24463073399E+03  0.78344091387E+02 0.  0.
         23    2    1    2    0    0  0.62821096288E+01  0.31973323358E+01  0.97113645143E+02  0.13279877493E+03  0.90303746960E+02 0.  0.
        -13    1    3    3    0    0 -0.11059820471E+02  0.34311466905E+02  0.76913898144E+02  0.84943181703E+02  0.00000000000E+00 0.  1.
         14    1    3    3    0    0  0.36197445373E+02 -0.26131847200E+02  0.15331988085E+03  0.15968755228E+03  0.00000000000E+00 0. -1.
        -13    1    4    4    0    0  0.26859985161E+02  0.25641997478E+02  0.95317566511E+02  0.10229569553E+03  0.00000000000E+00 0. -1.
         13    1    4    4    0    0 -0.20577875533E+02 -0.22444665142E+02  0.17960786315E+01  0.30503079406E+02  0.00000000000E+00 0.  1.
          1    1    1    2  501    0 -0.31419734530E+02 -0.11376952041E+02 -0.95903464693E+02  0.10155840337E+03  0.00000000000E+00 0. -1.
<scales pt_clust_5="13000.00000" pt_clust_6="13000.00000" pt_clust_7="13000.00000" pt_clust_8="13000.00000" pt_clust_9="33.41609"></scales>
<clustering>
<clus scale="   33.416">  2  9  1 -1</clus>
<clus scale="   78.344">  5  6 -1 -1</clus>
<clus scale="   80.133">  1  5  2 -1</clus>
<clus scale="   90.304">  7  8 -1 -1</clus>
<clus scale="   33.416">  2  5  1 -1</clus>
</clustering>
</event>
<event>
 9    2  0.1654290E-004  0.1108120E+03  0.7546771E-02  0.1269369E+00
         -3   -1    0    0    0  501 -0.00000000000E+00  0.00000000000E+00  0.18050833889E+03  0.18050833889E+03  0.00000000000E+00 0.  1.
         21   -1    0    0  501  502  0.00000000000E+00 -0.00000000000E+00 -0.23939121040E+03  0.23939121040E+03  0.00000000000E+00 0.  1.
         23    2    1    2    0    0  0.26452135522E+02 -0.63081392783E+02  0.13530183099E+03  0.17797018519E+03  0.93208496172E+02 0.  0.
         24    2    1    2    0    0 -0.36273190823E+02 -0.33099832047E+01 -0.10693912781E+03  0.13185639631E+03  0.67995822159E+02 0.  0.
        -11    1    4    4    0    0 -0.48357747857E+02 -0.23377265100E+02 -0.74588225618E+02  0.91915024355E+02  0.00000000000E+00 0.  1.
         12    1    4    4    0    0  0.12084557034E+02  0.20067281896E+02 -0.32350902191E+02  0.39941371959E+02  0.00000000000E+00 0. -1.
        -11    1    3    3    0    0 -0.13553406774E+02 -0.25071395155E+02 -0.33918790430E+01  0.28701472674E+02  0.00000000000E+00 0. -1.
         11    1    3    3    0    0  0.40005542296E+02 -0.38009997629E+02  0.13869371003E+03  0.14926871252E+03  0.00000000000E+00 0.  1.
         -4    1    1    2    0  502  0.98210553008E+01  0.66391375988E+02 -0.87245574698E+02  0.11007296779E+03  0.00000000000E+00 0.  1.
<scales pt_clust_5="13000.00000" pt_clust_6="13000.00000" pt_clust_7="13000.00000" pt_clust_8="13000.00000" pt_clust_9="67.11384"></scales>
<clustering>
<clus scale="   67.114">  2  9  1 -1</clus>
<clus scale="   67.996">  5  6 -1 -1</clus>
<clus scale="   90.636">  2  5  1 -1</clus>
<clus scale="   93.208">  7  8 -1 -1</clus>
<clus scale="   67.114">  2  5  1 -1</clus>
</clustering>
</event>
<event>
 9    2  0.1654290E-004  0.1722027E+03  0.7546771E-02  0.1199693E+00
          2   -1    0    0  502    0 -0.00000000000E+00  0.00000000000E+00  0.24265517104E+03  0.24265517104E+03  0.00000000000E+00 0. -1.
         21   -1    0    0  501  502  0.00000000000E+00 -0.00000000000E+00 -0.47958989351E+03  0.47958989351E+03  0.00000000000E+00 0. -1.
         23    2    1    2    0    0 -0.48423407694E+02 -0.14546862732E+01  0.15780845218E+03  0.18727226147E+03  0.88433307151E+02 0.  0.
         24    2    1    2    0    0 -0.11480392399E+03 -0.66633548514E+02 -0.28319966023E+03  0.32587683196E+03  0.91507875638E+02 0.  0.
        -11    1    4    4    0    0 -0.57899668289E+02 -0.41272142188E+01 -0.45993024093E+02  0.74059190857E+02  0.00000000000E+00 0.  1.
         12    1    4    4    0    0 -0.56904255699E+02 -0.62506334296E+02 -0.23720663614E+03  0.25181764110E+03  0.00000000000E+00 0. -1.
        -13    1    3    3    0    0 -0.53026398639E+02  0.33938920842E+02  0.81116042878E+02  0.10268136010E+03  0.00000000000E+00 0. -1.
         13    1    3    3    0    0  0.46029909444E+01 -0.35393607116E+02  0.76692409300E+02  0.84590901370E+02  0.00000000000E+00 0.  1.
          1    1    1    2  501    0  0.16322733168E+03  0.68088234788E+02 -0.11154351442E+03  0.20909597111E+03  0.00000000000E+00 0. -1.
<scales pt_clust_5="13000.00000" pt_clust_6="13000.00000" pt_clust_7="13000.00000" pt_clust_8="13000.00000" pt_clust_9="145.87706"></scales>
<clustering>
<clus scale="   88.433">  7  8 -1 -1</clus>
<clus scale="   91.508">  5  6 -1 -1</clus>
<clus scale="  100.833">  1  7  2 -1</clus>
<clus scale="  145.877">  2  9  1 -1</clus>
<clus scale="  145.877">  2  5  1 -1</clus>
</clustering>
</event>
<event>
 9    2  0.1654290E-004  0.9110595E+02  0.7546771E-02  0.1303492E+00
         -1   -1    0    0    0  501 -0.00000000000E+00  0.00000000000E+00  0.12875750287E+03  0.12875750287E+03  0.00000000000E+00 0.  1.
         21   -1    0    0  501  502  0.00000000000E+00 -0.00000000000E+00 -0.11806506864E+03  0.11806506864E+03  0.00000000000E+00 0.  1.
         23    2    1    2    0    0  0.16399055340E+02  0.44635793255E+01  0.34372814306E+02  0.93981335896E+02  0.85802963685E+02 0.  0.
         24    2    1    2    0    0 -0.41362953850E+02 -0.46873508796E+02 -0.19472867895E+02  0.10344992560E+03  0.80091664638E+02 0.  0.
        -13    1    4    4    0    0 -0.30639814910E+02 -0.54860085678E+02  0.16588809876E+02  0.64989351985E+02  0.00000000000E+00 0.  1.
         14    1    4    4    0    0 -0.10723138940E+02  0.79865768827E+01 -0.36061677772E+02  0.38460573614E+02  0.00000000000E+00 0. -1.
        -13    1    3    3    0    0  0.46883200264E+02 -0.90831971942E+01  0.37155595915E+02  0.60506836358E+02  0.00000000000E+00 0.  1.
         13    1    3    3    0    0 -0.30484144924E+02  0.13546776520E+02 -0.27827816085E+01  0.33474499538E+02  0.00000000000E+00 0. -1.
         -2    1    1    2    0  502  0.24963898510E+02  0.42409929470E+02 -0.42075121813E+01  0.49391310018E+02  0.00000000000E+00 0.  1.
<scales pt_clust_5="13000.00000" pt_clust_6="13000.00000" pt_clust_7="13000.00000" pt_clust_8="13000.00000" pt_clust_9="49.21177"></scales>
<clustering>
<clus scale="   49.212">  2  9  1 -1</clus>
<clus scale="   80.092">  5  6 -1 -1</clus>
<clus scale="   85.749">  2  5  1 -1</clus>
<clus scale="   85.803">  7  8 -1 -1</clus>
<clus scale="   49.212">  2  5  1 -1</clus>
</clustering>
</event>
<event>
 9    2  0.1654290E-004  0.1457671E+03  0.7546771E-02  0.1230970E+00
          2   -1    0    0  502    0 -0.00000000000E+00  0.00000000000E+00  0.69197220459E+03  0.69197220459E+03  0.00000000000E+00 0. -1.
         21   -1    0    0  501  502  0.00000000000E+00 -0.00000000000E+00 -0.73316083221E+02  0.73316083221E+02  0.00000000000E+00 0. -1.
         24    2    1    2    0    0 -0.69790262700E+01  0.33008358144E+01  0.39971744023E+03  0.40881191914E+03  0.85402288488E+02 0.  0.
         23    2    1    2    0    0 -0.11149920551E+03  0.32341666071E+02  0.17547810806E+03  0.22534170217E+03  0.80673788386E+02 0.  0.
        -13    1    3    3    0    0  0.14257825651E+02  0.15984246012E+02  0.23556349951E+02  0.31838394053E+02  0.00000000000E+00 0.  1.
         14    1    3    3    0    0 -0.21236851921E+02 -0.12683410198E+02  0.37616109028E+03  0.37697352509E+03  0.00000000000E+00 0. -1.
        -11    1    4    4    0    0 -0.24736912548E+01  0.20148138807E+02  0.71004449567E+02  0.73849160483E+02  0.00000000000E+00 0. -1.
         11    1    4    4    0    0 -0.10902551426E+03  0.12193527264E+02  0.10447365849E+03  0.15149254168E+03  0.00000000000E+00 0.  1.
          1    1    1    2  501    0  0.11847823178E+03 -0.35642501885E+02  0.43460573077E+02  0.13113466651E+03  0.00000000000E+00 0. -1.
<scales pt_clust_5="13000.00000" pt_clust_6="13000.00000" pt_clust_7="13000.00000" pt_clust_8="13000.00000" pt_clust_9="121.40753"></scales>
<clustering>
<clus scale="   80.674">  7  8 -1 -1</clus>
<clus scale="   85.402">  5  6 -1 -1</clus>
<clus scale="   85.751">  1  5  2 -1</clus>
<clus scale="  121.408">  2  9  1 -1</clus>
<clus scale="  121.408">  2  5  1 -1</clus>
</clustering>
</event>
<event>
 9    2  0.1654290E-004  0.2021020E+03  0.7546771E-02  0.1149032E+00
          2   -1    0    0  502    0 -0.00000000000E+00  0.00000000000E+00  0.16539782806E+03  0.16539782806E+03  0.00000000000E+00 0. -1.
         21   -1    0    0  501  502  0.00000000000E+00 -0.00000000000E+00 -0.14757383766E+04  0.14757383766E+04  0.00000000000E+00 0.  1.
         24    2    1    2    0    0  0.83056189293E+01 -0.17093567917E+03 -0.80974623044E+01  0.18888153691E+03  0.79515258714E+02 0.  0.
         23    2    1    2    0    0 -0.93711645731E+02  0.29415462405E+03 -0.12541522779E+04  0.12948068236E+04  0.91202845016E+02 0.  0.
        -13    1    3    3    0    0  0.36881763343E+02 -0.10361864533E+03 -0.27192713339E+02  0.11329841916E+03  0.00000000000E+00 0.  1.
         14    1    3    3    0    0 -0.28576144414E+02 -0.67317033847E+02  0.19095251035E+02  0.75583117742E+02  0.00000000000E+00 0. -1.
        -13    1    4    4    0    0 -0.70190801563E+02  0.10245295456E+03 -0.60098364507E+03  0.61368126757E+03  0.00000000000E+00 0. -1.
         13    1    4    4    0    0 -0.23520844168E+02  0.19170166949E+03 -0.65316863279E+03  0.68112555601E+03  0.00000000000E+00 0.  1.
          1    1    1    2  501    0  0.85406026802E+02 -0.12321894487E+03 -0.48090808398E+02  0.15744784420E+03  0.00000000000E+00 0. -1.
<scales pt_clust_5="13000.00000" pt_clust_6="13000.00000" pt_clust_7="13000.00000" pt_clust_8="13000.00000" pt_clust_9="149.92371"></scales>
<clustering>
<clus scale="   79.515">  5  6 -1 -1</clus>
<clus scale="   91.203">  7  8 -1 -1</clus>
<clus scale="  149.924">  2  9  1 -1</clus>
<clus scale="  197.104">  1  5  2 -1</clus>
<clus scale="  149.924">  2  5  1 -1</clus>
</clustering>
</event>
<event>
 9    2  0.1654290E-004  0.1265787E+03  0.7546771E-02  0.1235392E+00
         -1   -1    0    0    0  501 -0.00000000000E+00  0.00000000000E+00  0.82817634571E+02  0.82817634571E+02  0.00000000000E+00 0.  1.
         21   -1    0    0  501  502  0.00000000000E+00 -0.00000000000E+00 -0.43040589714E+03  0.43040589714E+03  0.00000000000E+00 0. -1.
         24    2    1    2    0    0  0.40814166570E+02  0.72496970345E+02 -0.20520856531E+02  0.11835302454E+03  0.81637772890E+02 0.  0.
         23    2    1    2    0    0 -0.56082333727E+02 -0.93116031546E+02 -0.33823797289E+03  0.36688758064E+03  0.91573724623E+02 0.  0.
        -11    1    3    3    0    0 -0.17893669327E+02  0.38649756366E+02 -0.26760595602E+02  0.50300263877E+02  0.00000000000E+00 0.  1.
         12    1    3    3    0    0  0.58707835897E+02  0.33847213979E+02  0.62397390710E+01  0.68052760661E+02  0.00000000000E+00 0. -1.
        -13    1    4    4    0    0 -0.81311369756E+02 -0.76512169085E+02 -0.25640728381E+03  0.27966112719E+03  0.00000000000E+00 0. -1.
         13    1    4    4    0    0  0.25229036030E+02 -0.16603862461E+02 -0.81830689078E+02  0.87226453456E+02  0.00000000000E+00 0.  1.
         -2    1    1    2    0  502  0.15268167156E+02  0.20619061201E+02  0.11170566852E+02  0.27982926525E+02  0.00000000000E+00 0.  1.
<scales pt_clust_5="13000.00000" pt_clust_6="13000.00000" pt_clust_7="13000.00000" pt_clust_8="13000.00000" pt_clust_9="25.65664"></scales>
<clustering>
<clus scale="   25.657">  2  9  1 -1</clus>
<clus scale="   81.638">  5  6 -1 -1</clus>
<clus scale="   91.574">  7  8 -1 -1</clus>
<clus scale="  119.587">  1  5  2 -1</clus>
<clus scale="   25.657">  2  5  1 -1</clus>
</clustering>
</event>
<event>
 9    2  0.1654290E-004  0.1406681E+03  0.7546771E-02  0.1214128E+00
          2   -1    0    0  502    0 -0.00000000000E+00  0.00000000000E+00  0.42401544396E+03  0.42401544396E+03  0.00000000000E+00 0. -1.
         21   -1    0    0  501  502  0.00000000000E+00 -0.00000000000E+00 -0.84809834543E+02  0.84809834543E+02  0.00000000000E+00 0. -1.
         23    2    1    2    0    0 -0.10466741568E+03  0.29750828546E+02  0.20141624106E+03  0.24585773577E+03  0.89650121956E+02 0.  0.
         24    2    1    2    0    0  0.79592491062E+02 -0.90829545071E+02  0.52108278964E+02  0.15479818231E+03  0.81622506807E+02 0.  0.
        -11    1    4    4    0    0  0.51979979423E+02 -0.50880849757E+02  0.71975019725E+02  0.10232879652E+03  0.00000000000E+00 0.  1.
         12    1    4    4    0    0  0.27612511639E+02 -0.39948695315E+02 -0.19866740761E+02  0.52469385787E+02  0.00000000000E+00 0. -1.
        -13    1    3    3    0    0 -0.31711107915E+02  0.42584143597E+02  0.34707196483E+02  0.63431799113E+02  0.00000000000E+00 0.  1.
         13    1    3    3    0    0 -0.72956307767E+02 -0.12833315051E+02  0.16670904458E+03  0.18242593665E+03  0.00000000000E+00 0. -1.
          1    1    1    2  501    0  0.25074924620E+02  0.61078716525E+02  0.85681089384E+02  0.10816936043E+03  0.00000000000E+00 0. -1.
<scales pt_clust_5="13000.00000" pt_clust_6="13000.00000" pt_clust_7="13000.00000" pt_clust_8="13000.00000" pt_clust_9="66.02549"></scales>
<clustering>
<clus scale="   66.025">  2  9  1 -1</clus>
<clus scale="   81.623">  5  6 -1 -1</clus>
<clus scale="   89.650">  7  8 -1 -1</clus>
<clus scale="  135.693">  2  5  1 -1</clus>
<clus scale="   66.025">  2  5  1 -1</clus>
</clustering>
</event>
<event>
 9    2  0.1654290E-004  0.1309226E+03  0.7546771E-02  0.1227564E+00
         21   -1    0    0  501  502  0.00000000000E+00  0.00000000000E+00  0.10349236156E+03  0.10349236156E+03  0.00000000000E+00 0.  1.
          2   -1    0    0  502    0 -0.00000000000E+00 -0.00000000000E+00 -0.34234431267E+03  0.34234431267E+03  0.00000000000E+00 0. -1.
         24    2    1    2    0    0  0.84523089615E+01 -0.91960151106E+02 -0.12680882653E+03  0.17578101757E+03  0.79311895286E+02 0.  0.
         23    2    1    2    0    0  0.77928507627E+02  0.10703802542E+03 -0.79635339758E+02  0.17657168859E+03  0.85473871369E+02 0.  0.
        -11    1    3    3    0    0 -0.22651539671E+02 -0.59819304210E+02 -0.33271458100E+02  0.72100147918E+02  0.00000000000E+00 0.  1.
         12    1    3    3    0    0  0.31103848633E+02 -0.32140846895E+02 -0.93537368432E+02  0.10368086965E+03  0.00000000000E+00 0. -1.
        -13    1    4    4    0    0  0.94933282529E+02  0.74141256429E+02 -0.58115275621E+02  0.13374094099E+03  0.00000000000E+00 0.  1.
         13    1    4    4    0    0 -0.17004774902E+02  0.32896768991E+02 -0.21520064137E+02  0.42830747600E+02  0.00000000000E+00 0. -1.
          1    1    1    2  501    0 -0.86380816588E+02 -0.15077874315E+02 -0.32407784824E+02  0.93483968067E+02  0.00000000000E+00 0. -1.
<scales pt_clust_5="13000.00000" pt_clust_6="13000.00000" pt_clust_7="13000.00000" pt_clust_8="13000.00000" pt_clust_9="87.68687"></scales>
<clustering>
<clus scale="   79.312">  5  6 -1 -1</clus>
<clus scale="   85.474">  7  8 -1 -1</clus>
<clus scale="   87.687">  1  9  2 -1</clus>
<clus scale="  126.986">  2  5  1 -1</clus>
<clus scale="   87.687">  1  5  2 -1</clus>
</clustering>
</event>
<event>
 9    2  0.1804615E-004  0.9474491E+02  0.7546771E-02  0.1297944E+00
         21   -1    0    0  501  502  0.00000000000E+00  0.00000000000E+00  0.15018645626E+03  0.15018645626E+03  0.00000000000E+00 0. -1.
          2   -1    0    0  502    0 -0.00000000000E+00 -0.00000000000E+00 -0.51817433521E+03  0.51817433521E+03  0.00000000000E+00 0. -1.
         23    2    1    2    0    0 -0.12689594877E+02 -0.27558096984E+02 -0.46886338583E+03  0.47842729886E+03  0.90218242052E+02 0.  0.
         24    2    1    2    0    0  0.32555943935E+02  0.10716322868E+01  0.21301427337E+01  0.85785273346E+02  0.79331820436E+02 0.  0.
        -11    1    4    4    0    0  0.66291468651E+01  0.35146760677E+02  0.18101588097E+02  0.40086255324E+02  0.00000000000E+00 0.  1.
         12    1    4    4    0    0  0.25926797070E+02 -0.34075128391E+02 -0.15971445364E+02  0.45699018022E+02  0.00000000000E+00 0. -1.
        -13    1    3    3    0    0  0.32894810938E+02  0.10380948557E+02 -0.13499243938E+03  0.13932979355E+03  0.00000000000E+00 0.  1.
         13    1    3    3    0    0 -0.45584405815E+02 -0.37939045541E+02 -0.33387094645E+03  0.33909750531E+03  0.00000000000E+00 0. -1.
          1    1    1    2  501    0 -0.19866349059E+02  0.26486464697E+02  0.98745364136E+02  0.10414821926E+03  0.00000000000E+00 0. -1.
<scales pt_clust_5="13000.00000" pt_clust_6="13000.00000" pt_clust_7="13000.00000" pt_clust_8="13000.00000" pt_clust_9="33.10898"></scales>
<clustering>
<clus scale="   33.109">  1  9  2 -1</clus>
<clus scale="   79.332">  5  6 -1 -1</clus>
<clus scale="   84.444">  1  5  2 -1</clus>
<clus scale="   90.218">  7  8 -1 -1</clus>
<clus scale="   33.109">  1  5  2 -1</clus>
</clustering>
</event>
<event>
 9    2  0.1654290E-004  0.1335877E+03  0.7546771E-02  0.1225253E+00
         21   -1    0    0  501  502  0.00000000000E+00  0.00000000000E+00  0.22296325069E+03  0.22296325069E+03  0.00000000000E+00 0.  1.
          2   -1    0    0  502    0 -0.00000000000E+00 -0.00000000000E+00 -0.22177545637E+03  0.22177545637E+03  0.00000000000E+00 0. -1.
         24    2    1    2    0    0 -0.55342514749E+02  0.73526402337E+02 -0.53047055630E+02  0.13338789045E+03  0.80680935969E+02 0.  0.
         23    2    1    2    0    0  0.12052088283E+03 -0.44347567150E+02  0.13164581850E+03  0.20603186228E+03  0.92879044123E+02 0.  0.
        -11    1    3    3    0    0  0.17154280823E+02  0.33474600103E+02 -0.58697211577E+01  0.38069302976E+02  0.00000000000E+00 0.  1.
         12    1    3    3    0    0 -0.72496795572E+02  0.40051802234E+02 -0.47177334472E+02  0.95318587475E+02  0.00000000000E+00 0. -1.
        -11    1    4    4    0    0  0.67095794198E+02  0.16225492943E+02  0.94768400013E+02  0.11724402698E+03  0.00000000000E+00 0.  1.
         11    1    4    4    0    0  0.53425088632E+02 -0.60573060094E+02  0.36877418487E+02  0.88787835308E+02  0.00000000000E+00 0. -1.
          1    1    1    2  501    0 -0.65178368081E+02 -0.29178835187E+02 -0.77410968552E+02  0.10531895433E+03  0.00000000000E+00 0. -1.
<scales pt_clust_5="13000.00000" pt_clust_6="13000.00000" pt_clust_7="13000.00000" pt_clust_8="13000.00000" pt_clust_9="71.41169"></scales>
<clustering>
<clus scale="   71.412">  1  9  2 -1</clus>
<clus scale="   80.681">  5  6 -1 -1</clus>
<clus scale="   92.879">  7  8 -1 -1</clus>
<clus scale="  125.414">  2  5  1 -1</clus>
<clus scale="   71.412">  1  5  2 -1</clus>
</clustering>
</event>
<event>
 9    2  0.1654290E-004  0.2755009E+03  0.7546771E-02  0.1098573E+00
         21   -1    0    0  501  502  0.00000000000E+00  0.00000000000E+00  0.31174743233E+03  0.31174743233E+03  0.00000000000E+00 0. -1.
          2   -1    0    0  502    0 -0.00000000000E+00 -0.00000000000E+00 -0.76063656873E+03  0.76063656873E+03  0.00000000000E+00 0. -1.
         23    2    1    2    0    0  0.19098858691E+03  0.73859772146E+02 -0.25890885264E+03  0.34239283398E+03  0.90923883048E+02 0.  0.
         24    2    1    2    0    0 -0.38736957062E+03 -0.93101693273E+02 -0.29877356290E+03  0.50466535880E+03  0.81843588330E+02 0.  0.
        -13    1    4    4    0    0 -0.75249811314E+02 -0.45416478979E+02 -0.40634509279E+02  0.96831575481E+02  0.00000000000E+00 0.  1.
         14    1    4    4    0    0 -0.31211975931E+03 -0.47685214294E+02 -0.25813905362E+03  0.40783378332E+03  0.00000000000E+00 0. -1.
        -13    1    3    3    0    0  0.98676628224E+02  0.77958978682E+02 -0.18678721769E+03  0.22517580689E+03  0.00000000000E+00 0.  1.
         13    1    3    3    0    0  0.92311958690E+02 -0.40992065360E+01 -0.72121634953E+02  0.11721702709E+03  0.00000000000E+00 0. -1.
          1    1    1    2  501    0  0.19638098371E+03  0.19241921127E+02  0.10879327914E+03  0.22532580828E+03  0.00000000000E+00 0. -1.
<scales pt_clust_5="13000.00000" pt_clust_6="13000.00000" pt_clust_7="13000.00000" pt_clust_8="13000.00000" pt_clust_9="197.32142"></scales>
<clustering>
<clus scale="   81.844">  5  6 -1 -1</clus>
<clus scale="   90.924">  7  8 -1 -1</clus>
<clus scale="  197.321">  1  9  2 -1</clus>
<clus scale="  272.639">  1  5  2 -1</clus>
<clus scale="  197.321">  1  5  2 -1</clus>
</clustering>
</event>
<event>
 9    2  0.1654290E-004  0.2126561E+03  0.7546771E-02  0.1140455E+00
         21   -1    0    0  501  502  0.00000000000E+00  0.00000000000E+00  0.68307606323E+02  0.68307606323E+02  0.00000000000E+00 0. -1.
          2   -1    0    0  502    0 -0.00000000000E+00 -0.00000000000E+00 -0.19479234589E+04  0.19479234589E+04  0.00000000000E+00 0. -1.
         24    2    1    2    0    0 -0.36057600600E+02  0.15724912440E+03 -0.89737639999E+03  0.91504753966E+03  0.77460692662E+02 0.  0.
         23    2    1    2    0    0  0.15685097723E+02 -0.26996330529E+03 -0.93469120947E+03  0.97716594263E+03  0.89885559940E+02 0.  0.
        -11    1    3    3    0    0 -0.50681470315E+02  0.14661434412E+03 -0.85524487206E+03  0.86919972879E+03  0.00000000000E+00 0.  1.
         12    1    3    3    0    0  0.14623869715E+02  0.10634780271E+02 -0.42131527924E+02  0.45847810875E+02  0.00000000000E+00 0. -1.
        -11    1    4    4    0    0  0.27491417281E+02 -0.71114099026E+02 -0.15943920515E+03  0.17673101947E+03  0.00000000000E+00 0.  1.
         11    1    4    4    0    0 -0.11806319558E+02 -0.19884920627E+03 -0.77525200432E+03  0.80043492316E+03  0.00000000000E+00 0. -1.
          1    1    1    2  501    0  0.20372502877E+02  0.11271418090E+03 -0.47548243108E+02  0.12401758291E+03  0.00000000000E+00 0. -1.
<scales pt_clust_5="13000.00000" pt_clust_6="13000.00000" pt_clust_7="13000.00000" pt_clust_8="13000.00000" pt_clust_9="114.54050"></scales>
<clustering>
<clus scale="   77.461">  5  6 -1 -1</clus>
<clus scale="   89.886">  7  8 -1 -1</clus>
<clus scale="  114.540">  1  9  2 -1</clus>
<clus scale="  207.710">  2  5  1 -1</clus>
<clus scale="  114.540">  1  5  2 -1</clus>
</clustering>
</event>
<event>
 9    2  0.1654290E-004  0.1383524E+03  0.7546771E-02  0.1218027E+00
         21   -1    0    0  501  502  0.00000000000E+00  0.00000000000E+00  0.61853807778E+02  0.61853807778E+02  0.00000000000E+00 0. -1.
          2   -1    0    0  502    0 -0.00000000000E+00 -0.00000000000E+00 -0.52468134662E+03  0.52468134662E+03  0.00000000000E+00 0. -1.
         24    2    1    2    0    0 -0.10282285627E+03 -0.52314285360E+02 -0.20869208279E+03  0.25158923575E+03  0.80221156198E+02 0.  0.
         23    2    1    2    0    0  0.10256275891E+03 -0.26023910183E+02 -0.16811324194E+03  0.21859832799E+03  0.91251320363E+02 0.  0.
        -13    1    3    3    0    0 -0.14371250411E+02 -0.14046156620E+02 -0.11649635208E+03  0.11821686598E+03  0.00000000000E+00 0.  1.
         14    1    3    3    0    0 -0.88451605861E+02 -0.38268128740E+02 -0.92195730702E+02  0.13337236976E+03  0.00000000000E+00 0. -1.
        -11    1    4    4    0    0  0.55220434355E+02 -0.49611617571E+02 -0.14056165045E+03  0.15895970101E+03  0.00000000000E+00 0.  1.
         11    1    4    4    0    0  0.47342324553E+02  0.23587707388E+02 -0.27551591485E+02  0.59638626974E+02  0.00000000000E+00 0. -1.
          1    1    1    2  501    0  0.26009736328E+00  0.78338195543E+02 -0.86022214121E+02  0.11634759067E+03  0.00000000000E+00 0. -1.
<scales pt_clust_5="13000.00000" pt_clust_6="13000.00000" pt_clust_7="13000.00000" pt_clust_8="13000.00000" pt_clust_9="78.33863"></scales>
<clustering>
<clus scale="   78.339">  1  9  2 -1</clus>
<clus scale="   80.221">  5  6 -1 -1</clus>
<clus scale="   91.251">  7  8 -1 -1</clus>
<clus scale="  131.339">  2  5  1 -1</clus>
<clus scale="   78.339">  1  5  2 -1</clus>
</clustering>
</event>
<event>
 9    2  0.1654290E-004  0.1027427E+03  0.7546771E-02  0.1282419E+00
         21   -1    0    0  501  502  0.00000000000E+00  0.00000000000E+00  0.40171296179E+03  0.40171296179E+03  0.00000000000E+00 0. -1.
          2   -1    0    0  502    0 -0.00000000000E+00 -0.00000000000E+00 -0.48315251995E+02  0.48315251995E+02  0.00000000000E+00 0. -1.
         23    2    1    2    0    0  0.13311325470E+02 -0.59847765730E+02  0.12711490407E+03  0.17017712061E+03  0.95095252735E+02 0.  0.
         24    2    1    2    0    0 -0.15807912314E+01  0.63834647013E+01  0.20692907449E+03  0.22179419152E+03  0.79559876816E+02 0.  0.
        -13    1    4    4    0    0 -0.21127856738E+02  0.19395250501E+02  0.24095046560E+02  0.37458421497E+02  0.00000000000E+00 0.  1.
         14    1    4    4    0    0  0.19547065507E+02 -0.13011785800E+02  0.18283402793E+03  0.18433577002E+03  0.00000000000E+00 0. -1.
        -11    1    3    3    0    0  0.48185333523E+02 -0.32974546268E+02  0.34982226458E+02  0.68065433490E+02  0.00000000000E+00 0. -1.
         11    1    3    3    0    0 -0.34874008053E+02 -0.26873219462E+02  0.92132677610E+02  0.10211168712E+03  0.00000000000E+00 0.  1.
          1    1    1    2  501    0 -0.11730534239E+02  0.53464301028E+02  0.19353731239E+02  0.58056901664E+02  0.00000000000E+00 0. -1.
<scales pt_clust_5="13000.00000" pt_clust_6="13000.00000" pt_clust_7="13000.00000" pt_clust_8="13000.00000" pt_clust_9="54.73609"></scales>
<clustering>
<clus scale="   54.736">  1  9  2 -1</clus>
<clus scale="   79.560">  5  6 -1 -1</clus>
<clus scale="   88.559">  1  5  2 -1</clus>
<clus scale="   95.095">  7  8 -1 -1</clus>
<clus scale="   54.736">  1  5  2 -1</clus>
</clustering>
</event>
<event>
 9    2  0.1654290E-004  0.1227491E+03  0.7546771E-02  0.1242387E+00
          2   -1    0    0  502    0 -0.00000000000E+00  0.00000000000E+00  0.11774839886E+03  0.11774839886E+03  0.00000000000E+00 0. -1.
         21   -1    0    0  501  502  0.00000000000E+00 -0.00000000000E+00 -0.34130731706E+03  0.34130731706E+03  0.00000000000E+00 0. -1.
         23    2    1    2    0    0  0.32999941688E+02 -0.89192180435E+02  0.32846445996E+02  0.13586243879E+03  0.91298806436E+02 0.  0.
         24    2    1    2    0    0 -0.27288926084E+02  0.13622701188E+02 -0.22647241315E+03  0.24171111068E+03  0.78767021228E+02 0.  0.
        -13    1    4    4    0    0  0.24693560382E+02  0.17155815636E+02 -0.57484931656E+02  0.64873810601E+02  0.00000000000E+00 0.  1.
         14    1    4    4    0    0 -0.51982486466E+02 -0.35331144485E+01 -0.16898748149E+03  0.17683730007E+03  0.00000000000E+00 0. -1.
        -13    1    3    3    0    0  0.53408819001E+02 -0.65117632893E+02 -0.75979278471E+01  0.84560845361E+02  0.00000000000E+00 0. -1.
         13    1    3    3    0    0 -0.20408877313E+02 -0.24074547543E+02  0.40444373844E+02  0.51301593427E+02  0.00000000000E+00 0.  1.
          1    1    1    2  501    0 -0.57110156043E+01  0.75569479248E+02 -0.29932951047E+02  0.81482166462E+02  0.00000000000E+00 0. -1.
<scales pt_clust_5="13000.00000" pt_clust_6="13000.00000" pt_clust_7="13000.00000" pt_clust_8="13000.00000" pt_clust_9="75.78501"></scales>
<clustering>
<clus scale="   75.785">  2  9  1 -1</clus>
<clus scale="   78.767">  5  6 -1 -1</clus>
<clus scale="   91.299">  7  8 -1 -1</clus>
<clus scale="  113.737">  2  5  1 -1</clus>
<clus scale="   75.785">  2  5  1 -1</clus>
</clustering>
</event>
<event>
 9    2  0.1654290E-004  0.1655025E+03  0.7546771E-02  0.1184265E+00
         -3   -1    0    0    0  501 -0.00000000000E+00  0.00000000000E+00  0.88611410045E+03  0.88611410045E+03  0.00000000000E+00 0.  1.
         21   -1    0    0  501  502  0.00000000000E+00 -0.00000000000E+00 -0.66869950277E+02  0.66869950277E+02  0.00000000000E+00 0.  1.
         24    2    1    2    0    0 -0.14673553272E+03 -0.38296585184E+01  0.72183650434E+03  0.74094573476E+03  0.80041614224E+02 0.  0.
         23    2    1    2    0    0  0.95769292235E+02  0.14651235756E+02  0.52117529208E+02  0.14300311577E+03  0.91363221402E+02 0.  0.
        -13    1    3    3    0    0 -0.71426096586E+02 -0.35991785163E+02  0.26423327995E+03  0.27607303763E+03  0.00000000000E+00 0.  1.
         14    1    3    3    0    0 -0.75309436133E+02  0.32162126645E+02  0.45760322439E+03  0.46487269713E+03  0.00000000000E+00 0. -1.
        -11    1    4    4    0    0  0.22697963760E+02  0.47421610789E+02  0.14574848537E+02  0.54556694718E+02  0.00000000000E+00 0. -1.
         11    1    4    4    0    0  0.73071328475E+02 -0.32770375034E+02  0.37542680671E+02  0.88446421052E+02  0.00000000000E+00 0.  1.
         -4    1    1    2    0  502  0.50966240484E+02 -0.10821577237E+02  0.45290116625E+02  0.69035200201E+02  0.00000000000E+00 0.  1.
<scales pt_clust_5="13000.00000" pt_clust_6="13000.00000" pt_clust_7="13000.00000" pt_clust_8="13000.00000" pt_clust_9="52.10244"></scales>
<clustering>
<clus scale="   52.102">  2  9  1 -1</clus>
<clus scale="   80.042">  5  6 -1 -1</clus>
<clus scale="   91.363">  7  8 -1 -1</clus>
<clus scale="  159.532">  1  5  2 -1</clus>
<clus scale="   52.102">  2  5  1 -1</clus>
</clustering>
</event>
<event>
 9    2  0.1654290E-004  0.2087489E+03  0.7546771E-02  0.1142925E+00
          2   -1    0    0  502    0 -0.00000000000E+00  0.00000000000E+00  0.12930081263E+04  0.12930081263E+04  0.00000000000E+00 0. -1.
         21   -1    0    0  501  502  0.00000000000E+00 -0.00000000000E+00 -0.63868509722E+02  0.63868509722E+02  0.00000000000E+00 0.  1.
         23    2    1    2    0    0  0.18258799595E+03  0.70182600546E+02  0.85208450244E+03  0.87917814103E+03  0.92963598707E+02 0.  0.
         24    2    1    2    0    0 -0.15413852123E+03 -0.78632204815E+02  0.39690267891E+03  0.44199563440E+03  0.88807077067E+02 0.  0.
        -13    1    4    4    0    0 -0.48834505374E+02 -0.58618474991E+02  0.96339849109E+02  0.12289141976E+03  0.00000000000E+00 0.  1.
         14    1    4    4    0    0 -0.10530401586E+03 -0.20013729824E+02  0.30056282980E+03  0.31910421463E+03  0.00000000000E+00 0. -1.
        -13    1    3    3    0    0  0.12953551939E+03  0.88400250025E+02  0.69208991857E+03  0.70963547711E+03  0.00000000000E+00 0.  1.
         13    1    3    3    0    0  0.53052476557E+02 -0.18217649479E+02  0.15999458387E+03  0.16954266392E+03  0.00000000000E+00 0. -1.
          1    1    1    2  501    0 -0.28449474715E+02  0.84496042690E+01 -0.19847564803E+02  0.35702860564E+02  0.00000000000E+00 0. -1.
<scales pt_clust_5="13000.00000" pt_clust_6="13000.00000" pt_clust_7="13000.00000" pt_clust_8="13000.00000" pt_clust_9="29.67774"></scales>
<clustering>
<clus scale="   29.678">  2  9  1 -1</clus>
<clus scale="   88.807">  5  6 -1 -1</clus>
<clus scale="   92.964">  7  8 -1 -1</clus>
<clus scale="  206.931">  2  5  1 -1</clus>
<clus scale="   29.678">  2  5  1 -1</clus>
</clustering>
</event>
<event>
 9    2  0.1654290E-004  0.1386076E+03  0.7546771E-02  0.1232551E+00
          2   -1    0    0  502    0 -0.00000000000E+00  0.00000000000E+00  0.57807628311E+03  0.57807628311E+03  0.00000000000E+00 0. -1.
         21   -1    0    0  501  502  0.00000000000E+00 -0.00000000000E+00 -0.77563068516E+02  0.77563068516E+02  0.00000000000E+00 0.  1.
         24    2    1    2    0    0  0.43384260694E+02  0.22894738069E+02  0.27399899026E+03  0.29050953522E+03  0.83150347449E+02 0.  0.
         23    2    1    2    0    0  0.65929833971E+02 -0.78621611384E+02  0.38839880510E+02  0.14090511877E+03  0.88417279946E+02 0.  0.
        -13    1    3    3    0    0  0.53763885127E+02  0.44951928478E+02  0.22689815427E+03  0.23747421676E+03  0.00000000000E+00 0.  1.
         14    1    3    3    0    0 -0.10379624433E+02 -0.22057190409E+02  0.47100835993E+02  0.53035318452E+02  0.00000000000E+00 0. -1.
        -11    1    4    4    0    0 -0.16578208267E+02 -0.26923561318E+02 -0.83547372880E+01  0.32703467378E+02  0.00000000000E+00 0. -1.
         11    1    4    4    0    0  0.82508042238E+02 -0.51698050066E+02  0.47194617798E+02  0.10820165139E+03  0.00000000000E+00 0.  1.
          1    1    1    2  501    0 -0.10931409466E+03  0.55726873316E+02  0.18767434382E+03  0.22422469764E+03  0.00000000000E+00 0. -1.
<scales pt_clust_5="13000.00000" pt_clust_6="13000.00000" pt_clust_7="13000.00000" pt_clust_8="13000.00000" pt_clust_9="106.74485"></scales>
<clustering>
<clus scale="   83.150">  5  6 -1 -1</clus>
<clus scale="   88.417">  7  8 -1 -1</clus>
<clus scale="   96.542">  1  5  2 -1</clus>
<clus scale="  106.745">  2  9  1 -1</clus>
<clus scale="  106.745">  2  5  1 -1</clus>
</clustering>
</event>
<event>
 9    2  0.1654290E-004  0.1782518E+03  0.7546771E-02  0.1171195E+00
          2   -1    0    0  502    0 -0.00000000000E+00  0.00000000000E+00  0.71432332502E+03  0.71432332502E+03  0.00000000000E+00 0. -1.
         21   -1    0    0  501  502  0.00000000000E+00 -0.00000000000E+00 -0.53397856984E+02  0.53397856984E+02  0.00000000000E+00 0. -1.
         24    2    1    2    0    0 -0.73644247799E+02 -0.14557519349E+03  0.35933067022E+03  0.40245785970E+03  0.78982188373E+02 0.  0.
         23    2    1    2    0    0  0.45725401869E+02  0.13358784303E+03  0.28316872739E+03  0.32972913312E+03  0.92737526805E+02 0.  0.
        -13    1    3    3    0    0 -0.34468944681E+02 -0.18980494037E+02  0.37264238946E+02  0.54194010790E+02  0.00000000000E+00 0.  1.
         14    1    3    3    0    0 -0.39175303118E+02 -0.12659469946E+03  0.32206643128E+03  0.34826384891E+03  0.00000000000E+00 0. -1.
        -11    1    4    4    0    0  0.62538530158E+02  0.40927471468E+02  0.12744684048E+03  0.14774580476E+03  0.00000000000E+00 0.  1.
         11    1    4    4    0    0 -0.16813128288E+02  0.92660371563E+02  0.15572188691E+03  0.18198332837E+03  0.00000000000E+00 0. -1.
          1    1    1    2  501    0  0.27918845930E+02  0.11987350461E+02  0.18426070426E+02  0.35534189177E+02  0.00000000000E+00 0. -1.
<scales pt_clust_5="13000.00000" pt_clust_6="13000.00000" pt_clust_7="13000.00000" pt_clust_8="13000.00000" pt_clust_9="30.38352"></scales>
<clustering>
<clus scale="   30.384">  2  9  1 -1</clus>
<clus scale="   78.982">  5  6 -1 -1</clus>
<clus scale="   92.738">  7  8 -1 -1</clus>
<clus scale="  171.498">  1  5  2 -1</clus>
<clus scale="   30.384">  2  5  1 -1</clus>
</clustering>
</event>
<event>
 9    2  0.1654290E-004  0.1332460E+03  0.7546771E-02  0.1225565E+00
         21   -1    0    0  501  502  0.00000000000E+00  0.00000000000E+00  0.47218335928E+02  0.47218335928E+02  0.00000000000E+00 0. -1.
         -1   -1    0    0    0  501 -0.00000000000E+00 -0.00000000000E+00 -0.62346439829E+03  0.62346439829E+03  0.00000000000E+00 0.  1.
         23    2    1    2    0    0 -0.95152645455E+02 -0.31936044263E+02 -0.41807674138E+03  0.43922365936E+03  0.89751459034E+02 0.  0.
         24    2    1    2    0    0  0.76847792984E+02  0.58196150198E+02 -0.81378681111E+02  0.14826374350E+03  0.77892700001E+02 0.  0.
        -13    1    4    4    0    0 -0.41641437002E+01  0.35778443148E+02 -0.84919186933E+01  0.37007428578E+02  0.00000000000E+00 0.  1.
         14    1    4    4    0    0  0.81011936684E+02  0.22417707049E+02 -0.72886762418E+02  0.11125631492E+03  0.00000000000E+00 0. -1.
        -11    1    3    3    0    0 -0.93339793199E+02 -0.56181146227E+02 -0.36354346968E+03  0.37951612947E+03  0.00000000000E+00 0.  1.
         11    1    3    3    0    0 -0.18128522562E+01  0.24245101964E+02 -0.54533271699E+02  0.59707529883E+02  0.00000000000E+00 0. -1.
         -2    1    1    2    0  502  0.18304852471E+02 -0.26260105934E+02 -0.76790639874E+02  0.83195331359E+02  0.00000000000E+00 0.  1.
<scales pt_clust_5="13000.00000" pt_clust_6="13000.00000" pt_clust_7="13000.00000" pt_clust_8="13000.00000" pt_clust_9="32.01034"></scales>
<clustering>
<clus scale="   32.010">  1  9  2 -1</clus>
<clus scale="   77.893">  5  6 -1 -1</clus>
<clus scale="   89.751">  7  8 -1 -1</clus>
<clus scale="  125.565">  1  5  2 -1</clus>
<clus scale="   32.010">  1  5  2 -1</clus>
</clustering>
</event>
<event>
 9    2  0.1654290E-004  0.1280465E+03  0.7546771E-02  0.1233267E+00
         -3   -1    0    0    0  501 -0.00000000000E+00  0.00000000000E+00  0.80255057969E+03  0.80255057969E+03  0.00000000000E+00 0.  1.
         21   -1    0    0  501  502  0.00000000000E+00 -0.00000000000E+00 -0.58050946110E+02  0.58050946110E+02  0.00000000000E+00 0.  1.
         24    2    1    2    0    0  0.64918565480E+02 -0.37939486371E+02  0.14695177419E+03  0.18364730865E+03  0.80484068395E+02 0.  0.
         23    2    1    2    0    0 -0.13123671763E+03 -0.10842981185E+02  0.14207435798E+03  0.21410009658E+03  0.91176103582E+02 0.  0.
        -13    1    3    3    0    0  0.78769250675E+02 -0.26650990400E+02  0.14288702639E+03  0.16532263140E+03  0.00000000000E+00 0.  1.
         14    1    3    3    0    0 -0.13850685195E+02 -0.11288495971E+02  0.40647477999E+01  0.18324677250E+02  0.00000000000E+00 0. -1.
        -13    1    4    4    0    0 -0.95369883466E+02 -0.12655078093E+02  0.37029762369E+02  0.10308622107E+03  0.00000000000E+00 0.  1.
         13    1    4    4    0    0 -0.35866834164E+02  0.18120969074E+01  0.10504459561E+03  0.11101387551E+03  0.00000000000E+00 0. -1.
         -4    1    1    2    0  502  0.66318152150E+02  0.48782467556E+02  0.45547350141E+03  0.46285412057E+03  0.00000000000E+00 0.  1.
<scales pt_clust_5="13000.00000" pt_clust_6="13000.00000" pt_clust_7="13000.00000" pt_clust_8="13000.00000" pt_clust_9="82.32760"></scales>
<clustering>
<clus scale="   80.484">  5  6 -1 -1</clus>
<clus scale="   82.328">  2  9  1 -1</clus>
<clus scale="   91.176">  7  8 -1 -1</clus>
<clus scale="  120.667">  1  5  2 -1</clus>
<clus scale="   82.328">  2  5  1 -1</clus>
</clustering>
</event>
<event>
 9    2  0.1654290E-004  0.1851713E+03  0.7546771E-02  0.1163902E+00
          2   -1    0    0  502    0 -0.00000000000E+00  0.00000000000E+00  0.99395507778E+02  0.99395507778E+02  0.00000000000E+00 0. -1.
         21   -1    0    0  501  502  0.00000000000E+00 -0.00000000000E+00 -0.11084286667E+04  0.11084286667E+04  0.00000000000E+00 0. -1.
         24    2    1    2    0    0 -0.71592523965E+02  0.15282887702E+03 -0.15148438442E+03  0.24093142625E+03  0.81352801385E+02 0.  0.
         23    2    1    2    0    0 -0.11846839020E+03 -0.11751875273E+03 -0.67336427152E+03  0.69988359650E+03  0.92586120779E+02 0.  0.
        -11    1    3    3    0    0  0.10384823600E+02  0.70045487032E+02 -0.55009773656E+02  0.89667664252E+02  0.00000000000E+00 0.  1.
         12    1    3    3    0    0 -0.81977347565E+02  0.82783389987E+02 -0.96474610763E+02  0.15126376200E+03  0.00000000000E+00 0. -1.
        -11    1    4    4    0    0 -0.12290349674E+02 -0.73063386895E+02 -0.30957793287E+03  0.31832029109E+03  0.00000000000E+00 0. -1.
         11    1    4    4    0    0 -0.10617804053E+03 -0.44455365832E+02 -0.36378633865E+03  0.38156330540E+03  0.00000000000E+00 0.  1.
          1    1    1    2  501    0  0.19006091417E+03 -0.35310124291E+02 -0.18418450298E+03  0.26700915173E+03  0.00000000000E+00 0. -1.
<scales pt_clust_5="13000.00000" pt_clust_6="13000.00000" pt_clust_7="13000.00000" pt_clust_8="13000.00000" pt_clust_9="157.87016"></scales>
<clustering>
<clus scale="   81.353">  5  6 -1 -1</clus>
<clus scale="   92.586">  7  8 -1 -1</clus>
<clus scale="  187.351">  1  5  2 -1</clus>
<clus scale="  157.870">  2  9  1 -1</clus>
<clus scale="  157.870">  2  5  1 -1</clus>
</clustering>
</event>
<event>
 9    2  0.1654290E-004  0.5743108E+03  0.7546771E-02  0.9960185E-01
          2   -1    0    0  502    0 -0.00000000000E+00  0.00000000000E+00  0.54034774758E+03  0.54034774758E+03  0.00000000000E+00 0. -1.
         21   -1    0    0  501  502  0.00000000000E+00 -0.00000000000E+00 -0.57615864280E+03  0.57615864280E+03  0.00000000000E+00 0. -1.
         24    2    1    2    0    0  0.50342840569E+02 -0.88732783786E+02  0.19173907657E+02  0.13164856166E+03  0.80967873497E+02 0.  0.
         23    2    1    2    0    0  0.36156869095E+03 -0.21173059958E+03 -0.17011931560E+03  0.46216737485E+03  0.95374712354E+02 0.  0.
        -13    1    3    3    0    0  0.42148856046E+02 -0.10408434715E+03  0.20676610351E+02  0.11418230862E+03  0.00000000000E+00 0.  1.
         14    1    3    3    0    0  0.81939845223E+01  0.15351563360E+02 -0.15027026932E+01  0.17466253042E+02  0.00000000000E+00 0. -1.
        -13    1    4    4    0    0  0.29527731544E+03 -0.14973184903E+03 -0.95231235833E+02  0.34449572988E+03  0.00000000000E+00 0. -1.
         13    1    4    4    0    0  0.66291375506E+02 -0.61998750556E+02 -0.74888079771E+02  0.11767164496E+03  0.00000000000E+00 0.  1.
          1    1    1    2  501    0 -0.41191153152E+03  0.30046338337E+03  0.11513451273E+03  0.52269045387E+03  0.00000000000E+00 0. -1.
<scales pt_clust_5="13000.00000" pt_clust_6="13000.00000" pt_clust_7="13000.00000" pt_clust_8="13000.00000" pt_clust_9="509.85254"></scales>
<clustering>
<clus scale="   80.968">  5  6 -1 -1</clus>
<clus scale="   95.375">  7  8 -1 -1</clus>
<clus scale="  125.030">  5  7 -1 -1</clus>
<clus scale="  509.853">  2  9  1 -1</clus>
<clus scale="  509.853">  2  5  1 -1</clus>
</clustering>
</event>
<event>
 9    2  0.1654290E-004  0.1286842E+03  0.7546771E-02  0.1232005E+00
         -1   -1    0    0    0  501 -0.00000000000E+00  0.00000000000E+00  0.70072644149E+03  0.70072644149E+03  0.00000000000E+00 0.  1.
         21   -1    0    0  501  502  0.00000000000E+00 -0.00000000000E+00 -0.46062219507E+02  0.46062219507E+02  0.00000000000E+00 0. -1.
         23    2    1    2    0    0  0.55189001225E+02  0.79790815638E+02  0.55793510292E+03  0.57345292618E+03  0.90245661149E+02 0.  0.
         24    2    1    2    0    0 -0.22299277740E+02 -0.70309966166E+02  0.67506087403E+02  0.12832900202E+03  0.80439491504E+02 0.  0.
        -13    1    4    4    0    0  0.23256200017E+02 -0.32131082373E+02  0.17678316084E+01  0.39703683989E+02  0.00000000000E+00 0.  1.
         14    1    4    4    0    0 -0.45555477758E+02 -0.38178883792E+02  0.65738255795E+02  0.88625318032E+02  0.00000000000E+00 0. -1.
        -13    1    3    3    0    0  0.30289389805E+02  0.97389182431E+02  0.42527886821E+03  0.43733764500E+03  0.00000000000E+00 0.  1.
         13    1    3    3    0    0  0.24899611420E+02 -0.17598366792E+02  0.13265623471E+03  0.13611528118E+03  0.00000000000E+00 0. -1.
         -2    1    1    2    0  502 -0.32889723485E+02 -0.94808494726E+01  0.29223031660E+02  0.45006732797E+02  0.00000000000E+00 0.  1.
<scales pt_clust_5="13000.00000" pt_clust_6="13000.00000" pt_clust_7="13000.00000" pt_clust_8="13000.00000" pt_clust_9="34.22894"></scales>
<clustering>
<clus scale="   34.229">  2  9  1 -1</clus>
<clus scale="   80.439">  5  6 -1 -1</clus>
<clus scale="   90.246">  7  8 -1 -1</clus>
<clus scale="  122.008">  2  5  1 -1</clus>
<clus scale="   34.229">  2  5  1 -1</clus>
</clustering>
</event>
<event>
 9    2  0.1654290E-004  0.1004146E+03  0.7546771E-02  0.1285710E+00
         21   -1    0    0  501  502  0.00000000000E+00  0.00000000000E+00  0.11802562741E+03  0.11802562741E+03  0.00000000000E+00 0. -1.
          4   -1    0    0  502    0 -0.00000000000E+00 -0.00000000000E+00 -0.17376327324E+03  0.17376327324E+03  0.00000000000E+00 0. -1.
         24    2    1    2    0    0 -0.10730167108E+02 -0.44239374449E+02 -0.11617317756E+03  0.14779249127E+03  0.79209560997E+02 0.  0.
         23    2    1    2    0    0 -0.65156651893E+01  0.25163080439E+02  0.22131669954E+02  0.97860636369E+02  0.91712915261E+02 0.  0.
        -13    1    3    3    0    0  0.98422848054E+01  0.19344902106E+02 -0.14429729372E+02  0.26063631701E+02  0.00000000000E+00 0.  1.
         14    1    3    3    0    0 -0.20572451914E+02 -0.63584276555E+02 -0.10174344819E+03  0.12172885957E+03  0.00000000000E+00 0. -1.
        -13    1    4    4    0    0 -0.20946425798E+02  0.53276467513E+02  0.30916867168E+02  0.65061412680E+02  0.00000000000E+00 0.  1.
         13    1    4    4    0    0  0.14430760609E+02 -0.28113387074E+02 -0.87851972139E+01  0.32799223689E+02  0.00000000000E+00 0. -1.
          3    1    1    2  501    0  0.17245832298E+02  0.19076294009E+02  0.38303861775E+02  0.46135773014E+02  0.00000000000E+00 0. -1.
<scales pt_clust_5="13000.00000" pt_clust_6="13000.00000" pt_clust_7="13000.00000" pt_clust_8="13000.00000" pt_clust_9="25.71622"></scales>
<clustering>
<clus scale="   25.716">  1  9  2 -1</clus>
<clus scale="   79.210">  5  6 -1 -1</clus>
<clus scale="   89.140">  2  5  1 -1</clus>
<clus scale="   91.713">  7  8 -1 -1</clus>
<clus scale="   25.716">  1  5  2 -1</clus>
</clustering>
</event>
<event>
 9    2  0.1654290E-004  0.2221821E+03  0.7546771E-02  0.1132267E+00
          2   -1    0    0  502    0 -0.00000000000E+00  0.00000000000E+00  0.29301009366E+03  0.29301009366E+03  0.00000000000E+00 0. -1.
         21   -1    0    0  501  502  0.00000000000E+00 -0.00000000000E+00 -0.19532137156E+03  0.19532137156E+03  0.00000000000E+00 0. -1.
         24    2    1    2    0    0  0.72885044456E+02  0.11235418931E+02  0.12540133756E+03  0.16650612372E+03  0.80995860593E+02 0.  0.
         23    2    1    2    0    0  0.41707870227E+02  0.46842338897E+02  0.93357915130E+02  0.14529592347E+03  0.91986161501E+02 0.  0.
        -13    1    3    3    0    0  0.17948149412E+02 -0.11225427442E+02 -0.62684123174E+01  0.22078027121E+02  0.00000000000E+00 0.  1.
         14    1    3    3    0    0  0.54936895044E+02  0.22460846374E+02  0.13166974987E+03  0.14442809660E+03  0.00000000000E+00 0. -1.
        -11    1    4    4    0    0  0.64229772376E+02  0.55357615112E+02  0.58835915592E+02  0.10320656071E+03  0.00000000000E+00 0.  1.
         11    1    4    4    0    0 -0.22521902149E+02 -0.85152762147E+01  0.34521999538E+02  0.42089362760E+02  0.00000000000E+00 0. -1.
          1    1    1    2  501    0 -0.11459291468E+03 -0.58077757828E+02 -0.12107053059E+03  0.17652941802E+03  0.00000000000E+00 0. -1.
<scales pt_clust_5="13000.00000" pt_clust_6="13000.00000" pt_clust_7="13000.00000" pt_clust_8="13000.00000" pt_clust_9="128.47008"></scales>
<clustering>
<clus scale="   80.996">  5  6 -1 -1</clus>
<clus scale="   91.986">  7  8 -1 -1</clus>
<clus scale="  101.738">  5  7 -1 -1</clus>
<clus scale="  128.470">  2  9  1 -1</clus>
<clus scale="  128.470">  2  5  1 -1</clus>
</clustering>
</event>
<event>
 9    2  0.1654290E-004  0.3905135E+03  0.7546771E-02  0.1077301E+00
          2   -1    0    0  502    0 -0.00000000000E+00  0.00000000000E+00  0.22879890606E+03  0.22879890606E+03  0.00000000000E+00 0. -1.
         21   -1    0    0  501  502  0.00000000000E+00 -0.00000000000E+00 -0.11060315408E+04  0.11060315408E+04  0.00000000000E+00 0.  1.
         23    2    1    2    0    0  0.11075950740E+03 -0.87753023011E+02 -0.63779226564E+02  0.18003427168E+03  0.91522061340E+02 0.  0.
         24    2    1    2    0    0  0.32228939169E+03  0.14973292232E+03 -0.48643153066E+03  0.60861290438E+03  0.86623514953E+02 0.  0.
        -13    1    4    4    0    0  0.30317135831E+03  0.16009229351E+03 -0.46777445809E+03  0.57996151474E+03  0.00000000000E+00 0.  1.
         14    1    4    4    0    0  0.19118033371E+02 -0.10359371189E+02 -0.18657072570E+02  0.28651389639E+02  0.00000000000E+00 0. -1.
        -11    1    3    3    0    0  0.16244326576E+02  0.12818975750E+02  0.10604045075E+02  0.23251882873E+02  0.00000000000E+00 0. -1.
         11    1    3    3    0    0  0.94515180825E+02 -0.10057199876E+03 -0.74383271639E+02  0.15678238881E+03  0.00000000000E+00 0.  1.
          1    1    1    2  501    0 -0.43304889909E+03 -0.61979899306E+02 -0.32702187749E+03  0.54618327078E+03  0.00000000000E+00 0. -1.
<scales pt_clust_5="13000.00000" pt_clust_6="13000.00000" pt_clust_7="13000.00000" pt_clust_8="13000.00000" pt_clust_9="380.78508"></scales>
<clustering>
<clus scale="   86.624">  5  6 -1 -1</clus>
<clus scale="   91.522">  7  8 -1 -1</clus>
<clus scale="  168.358">  1  7  2 -1</clus>
<clus scale="  380.785">  2  9  1 -1</clus>
<clus scale="  380.785">  2  5  1 -1</clus>
</clustering>
</event>
<event>
 9    2  0.1654290E-004  0.1280200E+03  0.7546771E-02  0.1233734E+00
         -1   -1    0    0    0  501 -0.00000000000E+00  0.00000000000E+00  0.15262715553E+03  0.15262715553E+03  0.00000000000E+00 0.  1.
         21   -1    0    0  501  502  0.00000000000E+00 -0.00000000000E+00 -0.20838203834E+03  0.20838203834E+03  0.00000000000E+00 0.  1.
         24    2    1    2    0    0 -0.11481715557E+02 -0.11235618266E+03  0.92055099993E+01  0.13907884056E+03  0.80637713898E+02 0.  0.
         23    2    1    2    0    0  0.41550658005E+02  0.38483150301E+02 -0.87022347092E+02  0.13917712958E+03  0.92682115142E+02 0.  0.
        -13    1    3    3    0    0 -0.39690976359E+02 -0.97546798994E+02  0.15946743799E+02  0.10651314584E+03  0.00000000000E+00 0.  1.
         14    1    3    3    0    0  0.28209260802E+02 -0.14809383666E+02 -0.67412338000E+01  0.32565694722E+02  0.00000000000E+00 0. -1.
        -11    1    4    4    0    0  0.63248531245E+02  0.17080514342E+02 -0.86736521117E+02  0.10869841200E+03  0.00000000000E+00 0.  1.
         11    1    4    4    0    0 -0.21697873241E+02  0.21402635958E+02 -0.28582597484E+00  0.30478717585E+02  0.00000000000E+00 0. -1.
         -2    1    1    2    0  502 -0.30068942448E+02  0.73873032359E+02  0.22061954284E+02  0.82753223724E+02  0.00000000000E+00 0.  1.
<scales pt_clust_5="13000.00000" pt_clust_6="13000.00000" pt_clust_7="13000.00000" pt_clust_8="13000.00000" pt_clust_9="79.75821"></scales>
<clustering>
<clus scale="   79.758">  2  9  1 -1</clus>
<clus scale="   80.638">  5  6 -1 -1</clus>
<clus scale="   92.682">  7  8 -1 -1</clus>
<clus scale="  119.589">  1  5  2 -1</clus>
<clus scale="   79.758">  2  5  1 -1</clus>
</clustering>
</event>
<event>
 9    2  0.1654290E-004  0.3067141E+03  0.7546771E-02  0.1116746E+00
          2   -1    0    0  502    0 -0.00000000000E+00  0.00000000000E+00  0.13441514964E+03  0.13441514964E+03  0.00000000000E+00 0. -1.
         21   -1    0    0  501  502  0.00000000000E+00 -0.00000000000E+00 -0.10824618249E+04  0.10824618249E+04  0.00000000000E+00 0.  1.
         24    2    1    2    0    0  0.78449148773E+02  0.53544909873E+02 -0.29466301830E+03  0.31973723195E+03  0.79901669727E+02 0.  0.
         23    2    1    2    0    0  0.12898793460E+03  0.19799787129E+03 -0.14864414573E+03  0.29625215867E+03  0.99142398329E+02 0.  0.
        -11    1    3    3    0    0  0.89473257776E+02  0.60884656311E+02 -0.23650682717E+03  0.26009206934E+03  0.00000000000E+00 0.  1.
         12    1    3    3    0    0 -0.11024109003E+02 -0.73397464386E+01 -0.58156191129E+02  0.59645162618E+02  0.00000000000E+00 0. -1.
        -11    1    4    4    0    0  0.11120881994E+03  0.11715127714E+03 -0.53546731577E+02  0.17017366374E+03  0.00000000000E+00 0. -1.
         11    1    4    4    0    0  0.17779114657E+02  0.80846594155E+02 -0.95097414156E+02  0.12607849493E+03  0.00000000000E+00 0.  1.
          1    1    1    2  501    0 -0.20743708337E+03 -0.25154278117E+03 -0.50473951117E+03  0.60088758387E+03  0.00000000000E+00 0. -1.
<scales pt_clust_5="13000.00000" pt_clust_6="13000.00000" pt_clust_7="13000.00000" pt_clust_8="13000.00000" pt_clust_9="290.24875"></scales>
<clustering>
<clus scale="   79.902">  5  6 -1 -1</clus>
<clus scale="   99.142">  7  8 -1 -1</clus>
<clus scale="  124.119">  1  5  2 -1</clus>
<clus scale="  290.249">  2  9  1 -1</clus>
<clus scale="  290.249">  2  5  1 -1</clus>
</clustering>
</event>
<event>
 9    2  0.1654290E-004  0.1072368E+03  0.7546771E-02  0.1270310E+00
         -3   -1    0    0    0  501 -0.00000000000E+00  0.00000000000E+00  0.39967259870E+03  0.39967259870E+03  0.00000000000E+00 0.  1.
         21   -1    0    0  501  502  0.00000000000E+00 -0.00000000000E+00 -0.38665411847E+02  0.38665411847E+02  0.00000000000E+00 0. -1.
         24    2    1    2    0    0  0.36851057468E+02  0.48459323374E+02  0.23828614741E+03  0.25874138789E+03  0.80377305864E+02 0.  0.
         23    2    1    2    0    0 -0.15766088387E+02 -0.47251677967E+02  0.11928823196E+03  0.15819992909E+03  0.91193446402E+02 0.  0.
        -11    1    3    3    0    0  0.33287451759E+02  0.11906691433E+02  0.20844092950E+03  0.21141770227E+03  0.00000000000E+00 0.  1.
         12    1    3    3    0    0  0.35636057095E+01  0.36552631940E+02  0.29845217916E+02  0.47323685612E+02  0.00000000000E+00 0. -1.
        -13    1    4    4    0    0 -0.38577177600E+02 -0.32378855554E+02  0.18270395268E+02  0.53576079194E+02  0.00000000000E+00 0. -1.
         13    1    4    4    0    0  0.22811089212E+02 -0.14872822413E+02  0.10101783669E+03  0.10462384990E+03  0.00000000000E+00 0.  1.
         -4    1    1    2    0  502 -0.21084969081E+02 -0.12076454067E+01  0.34328074816E+01  0.21396693571E+02  0.00000000000E+00 0.  1.
<scales pt_clust_5="13000.00000" pt_clust_6="13000.00000" pt_clust_7="13000.00000" pt_clust_8="13000.00000" pt_clust_9="21.11952"></scales>
<clustering>
<clus scale="   21.120">  2  9  1 -1</clus>
<clus scale="   80.377">  5  6 -1 -1</clus>
<clus scale="   91.193">  7  8 -1 -1</clus>
<clus scale="   98.204">  1  5  2 -1</clus>
<clus scale="   21.120">  2  5  1 -1</clus>
</clustering>
</event>
<event>
 9    2  0.1654290E-004  0.9575189E+02  0.7546771E-02  0.1295863E+00
          2   -1    0    0  502    0 -0.00000000000E+00  0.00000000000E+00  0.10204042693E+03  0.10204042693E+03  0.00000000000E+00 0. -1.
         21   -1    0    0  501  502  0.00000000000E+00 -0.00000000000E+00 -0.13361127804E+03  0.13361127804E+03  0.00000000000E+00 0. -1.
         24    2    1    2    0    0  0.26736629664E+02  0.20760267109E+02 -0.11204226180E+02  0.88510279505E+02  0.81010485973E+02 0.  0.
         23    2    1    2    0    0 -0.24618051584E+02  0.24489720559E+02 -0.24870566323E+02  0.10161851645E+03  0.92206197944E+02 0.  0.
        -13    1    3    3    0    0  0.47678797982E+02 -0.11766936464E+02 -0.58991134596E+01  0.49462390867E+02  0.00000000000E+00 0.  1.
         14    1    3    3    0    0 -0.20942168317E+02  0.32527203572E+02 -0.53051127201E+01  0.39047888637E+02  0.00000000000E+00 0. -1.
        -13    1    4    4    0    0 -0.82565510617E+01  0.36120995531E+02 -0.54455550601E+02  0.65865802544E+02  0.00000000000E+00 0. -1.
         13    1    4    4    0    0 -0.16361500523E+02 -0.11631274972E+02  0.29584984278E+02  0.35752713905E+02  0.00000000000E+00 0.  1.
          1    1    1    2  501    0 -0.21185780800E+01 -0.45249987668E+02  0.45039413943E+01  0.45522909014E+02  0.00000000000E+00 0. -1.
<scales pt_clust_5="13000.00000" pt_clust_6="13000.00000" pt_clust_7="13000.00000" pt_clust_8="13000.00000" pt_clust_9="45.29958"></scales>
<clustering>
<clus scale="   45.300">  2  9  1 -1</clus>
<clus scale="   81.010">  5  6 -1 -1</clus>
<clus scale="   85.024">  1  5  2 -1</clus>
<clus scale="   92.206">  7  8 -1 -1</clus>
<clus scale="   45.300">  2  5  1 -1</clus>
</clustering>
</event>
<event>
 9    2  0.1654290E-004  0.1313746E+03  0.7546771E-02  0.1244417E+00
         21   -1    0    0  501  502  0.00000000000E+00  0.00000000000E+00  0.30569764561E+03  0.30569764561E+03  0.00000000000E+00 0.  1.
         -1   -1    0    0    0  501 -0.00000000000E+00 -0.00000000000E+00 -0.11503657307E+03  0.11503657307E+03  0.00000000000E+00 0.  1.
         24    2    1    2    0    0 -0.45803182815E+01  0.37676207450E+02 -0.39685007311E+02  0.97490488652E+02  0.80554451454E+02 0.  0.
         23    2    1    2    0    0 -0.68998708548E+02  0.36300982673E+02  0.12192593839E+03  0.17277305208E+03  0.94371658609E+02 0.  0.
        -11    1    3    3    0    0  0.10840958088E+02  0.60363200729E+02 -0.23757077098E+02  0.65769606102E+02  0.00000000000E+00 0.  1.
         12    1    3    3    0    0 -0.15421276370E+02 -0.22686993279E+02 -0.15927930212E+02  0.31720882550E+02  0.00000000000E+00 0. -1.
        -11    1    4    4    0    0  0.17459492133E+02  0.26946653461E+02  0.52307917266E+02  0.61376495558E+02  0.00000000000E+00 0. -1.
         11    1    4    4    0    0 -0.86458200681E+02  0.93543292122E+01  0.69618021127E+02  0.11139655652E+03  0.00000000000E+00 0.  1.
         -2    1    1    2    0  502  0.73579026829E+02 -0.73977190123E+02  0.10842014146E+03  0.15047067795E+03  0.00000000000E+00 0.  1.
<scales pt_clust_5="13000.00000" pt_clust_6="13000.00000" pt_clust_7="13000.00000" pt_clust_8="13000.00000" pt_clust_9="91.39635"></scales>
<clustering>
<clus scale="   80.554">  5  6 -1 -1</clus>
<clus scale="   89.048">  2  5  1 -1</clus>
<clus scale="   91.396">  1  9  2 -1</clus>
<clus scale="   94.372">  7  8 -1 -1</clus>
<clus scale="   91.396">  1  5  2 -1</clus>
</clustering>
</event>
<event>
 9    2  0.1654290E-004  0.3798474E+03  0.7546771E-02  0.1051222E+00
          2   -1    0    0  502    0 -0.00000000000E+00  0.00000000000E+00  0.16646857587E+04  0.16646857587E+04  0.00000000000E+00 0. -1.
         21   -1    0    0  501  502  0.00000000000E+00 -0.00000000000E+00 -0.14388789464E+03  0.14388789464E+03  0.00000000000E+00 0.  1.
         23    2    1    2    0    0  0.99136601975E+02 -0.34863030239E+03  0.11858081758E+04  0.12433471683E+04  0.91651500579E+02 0.  0.
         24    2    1    2    0    0 -0.95668154579E+02  0.37573385612E+03  0.35460781300E+03  0.53158865558E+03  0.80693687926E+02 0.  0.
        -13    1    4    4    0    0 -0.87483421468E+01  0.17590339185E+03  0.18517298159E+03  0.25555345794E+03  0.00000000000E+00 0.  1.
         14    1    4    4    0    0 -0.86919812432E+02  0.19983046427E+03  0.16943483141E+03  0.27603519764E+03  0.00000000000E+00 0. -1.
        -11    1    3    3    0    0  0.36787488368E+02 -0.11477766419E+03  0.54957140128E+03  0.56263305680E+03  0.00000000000E+00 0. -1.
         11    1    3    3    0    0  0.62349113607E+02 -0.23385263820E+03  0.63623677448E+03  0.68071411148E+03  0.00000000000E+00 0.  1.
          1    1    1    2  501    0 -0.34684473960E+01 -0.27103553729E+02 -0.19618124727E+02  0.33637829446E+02  0.00000000000E+00 0. -1.
<scales pt_clust_5="13000.00000" pt_clust_6="13000.00000" pt_clust_7="13000.00000" pt_clust_8="13000.00000" pt_clust_9="27.32458"></scales>
<clustering>
<clus scale="   27.325">  2  9  1 -1</clus>
<clus scale="   80.694">  5  6 -1 -1</clus>
<clus scale="   91.652">  7  8 -1 -1</clus>
<clus scale="  377.353">  2  5  1 -1</clus>
<clus scale="   27.325">  2  5  1 -1</clus>
</clustering>
</event>
<event>
 9    2  0.1654290E-004  0.1206600E+03  0.7546771E-02  0.1248642E+00
         21   -1    0    0  501  502  0.00000000000E+00  0.00000000000E+00  0.53387370473E+02  0.53387370473E+02  0.00000000000E+00 0. -1.
          2   -1    0    0  502    0 -0.00000000000E+00 -0.00000000000E+00 -0.46281811087E+03  0.46281811087E+03  0.00000000000E+00 0. -1.
         23    2    1    2    0    0 -0.63490341476E+02  0.34137123413E+02 -0.32954172472E+03  0.35186133194E+03  0.10006139080E+03 0.  0.
         24    2    1    2    0    0  0.63160149187E+02  0.40664903989E+01 -0.71075674835E+02  0.12513573051E+03  0.81249361272E+02 0.  0.
        -11    1    4    4    0    0  0.80264522611E+02  0.14768320366E+01 -0.71966501003E+02  0.10781350513E+03  0.00000000000E+00 0.  1.
         12    1    4    4    0    0 -0.17104373424E+02  0.25896583623E+01  0.89082616769E+00  0.17322225374E+02  0.00000000000E+00 0. -1.
        -11    1    3    3    0    0 -0.58963561378E+02 -0.18104491629E+02 -0.10969022492E+03  0.12584283702E+03  0.00000000000E+00 0.  1.
         11    1    3    3    0    0 -0.45267800980E+01  0.52241615042E+02 -0.21985149980E+03  0.22601849492E+03  0.00000000000E+00 0. -1.
          1    1    1    2  501    0  0.33019228873E+00 -0.38203613812E+02 -0.88133408416E+01  0.39208418892E+02  0.00000000000E+00 0. -1.
<scales pt_clust_5="13000.00000" pt_clust_6="13000.00000" pt_clust_7="13000.00000" pt_clust_8="13000.00000" pt_clust_9="38.20504"></scales>
<clustering>
<clus scale="   38.205">  1  9  2 -1</clus>
<clus scale="   81.249">  5  6 -1 -1</clus>
<clus scale="  100.061">  7  8 -1 -1</clus>
<clus scale="  105.584">  1  5  2 -1</clus>
<clus scale="   38.205">  1  5  2 -1</clus>
</clustering>
</event>
<event>
 9    2  0.1654290E-004  0.1572763E+03  0.7546771E-02  0.1193579E+00
         21   -1    0    0  501  502  0.00000000000E+00  0.00000000000E+00  0.13145040480E+03  0.13145040480E+03  0.00000000000E+00 0. -1.
          2   -1    0    0  502    0 -0.00000000000E+00 -0.00000000000E+00 -0.38255414675E+03  0.38255414675E+03  0.00000000000E+00 0. -1.
         24    2    1    2    0    0 -0.26759547730E+02 -0.10361627620E+03 -0.12341582729E+03  0.18213805809E+03  0.80563016896E+02 0.  0.
         23    2    1    2    0    0 -0.37242020118E+02  0.17208000670E+03 -0.13164197192E+03  0.23806288132E+03  0.91355513926E+02 0.  0.
        -11    1    3    3    0    0  0.36083657133E+01 -0.86545886998E+02 -0.47920895283E+02  0.98993045534E+02  0.00000000000E+00 0.  1.
         12    1    3    3    0    0 -0.30367913444E+02 -0.17070389200E+02 -0.75494932005E+02  0.83145012555E+02  0.00000000000E+00 0. -1.
        -13    1    4    4    0    0  0.28499345337E+02  0.28051148570E+02 -0.24587980519E+02  0.46943033634E+02  0.00000000000E+00 0.  1.
         13    1    4    4    0    0 -0.65741365454E+02  0.14402885813E+03 -0.10705399140E+03  0.19111984769E+03  0.00000000000E+00 0. -1.
          1    1    1    2  501    0  0.64001567848E+02 -0.68463730501E+02  0.39540572537E+01  0.93803612137E+02  0.00000000000E+00 0. -1.
<scales pt_clust_5="13000.00000" pt_clust_6="13000.00000" pt_clust_7="13000.00000" pt_clust_8="13000.00000" pt_clust_9="93.72024"></scales>
<clustering>
<clus scale="   80.563">  5  6 -1 -1</clus>
<clus scale="   91.356">  7  8 -1 -1</clus>
<clus scale="   93.720">  1  9  2 -1</clus>
<clus scale="  151.263">  2  5  1 -1</clus>
<clus scale="   93.720">  1  5  2 -1</clus>
</clustering>
</event>
<event>
 9    2  0.1654290E-004  0.3070372E+03  0.7546771E-02  0.1091912E+00
         21   -1    0    0  501  502  0.00000000000E+00  0.00000000000E+00  0.46247015058E+03  0.46247015058E+03  0.00000000000E+00 0. -1.
          2   -1    0    0  502    0 -0.00000000000E+00 -0.00000000000E+00 -0.43305183760E+03  0.43305183760E+03  0.00000000000E+00 0. -1.
         24    2    1    2    0    0 -0.12482392584E+03  0.18292125061E+03 -0.41375018053E+02  0.23810986466E+03  0.77092276783E+02 0.  0.
         23    2    1    2    0    0  0.36458342303E+03 -0.17077109317E+03  0.50798025327E+02  0.41651369043E+03  0.93911534588E+02 0.  0.
        -11    1    3    3    0    0 -0.10153976586E+03  0.86910294117E+02 -0.82468413447E+01  0.13390942337E+03  0.00000000000E+00 0.  1.
         12    1    3    3    0    0 -0.23284159985E+02  0.96010956494E+02 -0.33128176708E+02  0.10420044129E+03  0.00000000000E+00 0. -1.
        -13    1    4    4    0    0  0.28235750469E+03 -0.92273548744E+02  0.57782118997E+02  0.30262012743E+03  0.00000000000E+00 0. -1.
         13    1    4    4    0    0  0.82225918335E+02 -0.78497544422E+02 -0.69840936700E+01  0.11389356299E+03  0.00000000000E+00 0.  1.
          1    1    1    2  501    0 -0.23975949718E+03 -0.12150157445E+02  0.19995305707E+02  0.24089843309E+03  0.00000000000E+00 0. -1.
<scales pt_clust_5="13000.00000" pt_clust_6="13000.00000" pt_clust_7="13000.00000" pt_clust_8="13000.00000" pt_clust_9="292.32249"></scales>
<clustering>
<clus scale="   77.092">  5  6 -1 -1</clus>
<clus scale="   93.912">  7  8 -1 -1</clus>
<clus scale="  234.488">  2  5  1 -1</clus>
<clus scale="  292.322">  1  9  2 -1</clus>
<clus scale="  292.322">  1  5  2 -1</clus>
</clustering>
</event>
<event>
 9    2  0.1654290E-004  0.1015338E+03  0.7546771E-02  0.1281333E+00
          2   -1    0    0  502    0 -0.00000000000E+00  0.00000000000E+00  0.59705017587E+03  0.59705017587E+03  0.00000000000E+00 0. -1.
         21   -1    0    0  501  502  0.00000000000E+00 -0.00000000000E+00 -0.48757295515E+02  0.48757295515E+02  0.00000000000E+00 0.  1.
         24    2    1    2    0    0  0.44675301949E+02 -0.16631240210E+01  0.50445249788E+03  0.51328780120E+03  0.83626524853E+02 0.  0.
         23    2    1    2    0    0 -0.20398913061E+02 -0.71569455339E+01  0.19089446526E+02  0.96746139263E+02  0.92347555301E+02 0.  0.
        -13    1    3    3    0    0 -0.24303223925E+02  0.17975876659E+01  0.96452168581E+02  0.99483158568E+02  0.00000000000E+00 0.  1.
         14    1    3    3    0    0  0.68978525875E+02 -0.34607116869E+01  0.40800032929E+03  0.41380464263E+03  0.00000000000E+00 0. -1.
        -11    1    4    4    0    0 -0.35181515890E+02  0.12918619823E+02  0.46480384345E+02  0.59708089295E+02  0.00000000000E+00 0. -1.
         11    1    4    4    0    0  0.14782602829E+02 -0.20075565357E+02 -0.27390937819E+02  0.37038049968E+02  0.00000000000E+00 0.  1.
          1    1    1    2  501    0 -0.24276388888E+02  0.88200695549E+01  0.24750935958E+02  0.35773530930E+02  0.00000000000E+00 0. -1.
<scales pt_clust_5="13000.00000" pt_clust_6="13000.00000" pt_clust_7="13000.00000" pt_clust_8="13000.00000" pt_clust_9="25.82899"></scales>
<clustering>
<clus scale="   25.829">  2  9  1 -1</clus>
<clus scale="   83.627">  5  6 -1 -1</clus>
<clus scale="   92.348">  7  8 -1 -1</clus>
<clus scale="   93.672">  1  5  2 -1</clus>
<clus scale="   25.829">  2  5  1 -1</clus>
</clustering>
</event>
<event>
 9    2  0.1654290E-004  0.1181288E+03  0.7546771E-02  0.1253967E+00
         -1   -1    0    0    0  501 -0.00000000000E+00  0.00000000000E+00  0.54446855214E+03  0.54446855214E+03  0.00000000000E+00 0.  1.
         21   -1    0    0  501  502  0.00000000000E+00 -0.00000000000E+00 -0.44782138008E+02  0.44782138008E+02  0.00000000000E+00 0. -1.
         24    2    1    2    0    0  0.18013226503E+02 -0.34131509849E+02  0.11079307467E+03  0.14236732887E+03  0.80646851394E+02 0.  0.
         23    2    1    2    0    0 -0.83149266324E+02  0.53774712486E+02  0.19162985594E+03  0.23821750153E+03  0.10109429339E+03 0.  0.
        -13    1    3    3    0    0  0.16508883367E+02 -0.57825328689E+02  0.99060920778E+02  0.11588519273E+03  0.00000000000E+00 0.  1.
         14    1    3    3    0    0  0.15043431358E+01  0.23693818840E+02  0.11732153893E+02  0.26482136139E+02  0.00000000000E+00 0. -1.
        -11    1    4    4    0    0  0.16630600609E+02  0.30781559415E+02  0.76623059430E+02  0.84232858868E+02  0.00000000000E+00 0.  1.
         11    1    4    4    0    0 -0.99779866933E+02  0.22993153071E+02  0.11500679650E+03  0.15398464266E+03  0.00000000000E+00 0. -1.
         -2    1    1    2    0  502  0.65136039821E+02 -0.19643202637E+02  0.19726348353E+03  0.20866585976E+03  0.00000000000E+00 0.  1.
<scales pt_clust_5="13000.00000" pt_clust_6="13000.00000" pt_clust_7="13000.00000" pt_clust_8="13000.00000" pt_clust_9="68.03355"></scales>
<clustering>
<clus scale="   68.034">  2  9  1 -1</clus>
<clus scale="   80.647">  5  6 -1 -1</clus>
<clus scale="  101.094">  7  8 -1 -1</clus>
<clus scale="  101.184">  1  5  2 -1</clus>
<clus scale="   68.034">  2  5  1 -1</clus>
</clustering>
</event>
<event>
 9    2  0.1654290E-004  0.1733190E+03  0.7546771E-02  0.1192152E+00
         21   -1    0    0  501  502  0.00000000000E+00  0.00000000000E+00  0.41261614293E+02  0.41261614293E+02  0.00000000000E+00 0. -1.
          2   -1    0    0  502    0 -0.00000000000E+00 -0.00000000000E+00 -0.12466559633E+04  0.12466559633E+04  0.00000000000E+00 0. -1.
         23    2    1    2    0    0  0.71056570016E+02 -0.22008564510E+02 -0.31552276188E+03  0.33638830054E+03  0.89827960135E+02 0.  0.
         24    2    1    2    0    0 -0.18832635040E+03  0.20869505483E+02 -0.42417445498E+03  0.47129254612E+03  0.79311696844E+02 0.  0.
        -11    1    4    4    0    0 -0.20066414331E+02 -0.62471214616E+01 -0.97027416651E+01  0.23148017333E+02  0.00000000000E+00 0.  1.
         12    1    4    4    0    0 -0.16825993607E+03  0.27116626944E+02 -0.41447171331E+03  0.44814452878E+03  0.00000000000E+00 0. -1.
        -11    1    3    3    0    0 -0.85410102144E+01 -0.34933296957E+02 -0.93979479531E+02  0.10062517908E+03  0.00000000000E+00 0.  1.
         11    1    3    3    0    0  0.79597580230E+02  0.12924732447E+02 -0.22154328235E+03  0.23576312147E+03  0.00000000000E+00 0. -1.
          1    1    1    2  501    0  0.11726978039E+03  0.11390590275E+01 -0.46569713215E+03  0.48023673094E+03  0.00000000000E+00 0. -1.
<scales pt_clust_5="13000.00000" pt_clust_6="13000.00000" pt_clust_7="13000.00000" pt_clust_8="13000.00000" pt_clust_9="154.10759"></scales>
<clustering>
<clus scale="   79.312">  5  6 -1 -1</clus>
<clus scale="   89.828">  7  8 -1 -1</clus>
<clus scale="  116.630">  2  7  1 -1</clus>
<clus scale="  154.108">  1  9  2 -1</clus>
<clus scale="  154.108">  1  5  2 -1</clus>
</clustering>
</event>
<event>
 9    2  0.1654290E-004  0.1207479E+03  0.7546771E-02  0.1248198E+00
         21   -1    0    0  501  502  0.00000000000E+00  0.00000000000E+00  0.16848193413E+03  0.16848193413E+03  0.00000000000E+00 0.  1.
         -1   -1    0    0    0  501 -0.00000000000E+00 -0.00000000000E+00 -0.23865579048E+03  0.23865579048E+03  0.00000000000E+00 0.  1.
         24    2    1    2    0    0 -0.25266485381E+02 -0.65285914890E+02 -0.16788223209E+03  0.19866088039E+03  0.79881509613E+02 0.  0.
         23    2    1    2    0    0  0.66549495008E+01  0.72636265623E+02  0.14927394105E+02  0.12331166447E+03  0.98298647304E+02 0.  0.
        -13    1    3    3    0    0  0.14075190216E+01 -0.76524449861E+02 -0.13170847922E+03  0.15233218975E+03  0.00000000000E+00 0.  1.
         14    1    3    3    0    0 -0.26674004403E+02  0.11238534971E+02 -0.36173752869E+02  0.46328690634E+02  0.00000000000E+00 0. -1.
        -13    1    4    4    0    0 -0.11604039188E+02  0.57073562547E+02  0.52712428811E+02  0.78553455802E+02  0.00000000000E+00 0. -1.
         13    1    4    4    0    0  0.18258988689E+02  0.15562703076E+02 -0.37785034706E+02  0.44758208663E+02  0.00000000000E+00 0.  1.
         -2    1    1    2    0  502  0.18611535880E+02 -0.73503507328E+01  0.82780981637E+02  0.85165179765E+02  0.00000000000E+00 0.  1.
<scales pt_clust_5="13000.00000" pt_clust_6="13000.00000" pt_clust_7="13000.00000" pt_clust_8="13000.00000" pt_clust_9="20.01042"></scales>
<clustering>
<clus scale="   20.010">  1  9  2 -1</clus>
<clus scale="   79.882">  5  6 -1 -1</clus>
<clus scale="   98.299">  7  8 -1 -1</clus>
<clus scale="  106.294">  2  5  1 -1</clus>
<clus scale="   20.010">  1  5  2 -1</clus>
</clustering>
</event>
<event>
 9    2  0.2049808E-004  0.9142529E+02  0.7546771E-02  0.1307742E+00
         21   -1    0    0  501  502  0.00000000000E+00  0.00000000000E+00  0.77472306579E+02  0.77472306579E+02  0.00000000000E+00 0. -1.
         -1   -1    0    0    0  501 -0.00000000000E+00 -0.00000000000E+00 -0.60139951398E+03  0.60139951398E+03  0.00000000000E+00 0.  1.
         23    2    1    2    0    0 -0.16208302576E+02  0.50547683589E+01 -0.20077097021E+03  0.22096290318E+03  0.90704808854E+02 0.  0.
         24    2    1    2    0    0 -0.51710393548E+02 -0.34923072423E+02  0.24354489459E+02  0.10256574521E+03  0.77672422033E+02 0.  0.
        -13    1    4    4    0    0 -0.14181172399E+02  0.17806851061E+02 -0.14582896824E+02  0.27034246338E+02  0.00000000000E+00 0.  1.
         14    1    4    4    0    0 -0.37529221148E+02 -0.52729923484E+02  0.38937386282E+02  0.75531498867E+02  0.00000000000E+00 0. -1.
        -13    1    3    3    0    0 -0.21248686992E+02  0.44406861820E+02 -0.80940967072E+02  0.94736034465E+02  0.00000000000E+00 0.  1.
         13    1    3    3    0    0  0.50403844162E+01 -0.39352093461E+02 -0.11983000314E+03  0.12622686872E+03  0.00000000000E+00 0. -1.
         -2    1    1    2    0  502  0.67918696124E+02  0.29868304064E+02 -0.34751072665E+03  0.35534317217E+03  0.00000000000E+00 0.  1.
<scales pt_clust_5="13000.00000" pt_clust_6="13000.00000" pt_clust_7="13000.00000" pt_clust_8="13000.00000" pt_clust_9="74.19616"></scales>
<clustering>
<clus scale="   74.196">  1  9  2 -1</clus>
<clus scale="   77.672">  5  6 -1 -1</clus>
<clus scale="   78.513">  1  5  2 -1</clus>
<clus scale="   90.705">  7  8 -1 -1</clus>
<clus scale="   74.196">  1  5  2 -1</clus>
</clustering>
</event>
<event>
 9    2  0.1654290E-004  0.1874566E+03  0.7546771E-02  0.1192292E+00
         21   -1    0    0  501  502  0.00000000000E+00  0.00000000000E+00  0.19501182304E+03  0.19501182304E+03  0.00000000000E+00 0.  1.
          2   -1    0    0  502    0 -0.00000000000E+00 -0.00000000000E+00 -0.29211422883E+03  0.29211422883E+03  0.00000000000E+00 0. -1.
         24    2    1    2    0    0  0.44807972918E+02  0.91076005027E+01 -0.57701694348E+02  0.10851151686E+03  0.79715499976E+02 0.  0.
         23    2    1    2    0    0  0.10375238606E+03  0.11733441893E+03  0.17136861997E+02  0.17550308347E+03  0.77302889917E+02 0.  0.
        -11    1    3    3    0    0  0.64291534872E+02  0.22502278335E+02 -0.40184502206E+02  0.79085701641E+02  0.00000000000E+00 0.  1.
         12    1    3    3    0    0 -0.19483561954E+02 -0.13394677833E+02 -0.17517192142E+02  0.29425815217E+02  0.00000000000E+00 0. -1.
        -11    1    4    4    0    0 -0.11140346849E+02  0.24395765099E+02  0.44130244243E+01  0.27179688505E+02  0.00000000000E+00 0. -1.
         11    1    4    4    0    0  0.11489273291E+03  0.92938653826E+02  0.12723837573E+02  0.14832339496E+03  0.00000000000E+00 0.  1.
          1    1    1    2  501    0 -0.14856035898E+03 -0.12644201943E+03 -0.56537573440E+02  0.20311145154E+03  0.00000000000E+00 0. -1.
<scales pt_clust_5="13000.00000" pt_clust_6="13000.00000" pt_clust_7="13000.00000" pt_clust_8="13000.00000" pt_clust_9="170.77548"></scales>
<clustering>
<clus scale="   77.303">  7  8 -1 -1</clus>
<clus scale="   79.715">  5  6 -1 -1</clus>
<clus scale="   91.898">  2  5  1 -1</clus>
<clus scale="  170.775">  1  9  2 -1</clus>
<clus scale="  170.775">  1  5  2 -1</clus>
</clustering>
</event>
<event>
 9    2  0.1654290E-004  0.1410781E+03  0.7546771E-02  0.1213905E+00
         21   -1    0    0  501  502  0.00000000000E+00  0.00000000000E+00  0.34729924069E+02  0.34729924069E+02  0.00000000000E+00 0. -1.
          2   -1    0    0  502    0 -0.00000000000E+00 -0.00000000000E+00 -0.17084705465E+04  0.17084705465E+04  0.00000000000E+00 0. -1.
         24    2    1    2    0    0  0.10987142762E+03 -0.33234757961E+02 -0.91974013392E+03  0.93033486661E+03  0.80154665099E+02 0.  0.
         23    2    1    2    0    0 -0.10574092546E+03 -0.99082500720E+02 -0.45427005203E+03  0.48520228202E+03  0.89785795321E+02 0.  0.
        -11    1    3    3    0    0  0.25237892965E+02 -0.70301315557E+01 -0.53444275748E+02  0.59520287308E+02  0.00000000000E+00 0.  1.
         12    1    3    3    0    0  0.84633534651E+02 -0.26204626405E+02 -0.86629585817E+03  0.87081457930E+03  0.00000000000E+00 0. -1.
        -13    1    4    4    0    0 -0.45199580305E+02 -0.99322526969E+02 -0.26899621041E+03  0.29028766360E+03  0.00000000000E+00 0.  1.
         13    1    4    4    0    0 -0.60541345157E+02  0.24002624895E+00 -0.18527384162E+03  0.19491461842E+03  0.00000000000E+00 0. -1.
          1    1    1    2  501    0 -0.41305021536E+01  0.13231725868E+03 -0.29973043648E+03  0.32766332194E+03  0.00000000000E+00 0. -1.
<scales pt_clust_5="13000.00000" pt_clust_6="13000.00000" pt_clust_7="13000.00000" pt_clust_8="13000.00000" pt_clust_9="132.38171"></scales>
<clustering>
<clus scale="   80.155">  5  6 -1 -1</clus>
<clus scale="   89.786">  7  8 -1 -1</clus>
<clus scale="  132.382">  1  9  2 -1</clus>
<clus scale="  135.153">  2  5  1 -1</clus>
<clus scale="  132.382">  1  5  2 -1</clus>
</clustering>
</event>
<event>
 9    2  0.1654290E-004  0.3803726E+03  0.7546771E-02  0.1105371E+00
          2   -1    0    0  502    0 -0.00000000000E+00  0.00000000000E+00  0.17275986439E+04  0.17275986439E+04  0.00000000000E+00 0. -1.
         21   -1    0    0  501  502  0.00000000000E+00 -0.00000000000E+00 -0.10432709697E+03  0.10432709697E+03  0.00000000000E+00 0. -1.
         24    2    1    2    0    0  0.34809837819E+02 -0.54982640660E+01  0.20697707002E+03  0.22447882490E+03  0.79430973773E+02 0.  0.
         23    2    1    2    0    0 -0.15483192386E+03  0.34778229240E+03  0.60764586495E+03  0.72117594454E+03  0.77044131790E+02 0.  0.
        -13    1    3    3    0    0  0.53417969108E+02 -0.23388356917E+02  0.11488294371E+03  0.12883549751E+03  0.00000000000E+00 0.  1.
         14    1    3    3    0    0 -0.18608131289E+02  0.17890092851E+02  0.92094126312E+02  0.95643327386E+02  0.00000000000E+00 0. -1.
        -11    1    4    4    0    0 -0.62525359219E+02  0.67893459171E+02  0.12001064651E+03  0.15139847298E+03  0.00000000000E+00 0.  1.
         11    1    4    4    0    0 -0.92306564636E+02  0.27988883323E+03  0.48763521844E+03  0.56977747156E+03  0.00000000000E+00 0. -1.
          1    1    1    2  501    0  0.12002208604E+03 -0.34228402833E+03  0.80864861197E+03  0.88627097145E+03  0.00000000000E+00 0. -1.
<scales pt_clust_5="13000.00000" pt_clust_6="13000.00000" pt_clust_7="13000.00000" pt_clust_8="13000.00000" pt_clust_9="372.48844"></scales>
<clustering>
<clus scale="   77.044">  7  8 -1 -1</clus>
<clus scale="   79.431">  5  6 -1 -1</clus>
<clus scale="   86.898">  1  5  2 -1</clus>
<clus scale="  372.488">  2  9  1 -1</clus>
<clus scale="  372.488">  2  5  1 -1</clus>
</clustering>
</event>
<event>
 9    2  0.1654290E-004  0.1309230E+03  0.7546771E-02  0.1229025E+00
         21   -1    0    0  501  502  0.00000000000E+00  0.00000000000E+00  0.36769478026E+03  0.36769478026E+03  0.00000000000E+00 0.  1.
          2   -1    0    0  502    0 -0.00000000000E+00 -0.00000000000E+00 -0.82778498338E+02  0.82778498338E+02  0.00000000000E+00 0. -1.
         23    2    1    2    0    0  0.62293186470E+01 -0.10105906832E+03  0.58284613350E+01  0.13678058953E+03  0.91778096574E+02 0.  0.
         24    2    1    2    0    0 -0.16432452211E+02  0.70148401267E+02  0.18568799168E+03  0.21478312779E+03  0.80379960459E+02 0.  0.
        -11    1    4    4    0    0 -0.60684502021E+01  0.51642719947E+02  0.18644425991E+03  0.19355944478E+03  0.00000000000E+00 0.  1.
         12    1    4    4    0    0 -0.10364002009E+02  0.18505681319E+02 -0.75626823057E+00  0.21223683007E+02  0.00000000000E+00 0. -1.
        -11    1    3    3    0    0 -0.17633951354E+02 -0.10923113722E+03 -0.99627211002E+00  0.11064985376E+03  0.00000000000E+00 0. -1.
         11    1    3    3    0    0  0.23863270001E+02  0.81720689031E+01  0.68247334450E+01  0.26130735770E+02  0.00000000000E+00 0.  1.
          1    1    1    2  501    0  0.10203133564E+02  0.30910667052E+02  0.93399828910E+02  0.98909561280E+02  0.00000000000E+00 0. -1.
<scales pt_clust_5="13000.00000" pt_clust_6="13000.00000" pt_clust_7="13000.00000" pt_clust_8="13000.00000" pt_clust_9="32.55109"></scales>
<clustering>
<clus scale="   32.551">  1  9  2 -1</clus>
<clus scale="   80.380">  5  6 -1 -1</clus>
<clus scale="   91.778">  7  8 -1 -1</clus>
<clus scale="  123.201">  1  5  2 -1</clus>
<clus scale="   32.551">  1  5  2 -1</clus>
</clustering>
</event>
<event>
 9    2  0.1654290E-004  0.1081622E+03  0.7546771E-02  0.1268671E+00
         21   -1    0    0  501  502  0.00000000000E+00  0.00000000000E+00  0.33969018944E+03  0.33969018944E+03  0.00000000000E+00 0. -1.
          2   -1    0    0  502    0 -0.00000000000E+00 -0.00000000000E+00 -0.13581819199E+03  0.13581819199E+03  0.00000000000E+00 0. -1.
         24    2    1    2    0    0  0.39503325499E+02  0.41947629738E+02 -0.54683646154E+02  0.11304018322E+03  0.80421797415E+02 0.  0.
         23    2    1    2    0    0  0.10286841441E+02 -0.80776191340E+02  0.27159415498E+03  0.29799556294E+03  0.91691648008E+02 0.  0.
        -13    1    3    3    0    0  0.45569332032E+02  0.18309525507E+01 -0.56276887858E+02  0.72436209978E+02  0.00000000000E+00 0.  1.
         14    1    3    3    0    0 -0.60660065328E+01  0.40116677187E+02  0.15932417043E+01  0.40603973241E+02  0.00000000000E+00 0. -1.
        -13    1    4    4    0    0  0.29594259241E+02 -0.92558905453E+02  0.19115705458E+03  0.21443878071E+03  0.00000000000E+00 0.  1.
         13    1    4    4    0    0 -0.19307417800E+02  0.11782714113E+02  0.80437100403E+02  0.83556782221E+02  0.00000000000E+00 0. -1.
          1    1    1    2  501    0 -0.49790166939E+02  0.38828561602E+02 -0.13038511377E+02  0.64472635271E+02  0.00000000000E+00 0. -1.
<scales pt_clust_5="13000.00000" pt_clust_6="13000.00000" pt_clust_7="13000.00000" pt_clust_8="13000.00000" pt_clust_9="63.14049"></scales>
<clustering>
<clus scale="   63.140">  1  9  2 -1</clus>
<clus scale="   80.422">  5  6 -1 -1</clus>
<clus scale="   91.692">  7  8 -1 -1</clus>
<clus scale="   98.790">  2  5  1 -1</clus>
<clus scale="   63.140">  1  5  2 -1</clus>
</clustering>
</event>
<event>
 9    2  0.1654290E-004  0.1740399E+03  0.7546771E-02  0.1175451E+00
         21   -1    0    0  501  502  0.00000000000E+00  0.00000000000E+00  0.49631836976E+02  0.49631836976E+02  0.00000000000E+00 0. -1.
          2   -1    0    0  502    0 -0.00000000000E+00 -0.00000000000E+00 -0.10768297534E+04  0.10768297534E+04  0.00000000000E+00 0. -1.
         24    2    1    2    0    0  0.81444351831E+02  0.16947957194E+03 -0.62312607819E+03  0.65549148533E+03  0.77630343813E+02 0.  0.
         23    2    1    2    0    0 -0.97827626689E+01 -0.96225458919E+02 -0.17331820819E+03  0.21848488524E+03  0.91331278323E+02 0.  0.
        -11    1    3    3    0    0  0.16025515498E+02  0.79540757144E+02 -0.16251614631E+03  0.18164538806E+03  0.00000000000E+00 0.  1.
         12    1    3    3    0    0  0.65418836333E+02  0.89938814797E+02 -0.46060993188E+03  0.47384609727E+03  0.00000000000E+00 0. -1.
        -13    1    4    4    0    0  0.21764688164E+02 -0.84388758789E+02 -0.16011318712E+03  0.18229480780E+03  0.00000000000E+00 0.  1.
         13    1    4    4    0    0 -0.31547450833E+02 -0.11836700130E+02 -0.13205021071E+02  0.36190077445E+02  0.00000000000E+00 0. -1.
          1    1    1    2  501    0 -0.71661589162E+02 -0.73254113022E+02 -0.23075363006E+03  0.25248521981E+03  0.00000000000E+00 0. -1.
<scales pt_clust_5="13000.00000" pt_clust_6="13000.00000" pt_clust_7="13000.00000" pt_clust_8="13000.00000" pt_clust_9="102.47711"></scales>
<clustering>
<clus scale="   77.630">  5  6 -1 -1</clus>
<clus scale="   91.331">  7  8 -1 -1</clus>
<clus scale="  102.477">  1  9  2 -1</clus>
<clus scale="  167.257">  2  5  1 -1</clus>
<clus scale="  102.477">  1  5  2 -1</clus>
</clustering>
</event>
<event>
 9    2  0.1654290E-004  0.1164947E+03  0.7546771E-02  0.1249514E+00
         -1   -1    0    0    0  501 -0.00000000000E+00  0.00000000000E+00  0.41403314957E+03  0.41403314957E+03  0.00000000000E+00 0.  1.
         21   -1    0    0  501  502  0.00000000000E+00 -0.00000000000E+00 -0.63252574755E+02  0.63252574755E+02  0.00000000000E+00 0.  1.
         24    2    1    2    0    0 -0.64573045213E+02 -0.37716969227E+02  0.12317776710E+03  0.17036183290E+03  0.90874330063E+02 0.  0.
         23    2    1    2    0    0  0.19543229856E+02  0.77238564056E+02  0.75573379312E+02  0.14351462661E+03  0.92397937092E+02 0.  0.
        -11    1    3    3    0    0 -0.17933247853E+02 -0.51769480060E+02  0.23891600164E+02  0.59770302012E+02  0.00000000000E+00 0.  1.
         12    1    3    3    0    0 -0.46639797360E+02  0.14052510833E+02  0.99286166934E+02  0.11059153088E+03  0.00000000000E+00 0. -1.
        -13    1    4    4    0    0 -0.44508408593E+01  0.46066530574E+02  0.90333772530E+02  0.10149938760E+03  0.00000000000E+00 0. -1.
         13    1    4    4    0    0  0.23994070715E+02  0.31172033482E+02 -0.14760393218E+02  0.42015239008E+02  0.00000000000E+00 0.  1.
         -2    1    1    2    0  502  0.45029815357E+02 -0.39521594829E+02  0.15202942840E+03  0.16340926482E+03  0.00000000000E+00 0.  1.
<scales pt_clust_5="13000.00000" pt_clust_6="13000.00000" pt_clust_7="13000.00000" pt_clust_8="13000.00000" pt_clust_9="59.91364"></scales>
<clustering>
<clus scale="   59.914">  2  9  1 -1</clus>
<clus scale="   90.874">  5  6 -1 -1</clus>
<clus scale="   92.398">  7  8 -1 -1</clus>
<clus scale="  115.290">  1  5  2 -1</clus>
<clus scale="   59.914">  2  5  1 -1</clus>
</clustering>
</event>
<event>
 9    2  0.1654290E-004  0.9300345E+02  0.7546771E-02  0.1301502E+00
         21   -1    0    0  501  502  0.00000000000E+00  0.00000000000E+00  0.68642150126E+02  0.68642150126E+02  0.00000000000E+00 0. -1.
         -1   -1    0    0    0  501 -0.00000000000E+00 -0.00000000000E+00 -0.26240488523E+03  0.26240488523E+03  0.00000000000E+00 0.  1.
         24    2    1    2    0    0  0.20050181334E+01  0.71971605327E+01 -0.14500902694E+03  0.16754080982E+03  0.83585201106E+02 0.  0.
         23    2    1    2    0    0  0.24248786447E+00  0.36570234606E+02 -0.27303459359E+01  0.99954781560E+02  0.92984206768E+02 0.  0.
        -13    1    3    3    0    0 -0.51742971434E+01  0.39959634972E+02 -0.37950575343E+02  0.55351530665E+02  0.00000000000E+00 0.  1.
         14    1    3    3    0    0  0.71793152768E+01 -0.32762474440E+02 -0.10705845160E+03  0.11218927915E+03  0.00000000000E+00 0. -1.
        -13    1    4    4    0    0 -0.21163958625E+02 -0.15965442061E+02 -0.27371130763E+02  0.38104950913E+02  0.00000000000E+00 0.  1.
         13    1    4    4    0    0  0.21406446489E+02  0.52535676667E+02  0.24640784827E+02  0.61849830647E+02  0.00000000000E+00 0. -1.
         -2    1    1    2    0  502 -0.22475059979E+01 -0.43767395138E+02 -0.46023362226E+02  0.63551443973E+02  0.00000000000E+00 0.  1.
<scales pt_clust_5="13000.00000" pt_clust_6="13000.00000" pt_clust_7="13000.00000" pt_clust_8="13000.00000" pt_clust_9="43.82509"></scales>
<clustering>
<clus scale="   43.825">  1  9  2 -1</clus>
<clus scale="   83.585">  5  6 -1 -1</clus>
<clus scale="   83.607">  2  5  1 -1</clus>
<clus scale="   92.984">  7  8 -1 -1</clus>
<clus scale="   43.825">  1  5  2 -1</clus>
</clustering>
</event>
<event>
 9    2  0.1654290E-004  0.2463831E+03  0.7546771E-02  0.1116400E+00
         21   -1    0    0  501  502  0.00000000000E+00  0.00000000000E+00  0.14788471833E+03  0.14788471833E+03  0.00000000000E+00 0.  1.
         -1   -1    0    0    0  501 -0.00000000000E+00 -0.00000000000E+00 -0.49260029923E+03  0.49260029923E+03  0.00000000000E+00 0.  1.
         23    2    1    2    0    0  0.10191150670E+03  0.20679297746E+03 -0.20525214845E+03  0.32185389877E+03  0.91171250872E+02 0.  0.
         24    2    1    2    0    0 -0.68012220109E+02 -0.21811296733E+03 -0.14657131064E+03  0.28219177556E+03  0.77137024123E+02 0.  0.
        -13    1    4    4    0    0 -0.31997174001E+02 -0.14727607988E+03 -0.53772222558E+02  0.16001723272E+03  0.00000000000E+00 0.  1.
         14    1    4    4    0    0 -0.36015046109E+02 -0.70836887452E+02 -0.92799088081E+02  0.12217454284E+03  0.00000000000E+00 0. -1.
        -13    1    3    3    0    0  0.21054110962E+02 -0.27901129243E+01 -0.30886302978E+02  0.37483650172E+02  0.00000000000E+00 0. -1.
         13    1    3    3    0    0  0.80857395736E+02  0.20958309039E+03 -0.17436584547E+03  0.28437024860E+03  0.00000000000E+00 0.  1.
         -2    1    1    2    0  502 -0.33899286588E+02  0.11319989869E+02  0.71078781885E+01  0.36439343218E+02  0.00000000000E+00 0.  1.
<scales pt_clust_5="13000.00000" pt_clust_6="13000.00000" pt_clust_7="13000.00000" pt_clust_8="13000.00000" pt_clust_9="35.73939"></scales>
<clustering>
<clus scale="   35.739">  1  9  2 -1</clus>
<clus scale="   77.137">  5  6 -1 -1</clus>
<clus scale="   91.171">  7  8 -1 -1</clus>
<clus scale="  241.542">  1  5  2 -1</clus>
<clus scale="   35.739">  1  5  2 -1</clus>
</clustering>
</event>
<event>
 9    2  0.1654290E-004  0.3334016E+03  0.7546771E-02  0.1094616E+00
          2   -1    0    0  502    0 -0.00000000000E+00  0.00000000000E+00  0.22031460228E+04  0.22031460228E+04  0.00000000000E+00 0. -1.
         21   -1    0    0  501  502  0.00000000000E+00 -0.00000000000E+00 -0.82617203368E+02  0.82617203368E+02  0.00000000000E+00 0.  1.
         23    2    1    2    0    0 -0.13721105418E+03  0.46165906924E+02  0.40598980422E+03  0.44036884041E+03  0.90215464972E+02 0.  0.
         24    2    1    2    0    0  0.38463936239E+03 -0.14047994927E+03  0.10146577845E+04  0.10970965550E+04  0.80052334689E+02 0.  0.
        -13    1    4    4    0    0  0.34436854058E+03 -0.10180396596E+03  0.83449062641E+03  0.90847583611E+03  0.00000000000E+00 0.  1.
         14    1    4    4    0    0  0.40270821809E+02 -0.38675983308E+02  0.18016715804E+03  0.18862071893E+03  0.00000000000E+00 0. -1.
        -11    1    3    3    0    0 -0.83234775353E+02  0.19314012013E+02  0.34175466780E+03  0.35227448368E+03  0.00000000000E+00 0.  1.
         11    1    3    3    0    0 -0.53976278826E+02  0.26851894912E+02  0.64235136413E+02  0.88094356722E+02  0.00000000000E+00 0. -1.
          1    1    1    2  501    0 -0.24742830821E+03  0.94314042348E+02  0.69988123072E+03  0.74829783068E+03  0.00000000000E+00 0. -1.
<scales pt_clust_5="13000.00000" pt_clust_6="13000.00000" pt_clust_7="13000.00000" pt_clust_8="13000.00000" pt_clust_9="323.64838"></scales>
<clustering>
<clus scale="   80.052">  5  6 -1 -1</clus>
<clus scale="   90.215">  7  8 -1 -1</clus>
<clus scale="  170.578">  1  7  2 -1</clus>
<clus scale="  323.648">  2  9  1 -1</clus>
<clus scale="  323.648">  2  5  1 -1</clus>
</clustering>
</event>
<event>
 9    2  0.1654290E-004  0.1394699E+03  0.7546771E-02  0.1216732E+00
          4   -1    0    0  502    0 -0.00000000000E+00  0.00000000000E+00  0.51556948392E+02  0.51556948392E+02  0.00000000000E+00 0. -1.
         21   -1    0    0  501  502  0.00000000000E+00 -0.00000000000E+00 -0.73266105617E+03  0.73266105617E+03  0.00000000000E+00 0. -1.
         23    2    1    2    0    0  0.10965810588E+03 -0.14036775018E+02 -0.90067277123E+02  0.16947750207E+03  0.91589180912E+02 0.  0.
         24    2    1    2    0    0 -0.87717208747E+02 -0.25343386956E+02 -0.47740991166E+03  0.49249780600E+03  0.79355335021E+02 0.  0.
        -11    1    4    4    0    0 -0.93585756977E+02 -0.36416003562E+01 -0.31782340710E+03  0.33133559010E+03  0.00000000000E+00 0.  1.
         12    1    4    4    0    0  0.58685482304E+01 -0.21701786600E+02 -0.15958650455E+03  0.16116221591E+03  0.00000000000E+00 0. -1.
        -11    1    3    3    0    0 -0.11922001300E+02 -0.17576499638E+02 -0.19641303239E+02  0.28928329496E+02  0.00000000000E+00 0.  1.
         11    1    3    3    0    0  0.12158010718E+03  0.35397246201E+01 -0.70425973884E+02  0.14054917257E+03  0.00000000000E+00 0. -1.
          3    1    1    2  501    0 -0.21940897137E+02  0.39380161973E+02 -0.11362691900E+03  0.12224269649E+03  0.00000000000E+00 0. -1.
<scales pt_clust_5="13000.00000" pt_clust_6="13000.00000" pt_clust_7="13000.00000" pt_clust_8="13000.00000" pt_clust_9="45.07993"></scales>
<clustering>
<clus scale="   45.080">  2  9  1 -1</clus>
<clus scale="   79.355">  5  6 -1 -1</clus>
<clus scale="   91.589">  7  8 -1 -1</clus>
<clus scale="  131.759">  2  5  1 -1</clus>
<clus scale="   45.080">  2  5  1 -1</clus>
</clustering>
</event>
<event>
 9    2  0.1654290E-004  0.1298700E+03  0.7546771E-02  0.1243519E+00
          2   -1    0    0  502    0 -0.00000000000E+00  0.00000000000E+00  0.46841259066E+03  0.46841259066E+03  0.00000000000E+00 0. -1.
         21   -1    0    0  501  502  0.00000000000E+00 -0.00000000000E+00 -0.64394200225E+02  0.64394200225E+02  0.00000000000E+00 0.  1.
         23    2    1    2    0    0 -0.81368237853E+01  0.27324050639E+02  0.45669820256E+02  0.10438458058E+03  0.89429282319E+02 0.  0.
         24    2    1    2    0    0 -0.96740412162E+02 -0.25648545559E+02  0.22183537753E+03  0.25626561384E+03  0.80278109601E+02 0.  0.
        -13    1    4    4    0    0 -0.51216589330E+02 -0.47536868562E+02  0.82837991531E+02  0.10837446995E+03  0.00000000000E+00 0.  1.
         14    1    4    4    0    0 -0.45523822832E+02  0.21888323004E+02  0.13899738600E+03  0.14789114390E+03  0.00000000000E+00 0. -1.
        -11    1    3    3    0    0 -0.26964326050E+02  0.52827106151E+02  0.17142534419E+02  0.61738517231E+02  0.00000000000E+00 0. -1.
         11    1    3    3    0    0  0.18827502264E+02 -0.25503055512E+02  0.28527285838E+02  0.42646063350E+02  0.00000000000E+00 0.  1.
          1    1    1    2  501    0  0.10487723595E+03 -0.16755050803E+01  0.13651319265E+03  0.17215659646E+03  0.00000000000E+00 0. -1.
<scales pt_clust_5="13000.00000" pt_clust_6="13000.00000" pt_clust_7="13000.00000" pt_clust_8="13000.00000" pt_clust_9="102.08639"></scales>
<clustering>
<clus scale="   80.278">  5  6 -1 -1</clus>
<clus scale="   89.429">  7  8 -1 -1</clus>
<clus scale="   93.864">  1  7  2 -1</clus>
<clus scale="  102.086">  2  9  1 -1</clus>
<clus scale="  102.086">  2  5  1 -1</clus>
</clustering>
</event>
<event>
 9    2  0.1654290E-004  0.9713907E+02  0.7546771E-02  0.1289413E+00
          2   -1    0    0  502    0 -0.00000000000E+00  0.00000000000E+00  0.27522386674E+03  0.27522386674E+03  0.00000000000E+00 0. -1.
         21   -1    0    0  501  502  0.00000000000E+00 -0.00000000000E+00 -0.27571755096E+03  0.27571755096E+03  0.00000000000E+00 0. -1.
         23    2    1    2    0    0 -0.35273744295E+02 -0.24145355954E+02  0.25082647550E+03  0.26925550024E+03  0.88075923775E+02 0.  0.
         24    2    1    2    0    0  0.16056951624E+02  0.59000661173E+01 -0.11259589975E+03  0.14045349900E+03  0.82199223029E+02 0.  0.
        -11    1    4    4    0    0  0.22449021535E+02  0.36744842068E+02 -0.31200283301E+02  0.53175179027E+02  0.00000000000E+00 0.  1.
         12    1    4    4    0    0 -0.63920699112E+01 -0.30844775951E+02 -0.81395616445E+02  0.87278319975E+02  0.00000000000E+00 0. -1.
        -11    1    3    3    0    0  0.32701471240E+01 -0.39420281973E+02  0.19896289193E+03  0.20285680876E+03  0.00000000000E+00 0. -1.
         11    1    3    3    0    0 -0.38543891419E+02  0.15274926018E+02  0.51863583566E+02  0.66398691485E+02  0.00000000000E+00 0.  1.
          1    1    1    2  501    0  0.19216792672E+02  0.18245289837E+02 -0.13872425996E+03  0.14123241846E+03  0.00000000000E+00 0. -1.
<scales pt_clust_5="13000.00000" pt_clust_6="13000.00000" pt_clust_7="13000.00000" pt_clust_8="13000.00000" pt_clust_9="26.49860"></scales>
<clustering>
<clus scale="   26.499">  2  9  1 -1</clus>
<clus scale="   82.199">  5  6 -1 -1</clus>
<clus scale="   88.076">  7  8 -1 -1</clus>
<clus scale="   91.844">  2  5  1 -1</clus>
<clus scale="   26.499">  2  5  1 -1</clus>
</clustering>
</event>
<event>
 9    2  0.1654290E-004  0.2500941E+03  0.7546771E-02  0.1156448E+00
          2   -1    0    0  502    0 -0.00000000000E+00  0.00000000000E+00  0.96797138668E+03  0.96797138668E+03  0.00000000000E+00 0. -1.
         21   -1    0    0  501  502  0.00000000000E+00 -0.00000000000E+00 -0.94273984606E+02  0.94273984606E+02  0.00000000000E+00 0. -1.
         24    2    1    2    0    0 -0.20061434678E+02  0.26361607772E+02  0.17150164182E+03  0.19245474443E+03  0.80799876110E+02 0.  0.
         23    2    1    2    0    0  0.23470503930E+03 -0.89893181913E+02  0.50435555129E+03  0.57104510605E+03  0.92470273104E+02 0.  0.
        -11    1    3    3    0    0 -0.35122229593E+02 -0.15968716273E+02  0.51731968209E+02  0.64535009458E+02  0.00000000000E+00 0.  1.
         12    1    3    3    0    0  0.15060794915E+02  0.42330324045E+02  0.11976967361E+03  0.12791973497E+03  0.00000000000E+00 0. -1.
        -11    1    4    4    0    0  0.16105658480E+02 -0.31785978642E+02  0.34591683572E+02  0.49662110765E+02  0.00000000000E+00 0.  1.
         11    1    4    4    0    0  0.21859938082E+03 -0.58107203271E+02  0.46976386772E+03  0.52138299529E+03  0.00000000000E+00 0. -1.
          1    1    1    2  501    0 -0.21464360462E+03  0.63531574141E+02  0.19784020896E+03  0.29874552080E+03  0.00000000000E+00 0. -1.
<scales pt_clust_5="13000.00000" pt_clust_6="13000.00000" pt_clust_7="13000.00000" pt_clust_8="13000.00000" pt_clust_9="232.37107"></scales>
<clustering>
<clus scale="   80.800">  5  6 -1 -1</clus>
<clus scale="   87.327">  1  5  2 -1</clus>
<clus scale="   92.470">  7  8 -1 -1</clus>
<clus scale="  232.371">  2  9  1 -1</clus>
<clus scale="  232.371">  2  5  1 -1</clus>
</clustering>
</event>
<event>
 9    2  0.1654290E-004  0.1017928E+03  0.7546771E-02  0.1280123E+00
          4   -1    0    0  502    0 -0.00000000000E+00  0.00000000000E+00  0.17015761730E+03  0.17015761730E+03  0.00000000000E+00 0. -1.
         21   -1    0    0  501  502  0.00000000000E+00 -0.00000000000E+00 -0.16899977381E+03  0.16899977381E+03  0.00000000000E+00 0. -1.
         24    2    1    2    0    0 -0.24901999080E+02  0.59016160910E+02  0.10051144617E+03  0.14535396146E+03  0.83199798652E+02 0.  0.
         23    2    1    2    0    0 -0.56614388926E+00  0.35225940755E-02 -0.22292296510E+02  0.93452075613E+02  0.90752539476E+02 0.  0.
        -13    1    3    3    0    0 -0.27507806965E+02 -0.14712035403E+02  0.28244967650E+02  0.42082082021E+02  0.00000000000E+00 0.  1.
         14    1    3    3    0    0  0.26058078851E+01  0.73728196313E+02  0.72266478519E+02  0.10327187944E+03  0.00000000000E+00 0. -1.
        -13    1    4    4    0    0 -0.54134038810E+00  0.41570555267E+02  0.75865630140E+01  0.42260620594E+02  0.00000000000E+00 0. -1.
         13    1    4    4    0    0 -0.24803501157E-01 -0.41567032673E+02 -0.29878859524E+02  0.51191455019E+02  0.00000000000E+00 0.  1.
          3    1    1    2  501    0  0.25468142969E+02 -0.59019683505E+02 -0.77061306167E+02  0.10035135403E+03  0.00000000000E+00 0. -1.
<scales pt_clust_5="13000.00000" pt_clust_6="13000.00000" pt_clust_7="13000.00000" pt_clust_8="13000.00000" pt_clust_9="64.28024"></scales>
<clustering>
<clus scale="   64.280">  2  9  1 -1</clus>
<clus scale="   83.200">  5  6 -1 -1</clus>
<clus scale="   90.753">  7  8 -1 -1</clus>
<clus scale="   95.121">  1  5  2 -1</clus>
<clus scale="   64.280">  2  5  1 -1</clus>
</clustering>
</event>
<event>
 9    2  0.1654290E-004  0.1024615E+03  0.7546771E-02  0.1287542E+00
         -1   -1    0    0    0  501 -0.00000000000E+00  0.00000000000E+00  0.24437850606E+03  0.24437850606E+03  0.00000000000E+00 0.  1.
         21   -1    0    0  501  502  0.00000000000E+00 -0.00000000000E+00 -0.64350018638E+02  0.64350018638E+02  0.00000000000E+00 0.  1.
         24    2    1    2    0    0 -0.53316962417E+01 -0.21814212867E+02  0.13165654683E+03  0.15497531901E+03  0.78610535636E+02 0.  0.
         23    2    1    2    0    0 -0.31290624875E+02  0.11602375518E+02  0.24066377668E+02  0.10862852934E+03  0.10053481253E+03 0.  0.
        -11    1    3    3    0    0 -0.17107916956E+02  0.16025420504E+02  0.10409963704E+03  0.10670627608E+03  0.00000000000E+00 0.  1.
         12    1    3    3    0    0  0.11776220714E+02 -0.37839633371E+02  0.27556909791E+02  0.48269042929E+02  0.00000000000E+00 0. -1.
        -13    1    4    4    0    0  0.26125111524E+01 -0.42210091104E+02  0.82207437087E+01  0.43082451563E+02  0.00000000000E+00 0. -1.
         13    1    4    4    0    0 -0.33903136028E+02  0.53812466622E+02  0.15845633959E+02  0.65546077778E+02  0.00000000000E+00 0.  1.
         -2    1    1    2    0  502  0.36622321117E+02  0.10211837349E+02  0.24305562929E+02  0.45124676346E+02  0.00000000000E+00 0.  1.
<scales pt_clust_5="13000.00000" pt_clust_6="13000.00000" pt_clust_7="13000.00000" pt_clust_8="13000.00000" pt_clust_9="38.01942"></scales>
<clustering>
<clus scale="   38.019">  2  9  1 -1</clus>
<clus scale="   78.611">  5  6 -1 -1</clus>
<clus scale="   81.060">  1  5  2 -1</clus>
<clus scale="  100.535">  7  8 -1 -1</clus>
<clus scale="   38.019">  2  5  1 -1</clus>
</clustering>
</event>
<event>
 9    2  0.1654290E-004  0.2293561E+03  0.7546771E-02  0.1169699E+00
          2   -1    0    0  502    0 -0.00000000000E+00  0.00000000000E+00  0.25459246528E+03  0.25459246528E+03  0.00000000000E+00 0. -1.
         21   -1    0    0  501  502  0.00000000000E+00 -0.00000000000E+00 -0.33673474272E+03  0.33673474272E+03  0.00000000000E+00 0. -1.
         24    2    1    2    0    0  0.11577863077E+02 -0.10126554708E+02  0.24574646111E+02  0.86856304290E+02  0.81874967724E+02 0.  0.
         23    2    1    2    0    0  0.19775353799E+03 -0.35469663167E+02  0.65207923523E+02  0.22977688558E+03  0.90447692412E+02 0.  0.
        -13    1    3    3    0    0  0.32718680060E+02  0.14020444297E+02 -0.12585484412E+02  0.37755520140E+02  0.00000000000E+00 0.  1.
         14    1    3    3    0    0 -0.21140816984E+02 -0.24146999005E+02  0.37160130523E+02  0.49100784150E+02  0.00000000000E+00 0. -1.
        -13    1    4    4    0    0  0.16289494757E+03 -0.59654007373E+02  0.33180740795E+02  0.17661915552E+03  0.00000000000E+00 0. -1.
         13    1    4    4    0    0  0.34858590425E+02  0.24184344206E+02  0.32027182727E+02  0.53157730055E+02  0.00000000000E+00 0.  1.
          1    1    1    2  501    0 -0.20933140107E+03  0.45596217875E+02 -0.17192484707E+03  0.27469401813E+03  0.00000000000E+00 0. -1.
<scales pt_clust_5="13000.00000" pt_clust_6="13000.00000" pt_clust_7="13000.00000" pt_clust_8="13000.00000" pt_clust_9="210.76872"></scales>
<clustering>
<clus scale="   81.875">  5  6 -1 -1</clus>
<clus scale="   83.307">  1  5  2 -1</clus>
<clus scale="   90.448">  7  8 -1 -1</clus>
<clus scale="  210.769">  2  9  1 -1</clus>
<clus scale="  210.769">  2  5  1 -1</clus>
</clustering>
</event>
<event>
 9    2  0.1654290E-004  0.1073117E+03  0.7546771E-02  0.1270273E+00
          2   -1    0    0  502    0 -0.00000000000E+00  0.00000000000E+00  0.11051499174E+03  0.11051499174E+03  0.00000000000E+00 0. -1.
         21   -1    0    0  501  502  0.00000000000E+00 -0.00000000000E+00 -0.44500350287E+03  0.44500350287E+03  0.00000000000E+00 0. -1.
         24    2    1    2    0    0  0.55960593920E+02  0.18323281795E+02  0.50259720818E+02  0.11254436723E+03  0.81687602066E+02 0.  0.
         23    2    1    2    0    0  0.17210114598E+02 -0.66999470088E+02 -0.29740333657E+03  0.31906910472E+03  0.92580948077E+02 0.  0.
        -11    1    3    3    0    0 -0.20955146728E+02  0.45277358186E+01  0.42297270478E+01  0.21851982906E+02  0.00000000000E+00 0.  1.
         12    1    3    3    0    0  0.76915740648E+02  0.13795545977E+02  0.46029993770E+02  0.90692384325E+02  0.00000000000E+00 0. -1.
        -13    1    4    4    0    0  0.34742325746E+02 -0.20751456779E+02 -0.23960069133E+03  0.24299412224E+03  0.00000000000E+00 0. -1.
         13    1    4    4    0    0 -0.17532211148E+02 -0.46248013309E+02 -0.57802645243E+02  0.76074982483E+02  0.00000000000E+00 0.  1.
          1    1    1    2  501    0 -0.73170708518E+02  0.48676188293E+02 -0.87344895374E+02  0.12390502266E+03  0.00000000000E+00 0. -1.
<scales pt_clust_5="13000.00000" pt_clust_6="13000.00000" pt_clust_7="13000.00000" pt_clust_8="13000.00000" pt_clust_9="87.88244"></scales>
<clustering>
<clus scale="   81.688">  5  6 -1 -1</clus>
<clus scale="   87.882">  2  9  1 -1</clus>
<clus scale="   92.581">  7  8 -1 -1</clus>
<clus scale="   98.069">  1  5  2 -1</clus>
<clus scale="   87.882">  2  5  1 -1</clus>
</clustering>
</event>
<event>
 9    2  0.1654290E-004  0.1792279E+03  0.7546771E-02  0.1194847E+00
         21   -1    0    0  501  502  0.00000000000E+00  0.00000000000E+00  0.27306922572E+03  0.27306922572E+03  0.00000000000E+00 0. -1.
          2   -1    0    0  502    0 -0.00000000000E+00 -0.00000000000E+00 -0.45254757703E+03  0.45254757703E+03  0.00000000000E+00 0. -1.
         24    2    1    2    0    0  0.44833816328E+02  0.38520656903E+02 -0.27151646779E+03  0.28914243265E+03  0.79926478610E+02 0.  0.
         23    2    1    2    0    0  0.35562039275E+02 -0.16949565115E+03 -0.75805460790E+02  0.20890150453E+03  0.88881585902E+02 0.  0.
        -13    1    3    3    0    0  0.44529169833E+02  0.49733912180E+02 -0.12087239964E+03  0.13808130207E+03  0.00000000000E+00 0.  1.
         14    1    3    3    0    0  0.30464649432E+00 -0.11213255276E+02 -0.15064406815E+03  0.15106113058E+03  0.00000000000E+00 0. -1.
        -13    1    4    4    0    0 -0.23650938651E+02 -0.30327223029E+02 -0.35600765820E+02  0.52407269369E+02  0.00000000000E+00 0.  1.
         13    1    4    4    0    0  0.59212977925E+02 -0.13916842812E+03 -0.40204694970E+02  0.15649423516E+03  0.00000000000E+00 0. -1.
          1    1    1    2  501    0 -0.80395855602E+02  0.13097499425E+03  0.16784357726E+03  0.22757286557E+03  0.00000000000E+00 0. -1.
<scales pt_clust_5="13000.00000" pt_clust_6="13000.00000" pt_clust_7="13000.00000" pt_clust_8="13000.00000" pt_clust_9="155.63647"></scales>
<clustering>
<clus scale="   79.926">  5  6 -1 -1</clus>
<clus scale="   88.882">  7  8 -1 -1</clus>
<clus scale="   99.409">  2  5  1 -1</clus>
<clus scale="  155.636">  1  9  2 -1</clus>
<clus scale="  155.636">  1  5  2 -1</clus>
</clustering>
</event>
<event>
 9    2  0.1654290E-004  0.1467289E+03  0.7546771E-02  0.1206791E+00
         -3   -1    0    0    0  501 -0.00000000000E+00  0.00000000000E+00  0.14310116507E+03  0.14310116507E+03  0.00000000000E+00 0.  1.
         21   -1    0    0  501  502  0.00000000000E+00 -0.00000000000E+00 -0.36351486774E+03  0.36351486774E+03  0.00000000000E+00 0. -1.
         23    2    1    2    0    0 -0.59583746937E+02  0.49742121642E+02 -0.80833691340E+02  0.14512986281E+03  0.92217622288E+02 0.  0.
         24    2    1    2    0    0  0.81933159163E+02 -0.16379228673E+03 -0.14169980774E+03  0.24524749347E+03  0.80787014920E+02 0.  0.
        -13    1    4    4    0    0  0.34007570532E+02 -0.10146100439E+03 -0.34757331653E+02  0.11251187657E+03  0.00000000000E+00 0.  1.
         14    1    4    4    0    0  0.47925588631E+02 -0.62331282336E+02 -0.10694247609E+03  0.13273561690E+03  0.00000000000E+00 0. -1.
        -11    1    3    3    0    0 -0.23845347149E+02  0.54238082979E+02 -0.90193924439E+02  0.10791345714E+03  0.00000000000E+00 0. -1.
         11    1    3    3    0    0 -0.35738399788E+02 -0.44959613367E+01  0.93602330992E+01  0.37216405676E+02  0.00000000000E+00 0.  1.
         -4    1    1    2    0  502 -0.22349412226E+02  0.11405016508E+03  0.21197964152E+01  0.11623867652E+03  0.00000000000E+00 0.  1.
<scales pt_clust_5="13000.00000" pt_clust_6="13000.00000" pt_clust_7="13000.00000" pt_clust_8="13000.00000" pt_clust_9="116.21940"></scales>
<clustering>
<clus scale="   80.787">  5  6 -1 -1</clus>
<clus scale="   92.218">  7  8 -1 -1</clus>
<clus scale="  116.219">  2  9  1 -1</clus>
<clus scale="  139.828">  2  5  1 -1</clus>
<clus scale="  116.219">  2  5  1 -1</clus>
</clustering>
</event>
<event>
 9    2  0.1654290E-004  0.2546273E+03  0.7546771E-02  0.1125611E+00
          2   -1    0    0  502    0 -0.00000000000E+00  0.00000000000E+00  0.89117207376E+03  0.89117207376E+03  0.00000000000E+00 0. -1.
         21   -1    0    0  501  502  0.00000000000E+00 -0.00000000000E+00 -0.16324730044E+03  0.16324730044E+03  0.00000000000E+00 0. -1.
         23    2    1    2    0    0 -0.21953510478E+02  0.14656012885E+03  0.41063968653E+03  0.44593588559E+03  0.90950722412E+02 0.  0.
         24    2    1    2    0    0 -0.18858418105E+03 -0.20469596699E+03  0.11971911524E+03  0.31396997731E+03  0.82341045988E+02 0.  0.
        -13    1    4    4    0    0 -0.77613498525E+02 -0.32581267094E+02  0.21665525395E+02  0.86918289844E+02  0.00000000000E+00 0.  1.
         14    1    4    4    0    0 -0.11097068252E+03 -0.17211469989E+03  0.98053589844E+02  0.22705168746E+03  0.00000000000E+00 0. -1.
        -11    1    3    3    0    0  0.10295932533E+02  0.53616263573E+02  0.57256108442E+02  0.79113664434E+02  0.00000000000E+00 0.  1.
         11    1    3    3    0    0 -0.32249443010E+02  0.92943865276E+02  0.35338357809E+03  0.36682222115E+03  0.00000000000E+00 0. -1.
          1    1    1    2  501    0  0.21053769153E+03  0.58135838136E+02  0.19756597154E+03  0.29451351130E+03  0.00000000000E+00 0. -1.
<scales pt_clust_5="13000.00000" pt_clust_6="13000.00000" pt_clust_7="13000.00000" pt_clust_8="13000.00000" pt_clust_9="240.94621"></scales>
<clustering>
<clus scale="   82.341">  5  6 -1 -1</clus>
<clus scale="   90.951">  7  8 -1 -1</clus>
<clus scale="  173.879">  1  7  2 -1</clus>
<clus scale="  240.946">  2  9  1 -1</clus>
<clus scale="  240.946">  2  5  1 -1</clus>
</clustering>
</event>
<event>
 9    2  0.1654290E-004  0.1065258E+03  0.7546771E-02  0.1272425E+00
         21   -1    0    0  501  502  0.00000000000E+00  0.00000000000E+00  0.28795015163E+02  0.28795015163E+02  0.00000000000E+00 0.  1.
          2   -1    0    0  502    0 -0.00000000000E+00 -0.00000000000E+00 -0.47027979225E+03  0.47027979225E+03  0.00000000000E+00 0. -1.
         23    2    1    2    0    0 -0.67275332481E+02  0.57578278150E+00 -0.25143576218E+03  0.27599099090E+03  0.91786614861E+02 0.  0.
         24    2    1    2    0    0  0.39863756941E+02 -0.17343215090E+01 -0.13710036436E+03  0.16344912627E+03  0.79542315676E+02 0.  0.
        -13    1    4    4    0    0  0.58095698649E+02 -0.14377284540E+02 -0.66598765964E+02  0.89538886191E+02  0.00000000000E+00 0.  1.
         14    1    4    4    0    0 -0.18231941708E+02  0.12642963031E+02 -0.70501598397E+02  0.73910240083E+02  0.00000000000E+00 0. -1.
        -11    1    3    3    0    0 -0.86943035849E+02 -0.14088369955E+02 -0.21171210103E+03  0.22930239286E+03  0.00000000000E+00 0. -1.
         11    1    3    3    0    0  0.19667703368E+02  0.14664152736E+02 -0.39723661154E+02  0.46688598038E+02  0.00000000000E+00 0.  1.
          1    1    1    2  501    0  0.27411575539E+02  0.11585387275E+01 -0.52948650541E+02  0.59634690237E+02  0.00000000000E+00 0. -1.
<scales pt_clust_5="13000.00000" pt_clust_6="13000.00000" pt_clust_7="13000.00000" pt_clust_8="13000.00000" pt_clust_9="27.43606"></scales>
<clustering>
<clus scale="   27.436">  1  9  2 -1</clus>
<clus scale="   79.542">  5  6 -1 -1</clus>
<clus scale="   91.787">  7  8 -1 -1</clus>
<clus scale="   96.177">  1  5  2 -1</clus>
<clus scale="   27.436">  1  5  2 -1</clus>
</clustering>
</event>
<event>
 9    2  0.1654290E-004  0.9995525E+02  0.7546771E-02  0.1285841E+00
         21   -1    0    0  501  502  0.00000000000E+00  0.00000000000E+00  0.90536776663E+03  0.90536776663E+03  0.00000000000E+00 0.  1.
         -1   -1    0    0    0  501 -0.00000000000E+00 -0.00000000000E+00 -0.17121919181E+02  0.17121919181E+02  0.00000000000E+00 0.  1.
         23    2    1    2    0    0 -0.36307095447E+02 -0.32706193552E+02  0.22446824452E+03  0.24741260478E+03  0.91864595617E+02 0.  0.
         24    2    1    2    0    0  0.65247162071E+01  0.17577207437E+02  0.55735826125E+03  0.56353806267E+03  0.81088757261E+02 0.  0.
        -13    1    4    4    0    0  0.16367892339E+02  0.46050873946E+02  0.25187427256E+03  0.25657209527E+03  0.00000000000E+00 0.  1.
         14    1    4    4    0    0 -0.98431761315E+01 -0.28473666508E+02  0.30548398868E+03  0.30696596740E+03  0.00000000000E+00 0. -1.
        -13    1    3    3    0    0 -0.30672868417E+02 -0.55436399654E+02  0.21119727101E+03  0.22049559303E+03  0.00000000000E+00 0.  1.
         13    1    3    3    0    0 -0.56342270305E+01  0.22730206101E+02  0.13270973517E+02  0.26917011753E+02  0.00000000000E+00 0. -1.
         -2    1    1    2    0  502  0.29782379240E+02  0.15128986115E+02  0.10641934168E+03  0.11153901836E+03  0.00000000000E+00 0.  1.
<scales pt_clust_5="13000.00000" pt_clust_6="13000.00000" pt_clust_7="13000.00000" pt_clust_8="13000.00000" pt_clust_9="33.40475"></scales>
<clustering>
<clus scale="   33.405">  1  9  2 -1</clus>
<clus scale="   81.089">  5  6 -1 -1</clus>
<clus scale="   90.152">  1  5  2 -1</clus>
<clus scale="   91.865">  7  8 -1 -1</clus>
<clus scale="   33.405">  1  5  2 -1</clus>
</clustering>
</event>
<event>
 9    2  0.1654290E-004  0.1669158E+03  0.7546771E-02  0.1214237E+00
         21   -1    0    0  501  502  0.00000000000E+00  0.00000000000E+00  0.11770681989E+04  0.11770681989E+04  0.00000000000E+00 0. -1.
          2   -1    0    0  502    0 -0.00000000000E+00 -0.00000000000E+00 -0.54011568537E+02  0.54011568537E+02  0.00000000000E+00 0. -1.
         24    2    1    2    0    0 -0.99449977111E+01 -0.51677113983E+01  0.59096330511E+02  0.10029177333E+03  0.80252447300E+02 0.  0.
         23    2    1    2    0    0 -0.12737398490E+03  0.38300602830E+02  0.20772077823E+03  0.26297441397E+03  0.91195134126E+02 0.  0.
        -13    1    3    3    0    0 -0.29335147326E+02  0.26822348490E+02  0.15047047286E+02  0.42501798541E+02  0.00000000000E+00 0.  1.
         14    1    3    3    0    0  0.19390149615E+02 -0.31990059889E+02  0.44049283225E+02  0.57789974792E+02  0.00000000000E+00 0. -1.
        -13    1    4    4    0    0 -0.12105983295E+03  0.62131277545E+02  0.16758040393E+03  0.21586794710E+03  0.00000000000E+00 0. -1.
         13    1    4    4    0    0 -0.63141519502E+01 -0.23830674715E+02  0.40140374303E+02  0.47106466874E+02  0.00000000000E+00 0.  1.
          1    1    1    2  501    0  0.13731898261E+03 -0.33132891432E+02  0.85623952161E+03  0.86781358013E+03  0.00000000000E+00 0. -1.
<scales pt_clust_5="13000.00000" pt_clust_6="13000.00000" pt_clust_7="13000.00000" pt_clust_8="13000.00000" pt_clust_9="139.80104"></scales>
<clustering>
<clus scale="   80.252">  5  6 -1 -1</clus>
<clus scale="   81.031">  2  5  1 -1</clus>
<clus scale="   91.195">  7  8 -1 -1</clus>
<clus scale="  139.801">  1  9  2 -1</clus>
<clus scale="  139.801">  1  5  2 -1</clus>
</clustering>
</event>
<event>
 9    2  0.1654290E-004  0.1922183E+03  0.7546771E-02  0.1157965E+00
         21   -1    0    0  501  502  0.00000000000E+00  0.00000000000E+00  0.48790868918E+02  0.48790868918E+02  0.00000000000E+00 0. -1.
          2   -1    0    0  502    0 -0.00000000000E+00 -0.00000000000E+00 -0.98745165368E+03  0.98745165368E+03  0.00000000000E+00 0. -1.
         23    2    1    2    0    0  0.14357269004E+03  0.56134098715E+02 -0.41513843095E+03  0.45200933602E+03  0.90600047639E+02 0.  0.
         24    2    1    2    0    0 -0.18762933942E+03 -0.45462565736E+02 -0.36976017705E+03  0.42392823664E+03  0.75636944670E+02 0.  0.
        -11    1    4    4    0    0 -0.55224889501E+02  0.20876222183E+02 -0.11424407121E+03  0.12859748396E+03  0.00000000000E+00 0.  1.
         12    1    4    4    0    0 -0.13240444992E+03 -0.66338787920E+02 -0.25551610583E+03  0.29533075268E+03  0.00000000000E+00 0. -1.
        -11    1    3    3    0    0  0.19176125401E+02 -0.17309805613E+02 -0.24854678359E+02  0.35848405712E+02  0.00000000000E+00 0.  1.
         11    1    3    3    0    0  0.12439656464E+03  0.73443904328E+02 -0.39028375259E+03  0.41616093031E+03  0.00000000000E+00 0. -1.
          1    1    1    2  501    0  0.44056649379E+02 -0.10671532979E+02 -0.15376217677E+03  0.16030494994E+03  0.00000000000E+00 0. -1.
<scales pt_clust_5="13000.00000" pt_clust_6="13000.00000" pt_clust_7="13000.00000" pt_clust_8="13000.00000" pt_clust_9="45.33070"></scales>
<clustering>
<clus scale="   45.331">  1  9  2 -1</clus>
<clus scale="   75.637">  5  6 -1 -1</clus>
<clus scale="   90.600">  7  8 -1 -1</clus>
<clus scale="  185.635">  1  5  2 -1</clus>
<clus scale="   45.331">  1  5  2 -1</clus>
</clustering>
</event>
<event>
 9    2  0.1654290E-004  0.9245249E+02  0.7546771E-02  0.1307361E+00
          2   -1    0    0  502    0 -0.00000000000E+00  0.00000000000E+00  0.91099453663E+03  0.91099453663E+03  0.00000000000E+00 0. -1.
         21   -1    0    0  501  502  0.00000000000E+00 -0.00000000000E+00 -0.12654230744E+02  0.12654230744E+02  0.00000000000E+00 0. -1.
         24    2    1    2    0    0  0.97801528836E+01 -0.13361609784E+02  0.37883123770E+03  0.38641661068E+03  0.74367374233E+02 0.  0.
         23    2    1    2    0    0  0.20856816497E+02  0.26504527034E+02  0.30065948227E+03  0.31585803574E+03  0.90734104499E+02 0.  0.
        -11    1    3    3    0    0  0.10088761901E+01 -0.34282712057E+02  0.84256649381E+02  0.90969803463E+02  0.00000000000E+00 0.  1.
         12    1    3    3    0    0  0.87712766934E+01  0.20921102273E+02  0.29457458832E+03  0.29544680722E+03  0.00000000000E+00 0. -1.
        -13    1    4    4    0    0 -0.20573736480E+02  0.32322604259E+02  0.57308297979E+02  0.68936712977E+02  0.00000000000E+00 0. -1.
         13    1    4    4    0    0  0.41430552978E+02 -0.58180772242E+01  0.24335118429E+03  0.24692132277E+03  0.00000000000E+00 0.  1.
          1    1    1    2  501    0 -0.30636969381E+02 -0.13142917250E+02  0.21884958592E+03  0.22137412095E+03  0.00000000000E+00 0. -1.
<scales pt_clust_5="13000.00000" pt_clust_6="13000.00000" pt_clust_7="13000.00000" pt_clust_8="13000.00000" pt_clust_9="33.33709"></scales>
<clustering>
<clus scale="   33.337">  2  9  1 -1</clus>
<clus scale="   74.367">  5  6 -1 -1</clus>
<clus scale="   76.455">  1  5  2 -1</clus>
<clus scale="   90.734">  7  8 -1 -1</clus>
<clus scale="   33.337">  2  5  1 -1</clus>
</clustering>
</event>
<event>
 9    2  0.1654290E-004  0.1286327E+03  0.7546771E-02  0.1233686E+00
         21   -1    0    0  501  502  0.00000000000E+00  0.00000000000E+00  0.68390866288E+02  0.68390866288E+02  0.00000000000E+00 0.  1.
          2   -1    0    0  502    0 -0.00000000000E+00 -0.00000000000E+00 -0.34867673109E+03  0.34867673109E+03  0.00000000000E+00 0. -1.
         24    2    1    2    0    0 -0.76508913436E+02 -0.10676525833E+02 -0.13206863711E+03  0.17281831881E+03  0.80352002896E+02 0.  0.
         23    2    1    2    0    0  0.95916990557E+02  0.16457183049E+02 -0.16777568575E+03  0.21609572217E+03  0.95277344944E+02 0.  0.
        -13    1    3    3    0    0 -0.46604540606E+02 -0.12695610951E+02 -0.12980831501E+02  0.50016634522E+02  0.00000000000E+00 0.  1.
         14    1    3    3    0    0 -0.29904372830E+02  0.20190851179E+01 -0.11908780561E+03  0.12280168429E+03  0.00000000000E+00 0. -1.
        -11    1    4    4    0    0  0.37488004786E+02 -0.15621723980E+02 -0.59068807907E+01  0.41039980551E+02  0.00000000000E+00 0.  1.
         11    1    4    4    0    0  0.58428985772E+02  0.32078907029E+02 -0.16186880496E+03  0.17505574162E+03  0.00000000000E+00 0. -1.
          1    1    1    2  501    0 -0.19408077122E+02 -0.57806572162E+01  0.19558458068E+02  0.28153556390E+02  0.00000000000E+00 0. -1.
<scales pt_clust_5="13000.00000" pt_clust_6="13000.00000" pt_clust_7="13000.00000" pt_clust_8="13000.00000" pt_clust_9="20.25067"></scales>
<clustering>
<clus scale="   20.251">  1  9  2 -1</clus>
<clus scale="   80.352">  5  6 -1 -1</clus>
<clus scale="   95.277">  7  8 -1 -1</clus>
<clus scale="  118.004">  2  5  1 -1</clus>
<clus scale="   20.251">  1  5  2 -1</clus>
</clustering>
</event>
<event>
 9    2  0.1654290E-004  0.9686299E+02  0.7546771E-02  0.1296227E+00
          2   -1    0    0  502    0 -0.00000000000E+00  0.00000000000E+00  0.41964990766E+03  0.41964990766E+03  0.00000000000E+00 0. -1.
         21   -1    0    0  501  502  0.00000000000E+00 -0.00000000000E+00 -0.64283487098E+02  0.64283487098E+02  0.00000000000E+00 0. -1.
         24    2    1    2    0    0 -0.18734559366E+02 -0.14436509087E+02  0.19554737976E+03  0.21258977821E+03  0.79976493788E+02 0.  0.
         23    2    1    2    0    0 -0.42874984977E+02  0.34646185238E+01  0.55931319811E+01  0.10490519163E+03  0.95517266440E+02 0.  0.
        -11    1    3    3    0    0  0.68818074202E+01  0.21790641958E+02  0.16653817059E+02  0.28276155554E+02  0.00000000000E+00 0.  1.
         12    1    3    3    0    0 -0.25616366787E+02 -0.36227151045E+02  0.17889356270E+03  0.18431362265E+03  0.00000000000E+00 0. -1.
        -13    1    4    4    0    0 -0.26523853134E+02 -0.38901103242E+02  0.27457284744E+02  0.54504248495E+02  0.00000000000E+00 0. -1.
         13    1    4    4    0    0 -0.16351131842E+02  0.42365721766E+02 -0.21864152763E+02  0.50400943139E+02  0.00000000000E+00 0.  1.
          1    1    1    2  501    0  0.61609544343E+02  0.10971890563E+02  0.15422590882E+03  0.16643842491E+03  0.00000000000E+00 0. -1.
<scales pt_clust_5="13000.00000" pt_clust_6="13000.00000" pt_clust_7="13000.00000" pt_clust_8="13000.00000" pt_clust_9="62.57893"></scales>
<clustering>
<clus scale="   62.579">  2  9  1 -1</clus>
<clus scale="   79.976">  5  6 -1 -1</clus>
<clus scale="   81.579">  1  5  2 -1</clus>
<clus scale="   95.517">  7  8 -1 -1</clus>
<clus scale="   62.579">  2  5  1 -1</clus>
</clustering>
</event>
<event>
 9    2  0.1654290E-004  0.2073414E+03  0.7546771E-02  0.1151776E+00
         21   -1    0    0  501  502  0.00000000000E+00  0.00000000000E+00  0.21067636626E+03  0.21067636626E+03  0.00000000000E+00 0.  1.
         -3   -1    0    0    0  501 -0.00000000000E+00 -0.00000000000E+00 -0.53455544241E+03  0.53455544241E+03  0.00000000000E+00 0.  1.
         24    2    1    2    0    0  0.88304573269E+02  0.12245120366E+03 -0.23113338603E+03  0.28754453033E+03  0.80419026657E+02 0.  0.
         23    2    1    2    0    0 -0.11802153376E+03  0.12140421512E+03  0.52599674690E+01  0.19319971355E+03  0.92899925606E+02 0.  0.
        -11    1    3    3    0    0  0.54279587389E+02  0.12169512034E+03 -0.20557078229E+03  0.24498024911E+03  0.00000000000E+00 0.  1.
         12    1    3    3    0    0  0.34024985880E+02  0.75608331772E+00 -0.25562603741E+02  0.42564281225E+02  0.00000000000E+00 0. -1.
        -13    1    4    4    0    0 -0.44894826255E+02  0.17566225670E+02 -0.35440310921E+02  0.59834215520E+02  0.00000000000E+00 0. -1.
         13    1    4    4    0    0 -0.73126707501E+02  0.10383798945E+03  0.40700278390E+02  0.13336549803E+03  0.00000000000E+00 0.  1.
         -4    1    1    2    0  502  0.29716960486E+02 -0.24385541878E+03 -0.98005657589E+02  0.26448756479E+03  0.00000000000E+00 0.  1.
<scales pt_clust_5="13000.00000" pt_clust_6="13000.00000" pt_clust_7="13000.00000" pt_clust_8="13000.00000" pt_clust_9="185.36479"></scales>
<clustering>
<clus scale="   80.419">  5  6 -1 -1</clus>
<clus scale="   92.900">  7  8 -1 -1</clus>
<clus scale="  171.053">  2  5  1 -1</clus>
<clus scale="  185.365">  1  9  2 -1</clus>
<clus scale="  185.365">  1  5  2 -1</clus>
</clustering>
</event>
<event>
 9    2  0.1654290E-004  0.1694619E+03  0.7546771E-02  0.1207606E+00
          2   -1    0    0  502    0 -0.00000000000E+00  0.00000000000E+00  0.82615818703E+03  0.82615818703E+03  0.00000000000E+00 0. -1.
         21   -1    0    0  501  502  0.00000000000E+00 -0.00000000000E+00 -0.21276117234E+03  0.21276117234E+03  0.00000000000E+00 0.  1.
         24    2    1    2    0    0 -0.11511075873E+02  0.34093348441E+02  0.67628423087E+03  0.68214056125E+03  0.81612028011E+02 0.  0.
         23    2    1    2    0    0  0.10668946937E+03  0.78403312675E+02  0.53215634468E+02  0.16917736614E+03  0.90880994443E+02 0.  0.
        -13    1    3    3    0    0  0.15190887658E+02  0.40858879614E+02  0.18427059461E+03  0.18935644470E+03  0.00000000000E+00 0.  1.
         14    1    3    3    0    0 -0.26701963531E+02 -0.67655311730E+01  0.49201363625E+03  0.49278411655E+03  0.00000000000E+00 0. -1.
        -11    1    4    4    0    0  0.12206521783E+03  0.58888843161E+02  0.41731068577E+02  0.14180724713E+03  0.00000000000E+00 0.  1.
         11    1    4    4    0    0 -0.15375748465E+02  0.19514469514E+02  0.11484565891E+02  0.27370119016E+02  0.00000000000E+00 0. -1.
          1    1    1    2  501    0 -0.95178393492E+02 -0.11249666112E+03 -0.11610285064E+03  0.18760143197E+03  0.00000000000E+00 0. -1.
<scales pt_clust_5="13000.00000" pt_clust_6="13000.00000" pt_clust_7="13000.00000" pt_clust_8="13000.00000" pt_clust_9="143.03141"></scales>
<clustering>
<clus scale="   81.612">  5  6 -1 -1</clus>
<clus scale="   89.193">  1  5  2 -1</clus>
<clus scale="   90.881">  7  8 -1 -1</clus>
<clus scale="  143.031">  2  9  1 -1</clus>
<clus scale="  143.031">  2  5  1 -1</clus>
</clustering>
</event>
<event>
 9    2  0.1654290E-004  0.1744043E+03  0.7546771E-02  0.1193521E+00
         21   -1    0    0  501  502  0.00000000000E+00  0.00000000000E+00  0.11390498664E+03  0.11390498664E+03  0.00000000000E+00 0. -1.
          2   -1    0    0  502    0 -0.00000000000E+00 -0.00000000000E+00 -0.44529352065E+03  0.44529352065E+03  0.00000000000E+00 0. -1.
         23    2    1    2    0    0 -0.67011887173E+02 -0.52359359359E+01 -0.55066717449E+02  0.12397437864E+03  0.88426778417E+02 0.  0.
         24    2    1    2    0    0  0.18958582167E+03  0.22196748783E+02 -0.13343639656E+03  0.24620486550E+03  0.79850387814E+02 0.  0.
        -13    1    4    4    0    0  0.13084248259E+03 -0.13974958417E+02 -0.57471274233E+02  0.14358970045E+03  0.00000000000E+00 0.  1.
         14    1    4    4    0    0  0.58743339079E+02  0.36171707200E+02 -0.75965122329E+02  0.10261516505E+03  0.00000000000E+00 0. -1.
        -13    1    3    3    0    0 -0.74779950865E+02  0.25774188104E+02 -0.38539345175E+02  0.87986538461E+02  0.00000000000E+00 0. -1.
         13    1    3    3    0    0  0.77680636920E+01 -0.31010124040E+02 -0.16527372274E+02  0.35987840180E+02  0.00000000000E+00 0.  1.
          1    1    1    2  501    0 -0.12257393450E+03 -0.16960812847E+02 -0.14288542000E+03  0.18901926314E+03  0.00000000000E+00 0. -1.
<scales pt_clust_5="13000.00000" pt_clust_6="13000.00000" pt_clust_7="13000.00000" pt_clust_8="13000.00000" pt_clust_9="155.05086"></scales>
<clustering>
<clus scale="   79.850">  5  6 -1 -1</clus>
<clus scale="   88.427">  7  8 -1 -1</clus>
<clus scale="  111.073">  2  7  1 -1</clus>
<clus scale="  155.051">  1  9  2 -1</clus>
<clus scale="  155.051">  1  5  2 -1</clus>
</clustering>
</event>
<event>
 9    2  0.1654290E-004  0.1057763E+03  0.7546771E-02  0.1277870E+00
         21   -1    0    0  501  502  0.00000000000E+00  0.00000000000E+00  0.62063932144E+02  0.62063932144E+02  0.00000000000E+00 0.  1.
          4   -1    0    0  502    0 -0.00000000000E+00 -0.00000000000E+00 -0.23465321190E+03  0.23465321190E+03  0.00000000000E+00 0. -1.
         24    2    1    2    0    0  0.41410516818E+02 -0.16265730700E+02 -0.84430091742E+02  0.11858410229E+03  0.70387101267E+02 0.  0.
         23    2    1    2    0    0 -0.53271604889E+02  0.50804631784E+02 -0.75895286659E+02  0.13961000482E+03  0.91169536638E+02 0.  0.
        -13    1    3    3    0    0  0.19680137439E+02 -0.42831385157E+02 -0.60724675663E+02  0.76872111968E+02  0.00000000000E+00 0.  1.
         14    1    3    3    0    0  0.21730379379E+02  0.26565654457E+02 -0.23705416080E+02  0.41711990317E+02  0.00000000000E+00 0. -1.
        -13    1    4    4    0    0 -0.33283392261E+02  0.69689443025E+01 -0.84121811422E+02  0.90734941130E+02  0.00000000000E+00 0. -1.
         13    1    4    4    0    0 -0.19988212628E+02  0.43835687481E+02  0.82265247625E+01  0.48875063690E+02  0.00000000000E+00 0.  1.
          3    1    1    2  501    0  0.11861088070E+02 -0.34538901084E+02 -0.12263901351E+02  0.38523036934E+02  0.00000000000E+00 0. -1.
<scales pt_clust_5="13000.00000" pt_clust_6="13000.00000" pt_clust_7="13000.00000" pt_clust_8="13000.00000" pt_clust_9="36.51878"></scales>
<clustering>
<clus scale="   36.519">  1  9  2 -1</clus>
<clus scale="   70.387">  5  6 -1 -1</clus>
<clus scale="   88.493">  2  5  1 -1</clus>
<clus scale="   91.170">  7  8 -1 -1</clus>
<clus scale="   36.519">  1  5  2 -1</clus>
</clustering>
</event>
<event>
 9    2  0.1654290E-004  0.2093684E+03  0.7546771E-02  0.1156902E+00
         21   -1    0    0  501  502  0.00000000000E+00  0.00000000000E+00  0.10677873735E+03  0.10677873735E+03  0.00000000000E+00 0. -1.
          2   -1    0    0  502    0 -0.00000000000E+00 -0.00000000000E+00 -0.77558002545E+03  0.77558002545E+03  0.00000000000E+00 0. -1.
         24    2    1    2    0    0  0.80480674674E+02  0.92618515816E+02 -0.15740475693E+03  0.21555499860E+03  0.81439372853E+02 0.  0.
         23    2    1    2    0    0 -0.16332010472E+03  0.96983502109E+02 -0.18874630096E+03  0.28350953331E+03  0.93130194191E+02 0.  0.
        -13    1    3    3    0    0  0.27778055995E+02  0.68976915336E+02 -0.13396283441E+03  0.15321708863E+03  0.00000000000E+00 0.  1.
         14    1    3    3    0    0  0.52702618678E+02  0.23641600480E+02 -0.23441922521E+02  0.62337909977E+02  0.00000000000E+00 0. -1.
        -11    1    4    4    0    0 -0.12375663420E+03  0.66000065040E+02 -0.74756805788E+02  0.15893487064E+03  0.00000000000E+00 0.  1.
         11    1    4    4    0    0 -0.39563470516E+02  0.30983437069E+02 -0.11398949517E+03  0.12457466267E+03  0.00000000000E+00 0. -1.
          1    1    1    2  501    0  0.82839430042E+02 -0.18960201792E+03 -0.32265023021E+03  0.38329423088E+03  0.00000000000E+00 0. -1.
<scales pt_clust_5="13000.00000" pt_clust_6="13000.00000" pt_clust_7="13000.00000" pt_clust_8="13000.00000" pt_clust_9="187.51512"></scales>
<clustering>
<clus scale="   81.439">  5  6 -1 -1</clus>
<clus scale="   93.130">  7  8 -1 -1</clus>
<clus scale="  147.268">  2  5  1 -1</clus>
<clus scale="  187.515">  1  9  2 -1</clus>
<clus scale="  187.515">  1  5  2 -1</clus>
</clustering>
</event>
<event>
 9    2  0.1654290E-004  0.1460917E+03  0.7546771E-02  0.1207811E+00
         21   -1    0    0  501  502  0.00000000000E+00  0.00000000000E+00  0.52074707858E+02  0.52074707858E+02  0.00000000000E+00 0.  1.
          2   -1    0    0  502    0 -0.00000000000E+00 -0.00000000000E+00 -0.66737213739E+03  0.66737213739E+03  0.00000000000E+00 0. -1.
         24    2    1    2    0    0  0.72589403025E+02  0.89369363120E+02 -0.44067491151E+03  0.46251023232E+03  0.80406671778E+02 0.  0.
         23    2    1    2    0    0 -0.51698886572E+02 -0.96186451119E+02 -0.18387372920E+03  0.23309397728E+03  0.92728882784E+02 0.  0.
        -11    1    3    3    0    0  0.36726924825E+02  0.38735675410E+02 -0.77691027438E+02  0.94261420003E+02  0.00000000000E+00 0.  1.
         12    1    3    3    0    0  0.35862478199E+02  0.50633687710E+02 -0.36298388408E+03  0.36824881232E+03  0.00000000000E+00 0. -1.
        -11    1    4    4    0    0 -0.42164500580E+02 -0.27163039018E+00 -0.30858841112E+02  0.52251191058E+02  0.00000000000E+00 0. -1.
         11    1    4    4    0    0 -0.95343859921E+01 -0.95914820729E+02 -0.15301488809E+03  0.18084278622E+03  0.00000000000E+00 0.  1.
          1    1    1    2  501    0 -0.20890516453E+02  0.68170879990E+01  0.92512111814E+01  0.23842635651E+02  0.00000000000E+00 0. -1.
<scales pt_clust_5="13000.00000" pt_clust_6="13000.00000" pt_clust_7="13000.00000" pt_clust_8="13000.00000" pt_clust_9="21.97468"></scales>
<clustering>
<clus scale="   21.975">  1  9  2 -1</clus>
<clus scale="   80.407">  5  6 -1 -1</clus>
<clus scale="   92.729">  7  8 -1 -1</clus>
<clus scale="  138.598">  2  5  1 -1</clus>
<clus scale="   21.975">  1  5  2 -1</clus>
</clustering>
</event>
<event>
 9    2  0.1654290E-004  0.2160339E+03  0.7546771E-02  0.1165388E+00
         -3   -1    0    0    0  501 -0.00000000000E+00  0.00000000000E+00  0.15434611088E+03  0.15434611088E+03  0.00000000000E+00 0.  1.
         21   -1    0    0  501  502  0.00000000000E+00 -0.00000000000E+00 -0.72757481368E+03  0.72757481368E+03  0.00000000000E+00 0.  1.
         24    2    1    2    0    0 -0.25693664171E+02 -0.70405351895E+02  0.45127502715E+02  0.11895914093E+03  0.80608360336E+02 0.  0.
         23    2    1    2    0    0  0.26814280322E+02 -0.16965730897E+03 -0.36334141154E+03  0.41272774464E+03  0.93939351384E+02 0.  0.
        -11    1    3    3    0    0 -0.52159872818E+02 -0.61706327824E+02  0.24956968962E+02  0.84564611545E+02  0.00000000000E+00 0.  1.
         12    1    3    3    0    0  0.26466208647E+02 -0.86990240703E+01  0.20170533753E+02  0.34394529388E+02  0.00000000000E+00 0. -1.
        -11    1    4    4    0    0  0.41013195955E+02 -0.81405909936E+02 -0.10337746781E+03  0.13782563356E+03  0.00000000000E+00 0.  1.
         11    1    4    4    0    0 -0.14198915634E+02 -0.88251399031E+02 -0.25996394373E+03  0.27490211108E+03  0.00000000000E+00 0. -1.
         -4    1    1    2    0  502 -0.11206161508E+01  0.24006266086E+03 -0.25501479397E+03  0.35023403899E+03  0.00000000000E+00 0.  1.
<scales pt_clust_5="13000.00000" pt_clust_6="13000.00000" pt_clust_7="13000.00000" pt_clust_8="13000.00000" pt_clust_9="194.54073"></scales>
<clustering>
<clus scale="   80.608">  5  6 -1 -1</clus>
<clus scale="   93.939">  7  8 -1 -1</clus>
<clus scale="  110.067">  1  5  2 -1</clus>
<clus scale="  194.541">  2  9  1 -1</clus>
<clus scale="  194.541">  2  5  1 -1</clus>
</clustering>
</event>
<event>
 9    2  0.1654290E-004  0.1288212E+03  0.7546771E-02  0.1250200E+00
         21   -1    0    0  501  502  0.00000000000E+00  0.00000000000E+00  0.18801115254E+03  0.18801115254E+03  0.00000000000E+00 0.  1.
         -1   -1    0    0    0  501 -0.00000000000E+00 -0.00000000000E+00 -0.15110894338E+03  0.15110894338E+03  0.00000000000E+00 0.  1.
         24    2    1    2    0    0 -0.22925937927E+02  0.39449228753E+01 -0.46745923496E+02  0.96218771698E+02  0.80818992923E+02 0.  0.
         23    2    1    2    0    0  0.17275133458E+02  0.88801598514E+02  0.18399332338E+02  0.12936166259E+03  0.90618707688E+02 0.  0.
        -11    1    3    3    0    0 -0.14625944545E+02  0.42346929511E+02 -0.24162235332E+02  0.50901810470E+02  0.00000000000E+00 0.  1.
         12    1    3    3    0    0 -0.82999933823E+01 -0.38402006636E+02 -0.22583688164E+02  0.45316961228E+02  0.00000000000E+00 0. -1.
        -13    1    4    4    0    0  0.95639905172E+01  0.35217292277E+02 -0.36954161191E+02  0.51935899138E+02  0.00000000000E+00 0. -1.
         13    1    4    4    0    0  0.77111429405E+01  0.53584306236E+02  0.55353493529E+02  0.77425763452E+02  0.00000000000E+00 0.  1.
         -2    1    1    2    0  502  0.56508044697E+01 -0.92746521389E+02  0.65248800315E+02  0.11353966163E+03  0.00000000000E+00 0.  1.
<scales pt_clust_5="13000.00000" pt_clust_6="13000.00000" pt_clust_7="13000.00000" pt_clust_8="13000.00000" pt_clust_9="91.55953"></scales>
<clustering>
<clus scale="   80.819">  5  6 -1 -1</clus>
<clus scale="   84.100">  2  5  1 -1</clus>
<clus scale="   90.619">  7  8 -1 -1</clus>
<clus scale="   91.560">  1  9  2 -1</clus>
<clus scale="   91.560">  1  5  2 -1</clus>
</clustering>
</event>
<event>
 9    2  0.1654290E-004  0.1399799E+03  0.7546771E-02  0.1215047E+00
          2   -1    0    0  502    0 -0.00000000000E+00  0.00000000000E+00  0.34678074853E+03  0.34678074853E+03  0.00000000000E+00 0. -1.
         21   -1    0    0  501  502  0.00000000000E+00 -0.00000000000E+00 -0.68106515031E+02  0.68106515031E+02  0.00000000000E+00 0.  1.
         23    2    1    2    0    0  0.91760417618E+02 -0.41868567281E+02  0.15102115811E+03  0.20135890116E+03  0.86977386194E+02 0.  0.
         24    2    1    2    0    0 -0.10584929371E+03  0.62618692706E+02  0.10762296150E+03  0.18143054944E+03  0.78798279010E+02 0.  0.
        -13    1    4    4    0    0 -0.11642356267E+03  0.58105398224E+02  0.10914483440E+03  0.16983308901E+03  0.00000000000E+00 0.  1.
         14    1    4    4    0    0  0.10574268967E+02  0.45132944815E+01 -0.15218728989E+01  0.11597460428E+02  0.00000000000E+00 0. -1.
        -13    1    3    3    0    0  0.92439345262E+02 -0.62054674609E+02  0.11502207982E+03  0.16008089842E+03  0.00000000000E+00 0.  1.
         13    1    3    3    0    0 -0.67892764365E+00  0.20186107328E+02  0.35999078290E+02  0.41278002732E+02  0.00000000000E+00 0. -1.
          1    1    1    2  501    0  0.14088876089E+02 -0.20750125425E+02  0.20030113885E+02  0.32097812960E+02  0.00000000000E+00 0. -1.
<scales pt_clust_5="13000.00000" pt_clust_6="13000.00000" pt_clust_7="13000.00000" pt_clust_8="13000.00000" pt_clust_9="25.08115"></scales>
<clustering>
<clus scale="   25.081">  2  9  1 -1</clus>
<clus scale="   78.798">  5  6 -1 -1</clus>
<clus scale="   86.977">  7  8 -1 -1</clus>
<clus scale="  135.050">  2  5  1 -1</clus>
<clus scale="   25.081">  2  5  1 -1</clus>
</clustering>
</event>
<event>
 9    2  0.1654290E-004  0.1435120E+03  0.7546771E-02  0.1211684E+00
         21   -1    0    0  501  502  0.00000000000E+00  0.00000000000E+00  0.36864352157E+02  0.36864352157E+02  0.00000000000E+00 0.  1.
          2   -1    0    0  502    0 -0.00000000000E+00 -0.00000000000E+00 -0.10205994654E+04  0.10205994654E+04  0.00000000000E+00 0. -1.
         24    2    1    2    0    0  0.13057491108E+03  0.37778899551E+02 -0.44924940349E+03  0.47624708028E+03  0.80679627485E+02 0.  0.
         23    2    1    2    0    0 -0.77071443100E+02  0.30721007865E+02 -0.20638888744E+03  0.24180197152E+03  0.94805236688E+02 0.  0.
        -11    1    3    3    0    0  0.11935735534E+03  0.73825504321E+00 -0.34139684195E+03  0.36166078995E+03  0.00000000000E+00 0.  1.
         12    1    3    3    0    0  0.11217555739E+02  0.37040644507E+02 -0.10785256154E+03  0.11458629034E+03  0.00000000000E+00 0. -1.
        -11    1    4    4    0    0  0.13551342869E+02 -0.17986165540E+02 -0.28741461818E+02  0.36513184904E+02  0.00000000000E+00 0. -1.
         11    1    4    4    0    0 -0.90622785969E+02  0.48707173404E+02 -0.17764742562E+03  0.20528878661E+03  0.00000000000E+00 0.  1.
          1    1    1    2  501    0 -0.53503467979E+02 -0.68499907416E+02 -0.32809682228E+03  0.33941476573E+03  0.00000000000E+00 0. -1.
<scales pt_clust_5="13000.00000" pt_clust_6="13000.00000" pt_clust_7="13000.00000" pt_clust_8="13000.00000" pt_clust_9="86.91873"></scales>
<clustering>
<clus scale="   80.680">  5  6 -1 -1</clus>
<clus scale="   86.919">  1  9  2 -1</clus>
<clus scale="   94.805">  7  8 -1 -1</clus>
<clus scale="  134.599">  2  5  1 -1</clus>
<clus scale="   86.919">  1  5  2 -1</clus>
</clustering>
</event>
<event>
 9    2  0.1654290E-004  0.1762475E+03  0.7546771E-02  0.1201047E+00
         21   -1    0    0  501  502  0.00000000000E+00  0.00000000000E+00  0.50718774105E+02  0.50718774105E+02  0.00000000000E+00 0.  1.
          2   -1    0    0  502    0 -0.00000000000E+00 -0.00000000000E+00 -0.92509369945E+03  0.92509369945E+03  0.00000000000E+00 0. -1.
         24    2    1    2    0    0  0.45881531451E+01  0.43239301184E+02 -0.12953228222E+03  0.15848867720E+03  0.80307909621E+02 0.  0.
         23    2    1    2    0    0 -0.15465896746E+03 -0.53702695724E+02 -0.35517308649E+03  0.39962402941E+03  0.82146623632E+02 0.  0.
        -11    1    3    3    0    0  0.33100695987E+02 -0.13232332158E+01 -0.25597994211E+02  0.41864834033E+02  0.00000000000E+00 0.  1.
         12    1    3    3    0    0 -0.28512542842E+02  0.44562534400E+02 -0.10393428801E+03  0.11662384317E+03  0.00000000000E+00 0. -1.
        -13    1    4    4    0    0 -0.12031887115E+03 -0.56190899420E+02 -0.19586050599E+03  0.23663344172E+03  0.00000000000E+00 0.  1.
         13    1    4    4    0    0 -0.34340096311E+02  0.24882036964E+01 -0.15931258050E+03  0.16299058769E+03  0.00000000000E+00 0. -1.
          1    1    1    2  501    0  0.15007081431E+03  0.10463394540E+02 -0.38966955663E+03  0.41769976694E+03  0.00000000000E+00 0. -1.
<scales pt_clust_5="13000.00000" pt_clust_6="13000.00000" pt_clust_7="13000.00000" pt_clust_8="13000.00000" pt_clust_9="155.93317"></scales>
<clustering>
<clus scale="   80.308">  5  6 -1 -1</clus>
<clus scale="   82.147">  7  8 -1 -1</clus>
<clus scale="   91.324">  2  5  1 -1</clus>
<clus scale="  155.933">  1  9  2 -1</clus>
<clus scale="  155.933">  1  5  2 -1</clus>
</clustering>
</event>
<event>
 9    2  0.1654290E-004  0.1413976E+03  0.7546771E-02  0.1214508E+00
          2   -1    0    0  502    0 -0.00000000000E+00  0.00000000000E+00  0.13466222273E+04  0.13466222273E+04  0.00000000000E+00 0. -1.
         21   -1    0    0  501  502  0.00000000000E+00 -0.00000000000E+00 -0.49384596937E+02  0.49384596937E+02  0.00000000000E+00 0. -1.
         24    2    1    2    0    0  0.70731496555E+02 -0.79545587386E+02  0.86654597110E+03  0.87676897657E+03  0.80569678869E+02 0.  0.
         23    2    1    2    0    0 -0.51595923975E+02  0.90627809892E+02  0.46084597883E+03  0.48184441531E+03  0.94443025519E+02 0.  0.
        -13    1    3    3    0    0  0.77736061110E+02 -0.64090965875E+02  0.51207287803E+03  0.52189000711E+03  0.00000000000E+00 0.  1.
         14    1    3    3    0    0 -0.70045645550E+01 -0.15454621512E+02  0.35447309307E+03  0.35487896945E+03  0.00000000000E+00 0. -1.
        -11    1    4    4    0    0 -0.58094961549E+02  0.18957492409E+02  0.29158980551E+03  0.29792453030E+03  0.00000000000E+00 0.  1.
         11    1    4    4    0    0  0.64990375737E+01  0.71670317483E+02  0.16925617332E+03  0.18391988501E+03  0.00000000000E+00 0. -1.
          1    1    1    2  501    0 -0.19135572580E+02 -0.11082222505E+02 -0.30154319579E+02  0.37393432350E+02  0.00000000000E+00 0. -1.
<scales pt_clust_5="13000.00000" pt_clust_6="13000.00000" pt_clust_7="13000.00000" pt_clust_8="13000.00000" pt_clust_9="22.11302"></scales>
<clustering>
<clus scale="   22.113">  2  9  1 -1</clus>
<clus scale="   80.570">  5  6 -1 -1</clus>
<clus scale="   94.443">  7  8 -1 -1</clus>
<clus scale="  132.534">  1  5  2 -1</clus>
<clus scale="   22.113">  2  5  1 -1</clus>
</clustering>
</event>
<event>
 9    2  0.1654290E-004  0.1011498E+03  0.7546771E-02  0.1282856E+00
         -1   -1    0    0    0  501 -0.00000000000E+00  0.00000000000E+00  0.20504125390E+03  0.20504125390E+03  0.00000000000E+00 0.  1.
         21   -1    0    0  501  502  0.00000000000E+00 -0.00000000000E+00 -0.37073828605E+03  0.37073828605E+03  0.00000000000E+00 0.  1.
         23    2    1    2    0    0 -0.29464734646E+02  0.28111932046E+02  0.15699133404E+03  0.18545208691E+03  0.89931897944E+02 0.  0.
         24    2    1    2    0    0  0.69456022400E+02 -0.70988523682E+02 -0.10528795658E+03  0.16515941955E+03  0.79552313114E+02 0.  0.
        -11    1    4    4    0    0  0.69579738363E+02 -0.70430222305E+02 -0.51926651743E+02  0.11179505072E+03  0.00000000000E+00 0.  1.
         12    1    4    4    0    0 -0.12371596268E+00 -0.55830137732E+00 -0.53361304839E+02  0.53364368826E+02  0.00000000000E+00 0. -1.
        -13    1    3    3    0    0 -0.56905389874E+02  0.39119367668E+02  0.11372465607E+03  0.13304828342E+03  0.00000000000E+00 0. -1.
         13    1    3    3    0    0  0.27440655228E+02 -0.11007435621E+02  0.43266677964E+02  0.52403803491E+02  0.00000000000E+00 0.  1.
         -2    1    1    2    0  502 -0.39991287754E+02  0.42876591635E+02 -0.21740040961E+03  0.22516803349E+03  0.00000000000E+00 0.  1.
<scales pt_clust_5="13000.00000" pt_clust_6="13000.00000" pt_clust_7="13000.00000" pt_clust_8="13000.00000" pt_clust_9="58.63195"></scales>
<clustering>
<clus scale="   58.632">  2  9  1 -1</clus>
<clus scale="   79.552">  5  6 -1 -1</clus>
<clus scale="   89.932">  7  8 -1 -1</clus>
<clus scale="   92.044">  2  5  1 -1</clus>
<clus scale="   58.632">  2  5  1 -1</clus>
</clustering>
</event>
<event>
 9    2  0.1654290E-004  0.4246126E+03  0.7546771E-02  0.1048153E+00
         21   -1    0    0  501  502  0.00000000000E+00  0.00000000000E+00  0.22080321976E+03  0.22080321976E+03  0.00000000000E+00 0. -1.
          2   -1    0    0  502    0 -0.00000000000E+00 -0.00000000000E+00 -0.18974923516E+04  0.18974923516E+04  0.00000000000E+00 0. -1.
         23    2    1    2    0    0 -0.20738456381E+03  0.18707555970E+03 -0.51229308685E+03  0.59109936021E+03  0.94597169378E+02 0.  0.
         24    2    1    2    0    0  0.10450329916E+02  0.36323598336E+03 -0.27405723585E+03  0.46214734751E+03  0.80144951708E+02 0.  0.
        -13    1    4    4    0    0  0.21856418808E+02  0.27341204840E+02 -0.36547742958E+02  0.50606146273E+02  0.00000000000E+00 0.  1.
         14    1    4    4    0    0 -0.11406088893E+02  0.33589477852E+03 -0.23750949289E+03  0.41154120123E+03  0.00000000000E+00 0. -1.
        -11    1    3    3    0    0 -0.15873917697E+03  0.18636231916E+03 -0.44738232839E+03  0.50998038008E+03  0.00000000000E+00 0.  1.
         11    1    3    3    0    0 -0.48645386834E+02  0.71324053607E+00 -0.64910758462E+02  0.81118980124E+02  0.00000000000E+00 0. -1.
          1    1    1    2  501    0  0.19693423389E+03 -0.55031154306E+03 -0.89033880913E+03  0.10650488636E+04  0.00000000000E+00 0. -1.
<scales pt_clust_5="13000.00000" pt_clust_6="13000.00000" pt_clust_7="13000.00000" pt_clust_8="13000.00000" pt_clust_9="416.98062"></scales>
<clustering>
<clus scale="   80.145">  5  6 -1 -1</clus>
<clus scale="   94.597">  7  8 -1 -1</clus>
<clus scale="  294.880">  2  7  1 -1</clus>
<clus scale="  416.981">  1  9  2 -1</clus>
<clus scale="  416.981">  1  5  2 -1</clus>
</clustering>
</event>
<event>
 9    2  0.1654290E-004  0.1307774E+03  0.7546771E-02  0.1244219E+00
         21   -1    0    0  501  502  0.00000000000E+00  0.00000000000E+00  0.34907121638E+02  0.34907121638E+02  0.00000000000E+00 0. -1.
          2   -1    0    0  502    0 -0.00000000000E+00 -0.00000000000E+00 -0.21211630176E+04  0.21211630176E+04  0.00000000000E+00 0. -1.
         23    2    1    2    0    0  0.79409845002E+00  0.92510779578E+01 -0.15759450576E+03  0.18179794308E+03  0.90156812416E+02 0.  0.
         24    2    1    2    0    0  0.33586692220E+02 -0.10473717566E+03 -0.18216127792E+04  0.18267627431E+04  0.81798902629E+02 0.  0.
        -13    1    4    4    0    0  0.14117882065E+02 -0.22078391712E+02 -0.11132308464E+03  0.11436607516E+03  0.00000000000E+00 0.  1.
         14    1    4    4    0    0  0.19468810156E+02 -0.82658783947E+02 -0.17102896945E+04  0.17123966679E+04  0.00000000000E+00 0. -1.
        -13    1    3    3    0    0 -0.10617410749E+02  0.29801920772E+02 -0.15494578778E+03  0.15814259718E+03  0.00000000000E+00 0.  1.
         13    1    3    3    0    0  0.11411509199E+02 -0.20550842814E+02 -0.26487179843E+01  0.23655345898E+02  0.00000000000E+00 0. -1.
          1    1    1    2  501    0 -0.34380790670E+02  0.95486097701E+02 -0.10704861105E+03  0.14750945308E+03  0.00000000000E+00 0. -1.
<scales pt_clust_5="13000.00000" pt_clust_6="13000.00000" pt_clust_7="13000.00000" pt_clust_8="13000.00000" pt_clust_9="102.03758"></scales>
<clustering>
<clus scale="   81.799">  5  6 -1 -1</clus>
<clus scale="   90.157">  7  8 -1 -1</clus>
<clus scale="   90.634">  2  7  1 -1</clus>
<clus scale="  102.038">  1  9  2 -1</clus>
<clus scale="  102.038">  1  5  2 -1</clus>
</clustering>
</event>
<event>
 9    2  0.1654290E-004  0.2509698E+03  0.7546771E-02  0.1114417E+00
         21   -1    0    0  501  502  0.00000000000E+00  0.00000000000E+00  0.30927209029E+03  0.30927209029E+03  0.00000000000E+00 0. -1.
          2   -1    0    0  502    0 -0.00000000000E+00 -0.00000000000E+00 -0.43297062870E+03  0.43297062870E+03  0.00000000000E+00 0. -1.
         24    2    1    2    0    0 -0.12879518871E+03 -0.21034770218E+03 -0.66203261153E+02  0.26162614160E+03  0.56841971596E+02 0.  0.
         23    2    1    2    0    0  0.97037306011E+02  0.18101259742E+03  0.14879654284E+03  0.26984317649E+03  0.92158176810E+02 0.  0.
        -11    1    3    3    0    0 -0.20772773427E+02 -0.65330219029E+02  0.14175714611E+01  0.68567887113E+02  0.00000000000E+00 0.  1.
         12    1    3    3    0    0 -0.10802241528E+03 -0.14501748315E+03 -0.67620832614E+02  0.19305825448E+03  0.00000000000E+00 0. -1.
        -13    1    4    4    0    0  0.87181085748E+02  0.11141980276E+03  0.13995270715E+03  0.19900169446E+03  0.00000000000E+00 0. -1.
         13    1    4    4    0    0  0.98562202632E+01  0.69592794659E+02  0.88438356936E+01  0.70841482029E+02  0.00000000000E+00 0.  1.
          1    1    1    2  501    0  0.31757882695E+02  0.29335104753E+02 -0.20629182010E+03  0.21077340089E+03  0.00000000000E+00 0. -1.
<scales pt_clust_5="13000.00000" pt_clust_6="13000.00000" pt_clust_7="13000.00000" pt_clust_8="13000.00000" pt_clust_9="43.23324"></scales>
<clustering>
<clus scale="   43.233">  1  9  2 -1</clus>
<clus scale="   56.842">  5  6 -1 -1</clus>
<clus scale="   92.158">  7  8 -1 -1</clus>
<clus scale="  240.258">  2  5  1 -1</clus>
<clus scale="   43.233">  1  5  2 -1</clus>
</clustering>
</event>
<event>
 9    2  0.1654290E-004  0.2845382E+03  0.7546771E-02  0.1140377E+00
          2   -1    0    0  502    0 -0.00000000000E+00  0.00000000000E+00  0.66695248808E+03  0.66695248808E+03  0.00000000000E+00 0. -1.
         21   -1    0    0  501  502  0.00000000000E+00 -0.00000000000E+00 -0.40808142108E+03  0.40808142108E+03  0.00000000000E+00 0. -1.
         24    2    1    2    0    0 -0.22915957430E+02  0.29990580857E+02  0.35964749089E+02  0.94024759561E+02  0.78247148117E+02 0.  0.
         23    2    1    2    0    0 -0.13565693045E+03  0.22943188110E+03 -0.27781894959E+03  0.39520101715E+03  0.89211458690E+02 0.  0.
        -11    1    3    3    0    0 -0.31950332145E+02 -0.18069089415E+02  0.23416406783E+02  0.43538991985E+02  0.00000000000E+00 0.  1.
         12    1    3    3    0    0  0.90343747154E+01  0.48059670272E+02  0.12548342306E+02  0.50485767576E+02  0.00000000000E+00 0. -1.
        -13    1    4    4    0    0 -0.13987350834E+03  0.16981343632E+03 -0.23333095424E+03  0.32069383483E+03  0.00000000000E+00 0. -1.
         13    1    4    4    0    0  0.42165778913E+01  0.59618444785E+02 -0.44487995346E+02  0.74507182322E+02  0.00000000000E+00 0.  1.
          1    1    1    2  501    0  0.15857288788E+03 -0.25942246196E+03  0.50072526750E+03  0.58580813245E+03  0.00000000000E+00 0. -1.
<scales pt_clust_5="13000.00000" pt_clust_6="13000.00000" pt_clust_7="13000.00000" pt_clust_8="13000.00000" pt_clust_9="270.19135"></scales>
<clustering>
<clus scale="   78.247">  5  6 -1 -1</clus>
<clus scale="   86.875">  1  5  2 -1</clus>
<clus scale="   89.211">  7  8 -1 -1</clus>
<clus scale="  270.191">  2  9  1 -1</clus>
<clus scale="  270.191">  2  5  1 -1</clus>
</clustering>
</event>
<event>
 9    2  0.1654290E-004  0.9547218E+02  0.7546771E-02  0.1295717E+00
          2   -1    0    0  502    0 -0.00000000000E+00  0.00000000000E+00  0.14819912501E+04  0.14819912501E+04  0.00000000000E+00 0. -1.
         21   -1    0    0  501  502  0.00000000000E+00 -0.00000000000E+00 -0.26891411061E+02  0.26891411061E+02  0.00000000000E+00 0.  1.
         24    2    1    2    0    0 -0.30610746600E+02  0.13545632540E+01  0.12962698451E+04  0.12990849231E+04  0.79795196815E+02 0.  0.
         23    2    1    2    0    0  0.48290648721E+02 -0.24116283587E+02  0.14163513336E+03  0.17623677736E+03  0.89918345211E+02 0.  0.
        -13    1    3    3    0    0 -0.24272648455E+02 -0.26429238997E+01  0.10538302671E+03  0.10817452948E+03  0.00000000000E+00 0.  1.
         14    1    3    3    0    0 -0.63380981456E+01  0.39974871537E+01  0.11908868184E+04  0.11909103936E+04  0.00000000000E+00 0. -1.
        -13    1    4    4    0    0  0.52701371500E+02 -0.53287958726E+02  0.94233072047E+02  0.12040312691E+03  0.00000000000E+00 0.  1.
         13    1    4    4    0    0 -0.44107227794E+01  0.29171675138E+02  0.47402061309E+02  0.55833650447E+02  0.00000000000E+00 0. -1.
          1    1    1    2  501    0 -0.17679902120E+02  0.22761720333E+02  0.17194860526E+02  0.33560960654E+02  0.00000000000E+00 0. -1.
<scales pt_clust_5="13000.00000" pt_clust_6="13000.00000" pt_clust_7="13000.00000" pt_clust_8="13000.00000" pt_clust_9="28.82143"></scales>
<clustering>
<clus scale="   28.821">  2  9  1 -1</clus>
<clus scale="   79.795">  5  6 -1 -1</clus>
<clus scale="   86.005">  1  5  2 -1</clus>
<clus scale="   89.918">  7  8 -1 -1</clus>
<clus scale="   28.821">  2  5  1 -1</clus>
</clustering>
</event>
<event>
 9    2  0.1654290E-004  0.1125805E+03  0.7546771E-02  0.1259283E+00
         21   -1    0    0  501  502  0.00000000000E+00  0.00000000000E+00  0.13244879724E+02  0.13244879724E+02  0.00000000000E+00 0. -1.
          2   -1    0    0  502    0 -0.00000000000E+00 -0.00000000000E+00 -0.15061292570E+04  0.15061292570E+04  0.00000000000E+00 0. -1.
         24    2    1    2    0    0  0.64318072389E+02 -0.34127808419E+02 -0.10237817395E+04  0.10296420085E+04  0.82049338415E+02 0.  0.
         23    2    1    2    0    0 -0.36587735653E+02  0.24957457016E+02 -0.26876673445E+03  0.28727832828E+03  0.91278383501E+02 0.  0.
        -11    1    3    3    0    0  0.50351474253E+02 -0.26009308400E+02 -0.27963693144E+03  0.28532186826E+03  0.00000000000E+00 0.  1.
         12    1    3    3    0    0  0.13966598136E+02 -0.81185000187E+01 -0.74414480803E+03  0.74432014028E+03  0.00000000000E+00 0. -1.
        -11    1    4    4    0    0 -0.60010679121E+02  0.38119649990E+02 -0.22457900739E+03  0.23556340948E+03  0.00000000000E+00 0.  1.
         11    1    4    4    0    0  0.23422943468E+02 -0.13162192974E+02 -0.44187727052E+02  0.51714918802E+02  0.00000000000E+00 0. -1.
          1    1    1    2  501    0 -0.27730336736E+02  0.91703514029E+01 -0.20033590335E+03  0.20245379990E+03  0.00000000000E+00 0. -1.
<scales pt_clust_5="13000.00000" pt_clust_6="13000.00000" pt_clust_7="13000.00000" pt_clust_8="13000.00000" pt_clust_9="29.20732"></scales>
<clustering>
<clus scale="   29.207">  1  9  2 -1</clus>
<clus scale="   82.049">  5  6 -1 -1</clus>
<clus scale="   91.278">  7  8 -1 -1</clus>
<clus scale="  105.236">  2  5  1 -1</clus>
<clus scale="   29.207">  1  5  2 -1</clus>
</clustering>
</event>
<event>
 9    2  0.1654290E-004  0.1460798E+03  0.7546771E-02  0.1219460E+00
         21   -1    0    0  501  502  0.00000000000E+00  0.00000000000E+00  0.24589792199E+03  0.24589792199E+03  0.00000000000E+00 0. -1.
          2   -1    0    0  502    0 -0.00000000000E+00 -0.00000000000E+00 -0.66642423935E+03  0.66642423935E+03  0.00000000000E+00 0. -1.
         23    2    1    2    0    0  0.36968166790E+02  0.44416620189E+02  0.10123710619E+03  0.14822487885E+03  0.91554254591E+02 0.  0.
         24    2    1    2    0    0 -0.46798837478E+02 -0.16464311161E+03 -0.59423958752E+03  0.62337114537E+03  0.78571064144E+02 0.  0.
        -11    1    4    4    0    0 -0.49420981433E+02 -0.75692085813E+02 -0.20429750297E+03  0.22340365928E+03  0.00000000000E+00 0.  1.
         12    1    4    4    0    0  0.26221439545E+01 -0.88951025799E+02 -0.38994208455E+03  0.39996748609E+03  0.00000000000E+00 0. -1.
        -11    1    3    3    0    0 -0.50360372494E+01 -0.25424449399E+02  0.32785440456E+02  0.41792934861E+02  0.00000000000E+00 0. -1.
         11    1    3    3    0    0  0.42004204039E+02  0.69841069588E+02  0.68451665737E+02  0.10643194398E+03  0.00000000000E+00 0.  1.
          1    1    1    2  501    0  0.98306706886E+01  0.12022649142E+03  0.72476163967E+02  0.14072613712E+03  0.00000000000E+00 0. -1.
<scales pt_clust_5="13000.00000" pt_clust_6="13000.00000" pt_clust_7="13000.00000" pt_clust_8="13000.00000" pt_clust_9="123.14995"></scales>
<clustering>
<clus scale="   78.571">  5  6 -1 -1</clus>
<clus scale="   91.554">  7  8 -1 -1</clus>
<clus scale="  108.267">  2  7  1 -1</clus>
<clus scale="  123.150">  1  9  2 -1</clus>
<clus scale="  123.150">  1  5  2 -1</clus>
</clustering>
</event>
<event>
 9    2  0.1654290E-004  0.3129159E+03  0.7546771E-02  0.1079374E+00
         21   -1    0    0  501  502  0.00000000000E+00  0.00000000000E+00  0.45661443803E+02  0.45661443803E+02  0.00000000000E+00 0.  1.
          2   -1    0    0  502    0 -0.00000000000E+00 -0.00000000000E+00 -0.27217686342E+04  0.27217686342E+04  0.00000000000E+00 0. -1.
         24    2    1    2    0    0 -0.24270862213E+03 -0.15647143037E+03 -0.14638090619E+04  0.14941185727E+04  0.79136312691E+02 0.  0.
         23    2    1    2    0    0  0.24593512158E+03  0.19790371385E+03 -0.11642677518E+04  0.12097980303E+04  0.91879879448E+02 0.  0.
        -13    1    3    3    0    0 -0.11874079628E+03 -0.34880095232E+02 -0.52538149750E+03  0.53976079485E+03  0.00000000000E+00 0.  1.
         14    1    3    3    0    0 -0.12396782585E+03 -0.12159133513E+03 -0.93842756439E+03  0.95435777789E+03  0.00000000000E+00 0. -1.
        -11    1    4    4    0    0  0.22725125945E+03  0.20701073510E+03 -0.11063950912E+04  0.11483060033E+04  0.00000000000E+00 0.  1.
         11    1    4    4    0    0  0.18683862133E+02 -0.91070212488E+01 -0.57872660614E+02  0.61492027018E+02  0.00000000000E+00 0. -1.
          1    1    1    2  501    0 -0.32264994558E+01 -0.41432283487E+02 -0.48030376685E+02  0.63513474934E+02  0.00000000000E+00 0. -1.
<scales pt_clust_5="13000.00000" pt_clust_6="13000.00000" pt_clust_7="13000.00000" pt_clust_8="13000.00000" pt_clust_9="41.55772"></scales>
<clustering>
<clus scale="   41.558">  1  9  2 -1</clus>
<clus scale="   79.136">  5  6 -1 -1</clus>
<clus scale="   91.880">  7  8 -1 -1</clus>
<clus scale="  309.414">  2  5  1 -1</clus>
<clus scale="   41.558">  1  5  2 -1</clus>
</clustering>
</event>
<event>
 9    2  0.1654290E-004  0.9788690E+02  0.7546771E-02  0.1291546E+00
          2   -1    0    0  502    0 -0.00000000000E+00  0.00000000000E+00  0.10024248522E+04  0.10024248522E+04  0.00000000000E+00 0. -1.
         21   -1    0    0  501  502  0.00000000000E+00 -0.00000000000E+00 -0.25450975519E+02  0.25450975519E+02  0.00000000000E+00 0.  1.
         24    2    1    2    0    0 -0.34800612634E+01  0.25651205050E+02  0.55096920313E+03  0.55746733620E+03  0.80824952725E+02 0.  0.
         23    2    1    2    0    0 -0.71788048704E+02 -0.36285092406E+02  0.27798613837E+03  0.30401181279E+03  0.93149113363E+02 0.  0.
        -11    1    3    3    0    0  0.16667756799E+02  0.37446536869E+02  0.14107688697E+03  0.14691067108E+03  0.00000000000E+00 0.  1.
         12    1    3    3    0    0 -0.20147818062E+02 -0.11795331819E+02  0.40989231616E+03  0.41055666512E+03  0.00000000000E+00 0. -1.
        -13    1    4    4    0    0 -0.20095937012E+02  0.10084235662E+02  0.59580529020E+01  0.23260199648E+02  0.00000000000E+00 0.  1.
         13    1    4    4    0    0 -0.51692111691E+02 -0.46369328067E+02  0.27202808547E+03  0.28075161314E+03  0.00000000000E+00 0. -1.
          1    1    1    2  501    0  0.75268109967E+02  0.10633887356E+02  0.14801853522E+03  0.16639667877E+03  0.00000000000E+00 0. -1.
<scales pt_clust_5="13000.00000" pt_clust_6="13000.00000" pt_clust_7="13000.00000" pt_clust_8="13000.00000" pt_clust_9="76.01558"></scales>
<clustering>
<clus scale="   76.016">  2  9  1 -1</clus>
<clus scale="   80.825">  5  6 -1 -1</clus>
<clus scale="   86.242">  1  5  2 -1</clus>
<clus scale="   93.149">  7  8 -1 -1</clus>
<clus scale="   76.016">  2  5  1 -1</clus>
</clustering>
</event>
<event>
 9    2  0.1654290E-004  0.2239511E+03  0.7546771E-02  0.1131477E+00
         -1   -1    0    0    0  501 -0.00000000000E+00  0.00000000000E+00  0.95739464249E+03  0.95739464249E+03  0.00000000000E+00 0.  1.
         21   -1    0    0  501  502  0.00000000000E+00 -0.00000000000E+00 -0.11347187849E+03  0.11347187849E+03  0.00000000000E+00 0.  1.
         23    2    1    2    0    0 -0.85536894518E+02  0.21780414981E+03  0.43631600305E+03  0.50341918272E+03  0.91126346427E+02 0.  0.
         24    2    1    2    0    0 -0.56491626606E+02 -0.17043345330E+03  0.92942884140E+02  0.21898006710E+03  0.84113163031E+02 0.  0.
        -13    1    4    4    0    0 -0.68135827399E+02 -0.76199523612E+02  0.36619586555E+02  0.10858108718E+03  0.00000000000E+00 0.  1.
         14    1    4    4    0    0  0.11644200793E+02 -0.94233929684E+02  0.56323297586E+02  0.11039897992E+03  0.00000000000E+00 0. -1.
        -13    1    3    3    0    0 -0.41709317728E+02  0.65229460995E+02  0.23265014733E+03  0.24519510766E+03  0.00000000000E+00 0.  1.
         13    1    3    3    0    0 -0.43827576790E+02  0.15257468882E+03  0.20366585572E+03  0.25822407506E+03  0.00000000000E+00 0. -1.
         -2    1    1    2    0  502  0.14202852112E+03 -0.47370696515E+02  0.31466387681E+03  0.34846727116E+03  0.00000000000E+00 0.  1.
<scales pt_clust_5="13000.00000" pt_clust_6="13000.00000" pt_clust_7="13000.00000" pt_clust_8="13000.00000" pt_clust_9="149.72009"></scales>
<clustering>
<clus scale="   84.113">  5  6 -1 -1</clus>
<clus scale="   91.126">  7  8 -1 -1</clus>
<clus scale="  149.720">  2  9  1 -1</clus>
<clus scale="  221.190">  2  5  1 -1</clus>
<clus scale="  149.720">  2  5  1 -1</clus>
</clustering>
</event>
<event>
 9    2  0.1654290E-004  0.1963452E+03  0.7546771E-02  0.1178170E+00
         -1   -1    0    0    0  501 -0.00000000000E+00  0.00000000000E+00  0.47074864010E+03  0.47074864010E+03  0.00000000000E+00 0.  1.
         21   -1    0    0  501  502  0.00000000000E+00 -0.00000000000E+00 -0.72398538623E+03  0.72398538623E+03  0.00000000000E+00 0. -1.
         24    2    1    2    0    0  0.74112878726E+02 -0.28243400747E+02 -0.12517999614E+03  0.16634131513E+03  0.75557879841E+02 0.  0.
         23    2    1    2    0    0  0.21689459444E+02 -0.17130421682E+03 -0.53263056242E+03  0.56722320942E+03  0.90726434597E+02 0.  0.
        -11    1    3    3    0    0  0.71853232214E+02 -0.48104009976E+02 -0.83931055061E+02  0.12050437651E+03  0.00000000000E+00 0.  1.
         12    1    3    3    0    0  0.22596465111E+01  0.19860609229E+02 -0.41248941080E+02  0.45836938615E+02  0.00000000000E+00 0. -1.
        -11    1    4    4    0    0  0.32915634872E+02 -0.13484351930E+02 -0.12504111759E+03  0.13000210712E+03  0.00000000000E+00 0.  1.
         11    1    4    4    0    0 -0.11226175428E+02 -0.15781986489E+03 -0.40758944483E+03  0.43722110231E+03  0.00000000000E+00 0. -1.
         -2    1    1    2    0  502 -0.95802338169E+02  0.19954761756E+03  0.40457381242E+03  0.46116950178E+03  0.00000000000E+00 0.  1.
<scales pt_clust_5="13000.00000" pt_clust_6="13000.00000" pt_clust_7="13000.00000" pt_clust_8="13000.00000" pt_clust_9="174.12695"></scales>
<clustering>
<clus scale="   75.558">  5  6 -1 -1</clus>
<clus scale="   90.726">  7  8 -1 -1</clus>
<clus scale="  109.542">  1  5  2 -1</clus>
<clus scale="  174.127">  2  9  1 -1</clus>
<clus scale="  174.127">  2  5  1 -1</clus>
</clustering>
</event>
<event>
 9    2  0.1654290E-004  0.2922397E+03  0.7546771E-02  0.1108566E+00
          2   -1    0    0  502    0 -0.00000000000E+00  0.00000000000E+00  0.21578474826E+04  0.21578474826E+04  0.00000000000E+00 0. -1.
         21   -1    0    0  501  502  0.00000000000E+00 -0.00000000000E+00 -0.87375417947E+02  0.87375417947E+02  0.00000000000E+00 0.  1.
         23    2    1    2    0    0  0.14826855628E+03 -0.30001874918E+02  0.99736232458E+03  0.10128687037E+04  0.91036955056E+02 0.  0.
         24    2    1    2    0    0 -0.25197814049E+03 -0.19316327870E+03  0.40735063956E+03  0.52257004404E+03  0.79623312244E+02 0.  0.
        -13    1    4    4    0    0 -0.22331589246E+03 -0.13617823092E+03  0.30312106139E+03  0.40037092335E+03  0.00000000000E+00 0.  1.
         14    1    4    4    0    0 -0.28662248029E+02 -0.56985047778E+02  0.10422957817E+03  0.12219912069E+03  0.00000000000E+00 0. -1.
        -11    1    3    3    0    0  0.11255581011E+03 -0.61656506961E+02  0.75946105479E+03  0.77022816683E+03  0.00000000000E+00 0.  1.
         11    1    3    3    0    0  0.35712746170E+02  0.31654632043E+02  0.23790126979E+03  0.24264053688E+03  0.00000000000E+00 0. -1.
          1    1    1    2  501    0  0.10370958421E+03  0.22316515362E+03  0.66575910052E+03  0.70978415280E+03  0.00000000000E+00 0. -1.
<scales pt_clust_5="13000.00000" pt_clust_6="13000.00000" pt_clust_7="13000.00000" pt_clust_8="13000.00000" pt_clust_9="281.18363"></scales>
<clustering>
<clus scale="   79.623">  5  6 -1 -1</clus>
<clus scale="   91.037">  7  8 -1 -1</clus>
<clus scale="  176.554">  1  7  2 -1</clus>
<clus scale="  281.184">  2  9  1 -1</clus>
<clus scale="  281.184">  2  5  1 -1</clus>
</clustering>
</event>
<event>
 9    2  0.1654290E-004  0.1074643E+03  0.7546771E-02  0.1268621E+00
         21   -1    0    0  501  502  0.00000000000E+00  0.00000000000E+00  0.86153305240E+02  0.86153305240E+02  0.00000000000E+00 0.  1.
         -1   -1    0    0    0  501 -0.00000000000E+00 -0.00000000000E+00 -0.54019066643E+03  0.54019066643E+03  0.00000000000E+00 0.  1.
         23    2    1    2    0    0 -0.42291239940E+02 -0.46723568037E+02 -0.35082038228E+03  0.36820425689E+03  0.92346052342E+02 0.  0.
         24    2    1    2    0    0  0.15106766659E+02  0.42759354473E+02 -0.16481317604E+03  0.19069490714E+03  0.84525663679E+02 0.  0.
        -11    1    4    4    0    0  0.18780611488E+02 -0.20354608699E+02 -0.81719625311E+02  0.86285100824E+02  0.00000000000E+00 0.  1.
         12    1    4    4    0    0 -0.36738448290E+01  0.63113963172E+02 -0.83093550729E+02  0.10440980632E+03  0.00000000000E+00 0. -1.
        -13    1    3    3    0    0 -0.56217957626E+02 -0.22814816116E+01 -0.26135247197E+03  0.26734019249E+03  0.00000000000E+00 0.  1.
         13    1    3    3    0    0  0.13926717686E+02 -0.44442086425E+02 -0.89467910312E+02  0.10086406440E+03  0.00000000000E+00 0. -1.
         -2    1    1    2    0  502  0.27184473281E+02  0.39642135634E+01  0.61596197128E+02  0.67444807638E+02  0.00000000000E+00 0.  1.
<scales pt_clust_5="13000.00000" pt_clust_6="13000.00000" pt_clust_7="13000.00000" pt_clust_8="13000.00000" pt_clust_9="27.47200"></scales>
<clustering>
<clus scale="   27.472">  1  9  2 -1</clus>
<clus scale="   84.526">  5  6 -1 -1</clus>
<clus scale="   92.346">  7  8 -1 -1</clus>
<clus scale="  100.823">  1  5  2 -1</clus>
<clus scale="   27.472">  1  5  2 -1</clus>
</clustering>
</event>
<event>
 9    2  0.1654290E-004  0.1328420E+03  0.7546771E-02  0.1224827E+00
          2   -1    0    0  502    0 -0.00000000000E+00  0.00000000000E+00  0.36664445900E+03  0.36664445900E+03  0.00000000000E+00 0. -1.
         21   -1    0    0  501  502  0.00000000000E+00 -0.00000000000E+00 -0.77864466562E+02  0.77864466562E+02  0.00000000000E+00 0. -1.
         23    2    1    2    0    0  0.41977191530E+02 -0.90310025381E+02  0.11531294024E+03  0.17500644669E+03  0.86094116537E+02 0.  0.
         24    2    1    2    0    0  0.21567566862E+02  0.11182820523E+03  0.11047327549E+03  0.17747430772E+03  0.79511495243E+02 0.  0.
        -13    1    4    4    0    0 -0.24199803772E+02  0.29721216207E+02  0.94362631670E+01  0.39471815996E+02  0.00000000000E+00 0.  1.
         14    1    4    4    0    0  0.45767370634E+02  0.82106989024E+02  0.10103701233E+03  0.13800249172E+03  0.00000000000E+00 0. -1.
        -13    1    3    3    0    0 -0.24313924838E+02 -0.19654498905E+02  0.12316998340E+02  0.33603195032E+02  0.00000000000E+00 0.  1.
         13    1    3    3    0    0  0.66291116368E+02 -0.70655526476E+02  0.10299594190E+03  0.14140325166E+03  0.00000000000E+00 0. -1.
          1    1    1    2  501    0 -0.63544758392E+02 -0.21518179850E+02  0.62993776696E+02  0.92028171152E+02  0.00000000000E+00 0. -1.
<scales pt_clust_5="13000.00000" pt_clust_6="13000.00000" pt_clust_7="13000.00000" pt_clust_8="13000.00000" pt_clust_9="67.08929"></scales>
<clustering>
<clus scale="   67.089">  2  9  1 -1</clus>
<clus scale="   79.511">  5  6 -1 -1</clus>
<clus scale="   86.094">  7  8 -1 -1</clus>
<clus scale="  128.674">  2  5  1 -1</clus>
<clus scale="   67.089">  2  5  1 -1</clus>
</clustering>
</event>
<event>
 9    2  0.1654290E-004  0.1955944E+03  0.7546771E-02  0.1155158E+00
         21   -1    0    0  501  502  0.00000000000E+00  0.00000000000E+00  0.28131967896E+03  0.28131967896E+03  0.00000000000E+00 0. -1.
          2   -1    0    0  502    0 -0.00000000000E+00 -0.00000000000E+00 -0.33779291792E+03  0.33779291792E+03  0.00000000000E+00 0. -1.
         23    2    1    2    0    0 -0.12468705555E+03 -0.12542163883E+03  0.27319209210E+02  0.20128350828E+03  0.92148045028E+02 0.  0.
         24    2    1    2    0    0 -0.74051699428E+02  0.17234467472E+03 -0.25605787436E+02  0.20549785794E+03  0.79921037126E+02 0.  0.
        -13    1    4    4    0    0  0.11733243995E+02  0.55434230979E+02  0.63321062365E+01  0.57015072992E+02  0.00000000000E+00 0.  1.
         14    1    4    4    0    0 -0.85784943422E+02  0.11691044374E+03 -0.31937893673E+02  0.14848278495E+03  0.00000000000E+00 0. -1.
        -11    1    3    3    0    0 -0.69081261195E+02 -0.82414561003E+01  0.13208995621E+02  0.70813980345E+02  0.00000000000E+00 0.  1.
         11    1    3    3    0    0 -0.55605794359E+02 -0.11718018273E+03  0.14110213589E+02  0.13046952793E+03  0.00000000000E+00 0. -1.
          1    1    1    2  501    0  0.19873875498E+03 -0.46923035884E+02 -0.58186660741E+02  0.21233123067E+03  0.00000000000E+00 0. -1.
<scales pt_clust_5="13000.00000" pt_clust_6="13000.00000" pt_clust_7="13000.00000" pt_clust_8="13000.00000" pt_clust_9="174.40094"></scales>
<clustering>
<clus scale="   79.921">  5  6 -1 -1</clus>
<clus scale="   92.148">  7  8 -1 -1</clus>
<clus scale="  199.421">  2  7  1 -1</clus>
<clus scale="  174.401">  1  9  2 -1</clus>
<clus scale="  174.401">  1  5  2 -1</clus>
</clustering>
</event>
<event>
 9    2  0.2184076E-004  0.2371817E+03  0.7546771E-02  0.1122103E+00
          2   -1    0    0  502    0 -0.00000000000E+00  0.00000000000E+00  0.54538188407E+03  0.54538188407E+03  0.00000000000E+00 0. -1.
         21   -1    0    0  501  502  0.00000000000E+00 -0.00000000000E+00 -0.21165903006E+03  0.21165903006E+03  0.00000000000E+00 0. -1.
         24    2    1    2    0    0 -0.37260278306E+02  0.20496861419E+03  0.76477925316E+02  0.24015440696E+03  0.91786736406E+02 0.  0.
         23    2    1    2    0    0  0.69430436534E+01 -0.23637678557E+03 -0.46195392155E+01  0.25140843368E+03  0.85221298803E+02 0.  0.
        -11    1    3    3    0    0 -0.24968608066E+02  0.24049854397E+02  0.43863185726E+02  0.55908907585E+02  0.00000000000E+00 0.  1.
         12    1    3    3    0    0 -0.12291670240E+02  0.18091875979E+03  0.32614739590E+02  0.18424549938E+03  0.00000000000E+00 0. -1.
        -13    1    4    4    0    0  0.33676156131E+02 -0.40671604454E+02  0.83516532865E+01  0.53460387328E+02  0.00000000000E+00 0.  1.
         13    1    4    4    0    0 -0.26733112478E+02 -0.19570518112E+03 -0.12971192502E+02  0.19794804635E+03  0.00000000000E+00 0. -1.
          1    1    1    2  501    0  0.30317234653E+02  0.31408171382E+02  0.26186446791E+03  0.26547807348E+03  0.00000000000E+00 0. -1.
<scales pt_clust_5="13000.00000" pt_clust_6="13000.00000" pt_clust_7="13000.00000" pt_clust_8="13000.00000" pt_clust_9="43.65329"></scales>
<clustering>
<clus scale="   43.653">  2  9  1 -1</clus>
<clus scale="   85.221">  7  8 -1 -1</clus>
<clus scale="   91.787">  5  6 -1 -1</clus>
<clus scale="  234.719">  2  7  1 -1</clus>
<clus scale="   43.653">  2  5  1 -1</clus>
</clustering>
</event>
<event>
 9    2  0.1654290E-004  0.9300030E+02  0.7546771E-02  0.1299481E+00
          2   -1    0    0  502    0 -0.00000000000E+00  0.00000000000E+00  0.67001338729E+03  0.67001338729E+03  0.00000000000E+00 0. -1.
         21   -1    0    0  501  502  0.00000000000E+00 -0.00000000000E+00 -0.24473632813E+02  0.24473632813E+02  0.00000000000E+00 0. -1.
         24    2    1    2    0    0 -0.15245708136E+02 -0.13478603656E+02  0.38208910786E+03  0.39140503742E+03  0.82411847460E+02 0.  0.
         23    2    1    2    0    0  0.11410773394E+01  0.54464566072E+02  0.20818333543E+03  0.23284477452E+03  0.88930854332E+02 0.  0.
        -11    1    3    3    0    0  0.32616226664E+02  0.60383708255E+01  0.15431793306E+03  0.15784265782E+03  0.00000000000E+00 0.  1.
         12    1    3    3    0    0 -0.47861934800E+02 -0.19516974481E+02  0.22777117480E+03  0.23356237960E+03  0.00000000000E+00 0. -1.
        -13    1    4    4    0    0 -0.39042869392E+02  0.76868505414E+01  0.56512822913E+02  0.69116803133E+02  0.00000000000E+00 0.  1.
         13    1    4    4    0    0  0.40183946732E+02  0.46777715530E+02  0.15167051252E+03  0.16372797138E+03  0.00000000000E+00 0. -1.
          1    1    1    2  501    0  0.14104630797E+02 -0.40985962416E+02  0.55267311181E+02  0.70237208161E+02  0.00000000000E+00 0. -1.
<scales pt_clust_5="13000.00000" pt_clust_6="13000.00000" pt_clust_7="13000.00000" pt_clust_8="13000.00000" pt_clust_9="43.34501"></scales>
<clustering>
<clus scale="   43.345">  2  9  1 -1</clus>
<clus scale="   82.412">  5  6 -1 -1</clus>
<clus scale="   86.788">  1  5  2 -1</clus>
<clus scale="   88.931">  7  8 -1 -1</clus>
<clus scale="   43.345">  2  5  1 -1</clus>
</clustering>
</event>
<event>
 9    2  0.1654290E-004  0.1964234E+03  0.7546771E-02  0.1172409E+00
          2   -1    0    0  502    0 -0.00000000000E+00  0.00000000000E+00  0.82028443946E+03  0.82028443946E+03  0.00000000000E+00 0. -1.
         21   -1    0    0  501  502  0.00000000000E+00 -0.00000000000E+00 -0.12413409320E+03  0.12413409320E+03  0.00000000000E+00 0. -1.
         24    2    1    2    0    0 -0.94632374513E+02 -0.31056927997E+01 -0.14162601376E+02  0.12547178837E+03  0.81102766696E+02 0.  0.
         23    2    1    2    0    0  0.18991285103E+03 -0.12048986311E+03  0.51161091093E+03  0.56628742813E+03  0.91383964584E+02 0.  0.
        -11    1    3    3    0    0 -0.33441070093E+02  0.24259852924E+02  0.24556501711E+02  0.48061079983E+02  0.00000000000E+00 0.  1.
         12    1    3    3    0    0 -0.61191304420E+02 -0.27365545724E+02 -0.38719103087E+02  0.77410708389E+02  0.00000000000E+00 0. -1.
        -13    1    4    4    0    0  0.33294901278E+02  0.14182379362E+02  0.73702694124E+02  0.82108327572E+02  0.00000000000E+00 0.  1.
         13    1    4    4    0    0  0.15661794975E+03 -0.13467224247E+03  0.43790821680E+03  0.48417910056E+03  0.00000000000E+00 0. -1.
          1    1    1    2  501    0 -0.95280476516E+02  0.12359555591E+03  0.19870203671E+03  0.25265931615E+03  0.00000000000E+00 0. -1.
<scales pt_clust_5="13000.00000" pt_clust_6="13000.00000" pt_clust_7="13000.00000" pt_clust_8="13000.00000" pt_clust_9="173.87100"></scales>
<clustering>
<clus scale="   81.103">  5  6 -1 -1</clus>
<clus scale="   91.384">  7  8 -1 -1</clus>
<clus scale="  124.670">  1  5  2 -1</clus>
<clus scale="  173.871">  2  9  1 -1</clus>
<clus scale="  173.871">  2  5  1 -1</clus>
</clustering>
</event>
<event>
 9    2  0.1654290E-004  0.2294409E+03  0.7546771E-02  0.1127861E+00
         21   -1    0    0  501  502  0.00000000000E+00  0.00000000000E+00  0.66839607609E+02  0.66839607609E+02  0.00000000000E+00 0.  1.
          2   -1    0    0  502    0 -0.00000000000E+00 -0.00000000000E+00 -0.16362084323E+04  0.16362084323E+04  0.00000000000E+00 0. -1.
         24    2    1    2    0    0  0.10663125211E+03  0.15337090274E+03 -0.44873664325E+03  0.49254552799E+03  0.79647124285E+02 0.  0.
         23    2    1    2    0    0 -0.22997115391E+03 -0.13363915980E+03 -0.46856643766E+03  0.54658097495E+03  0.91924420106E+02 0.  0.
        -11    1    3    3    0    0  0.10911957946E+03  0.11289086176E+03 -0.30289454408E+03  0.34116936282E+03  0.00000000000E+00 0.  1.
         12    1    3    3    0    0 -0.24883273482E+01  0.40480040983E+02 -0.14584209917E+03  0.15137616517E+03  0.00000000000E+00 0. -1.
        -13    1    4    4    0    0 -0.37086607208E+02 -0.39923356029E+02 -0.40804701741E+02  0.68075799481E+02  0.00000000000E+00 0. -1.
         13    1    4    4    0    0 -0.19288454670E+03 -0.93715803771E+02 -0.42776173592E+03  0.47850517547E+03  0.00000000000E+00 0.  1.
          1    1    1    2  501    0  0.12333990180E+03 -0.19731742938E+02 -0.65206574379E+03  0.66392153699E+03  0.00000000000E+00 0. -1.
<scales pt_clust_5="13000.00000" pt_clust_6="13000.00000" pt_clust_7="13000.00000" pt_clust_8="13000.00000" pt_clust_9="124.90832"></scales>
<clustering>
<clus scale="   79.647">  5  6 -1 -1</clus>
<clus scale="   91.924">  7  8 -1 -1</clus>
<clus scale="  124.908">  1  9  2 -1</clus>
<clus scale="  224.804">  2  5  1 -1</clus>
<clus scale="  124.908">  1  5  2 -1</clus>
</clustering>
</event>
<event>
 9    2  0.1654290E-004  0.1070278E+03  0.7546771E-02  0.1270444E+00
          2   -1    0    0  502    0 -0.00000000000E+00  0.00000000000E+00  0.62377267572E+03  0.62377267572E+03  0.00000000000E+00 0. -1.
         21   -1    0    0  501  502  0.00000000000E+00 -0.00000000000E+00 -0.43082291445E+02  0.43082291445E+02  0.00000000000E+00 0.  1.
         24    2    1    2    0    0  0.58016357641E+02  0.23188247185E+02  0.32868423786E+03  0.34431343327E+03  0.81331540936E+02 0.  0.
         23    2    1    2    0    0 -0.49460029963E+02  0.58217207105E+02  0.15797428416E+03  0.19787377604E+03  0.91447356541E+02 0.  0.
        -11    1    3    3    0    0  0.75845352098E+02  0.32014724717E+02  0.27515960338E+03  0.28721118949E+03  0.00000000000E+00 0.  1.
         12    1    3    3    0    0 -0.17828994457E+02 -0.88264775327E+01  0.53524634480E+02  0.57102243784E+02  0.00000000000E+00 0. -1.
        -13    1    4    4    0    0 -0.17857713101E+01  0.22786336690E+02  0.13039827129E+03  0.13238623522E+03  0.00000000000E+00 0. -1.
         13    1    4    4    0    0 -0.47674258653E+02  0.35430870415E+02  0.27576012871E+02  0.65487540818E+02  0.00000000000E+00 0.  1.
          1    1    1    2  501    0 -0.85563276779E+01 -0.81405454290E+02  0.94031862257E+02  0.12466775786E+03  0.00000000000E+00 0. -1.
<scales pt_clust_5="13000.00000" pt_clust_6="13000.00000" pt_clust_7="13000.00000" pt_clust_8="13000.00000" pt_clust_9="81.85389"></scales>
<clustering>
<clus scale="   81.332">  5  6 -1 -1</clus>
<clus scale="   81.854">  2  9  1 -1</clus>
<clus scale="   91.447">  7  8 -1 -1</clus>
<clus scale="   98.525">  1  5  2 -1</clus>
<clus scale="   81.854">  2  5  1 -1</clus>
</clustering>
</event>
<event>
 9    2  0.1654290E-004  0.9518389E+02  0.7546771E-02  0.1296516E+00
          2   -1    0    0  502    0 -0.00000000000E+00  0.00000000000E+00  0.24597763368E+03  0.24597763368E+03  0.00000000000E+00 0. -1.
         21   -1    0    0  501  502  0.00000000000E+00 -0.00000000000E+00 -0.23823876851E+03  0.23823876851E+03  0.00000000000E+00 0.  1.
         24    2    1    2    0    0  0.25978315987E+02  0.38472702544E+01  0.20379021649E+03  0.22122391803E+03  0.81974966803E+02 0.  0.
         23    2    1    2    0    0  0.13353125496E+02  0.36656144231E+02 -0.17724931678E+03  0.20348613680E+03  0.92017980304E+02 0.  0.
        -13    1    3    3    0    0  0.37806451237E+01  0.27881124986E+02  0.19940338529E+02  0.34485758055E+02  0.00000000000E+00 0.  1.
         14    1    3    3    0    0  0.22197670864E+02 -0.24033854731E+02  0.18384987796E+03  0.18673815997E+03  0.00000000000E+00 0. -1.
        -11    1    4    4    0    0 -0.32777806359E+02  0.23441688720E+02 -0.35048195101E+02  0.53406678792E+02  0.00000000000E+00 0. -1.
         11    1    4    4    0    0  0.46130931855E+02  0.13214455511E+02 -0.14220112168E+03  0.15007945800E+03  0.00000000000E+00 0.  1.
          1    1    1    2  501    0 -0.39331441483E+02 -0.40503414486E+02 -0.18802034538E+02  0.59506347366E+02  0.00000000000E+00 0. -1.
<scales pt_clust_5="13000.00000" pt_clust_6="13000.00000" pt_clust_7="13000.00000" pt_clust_8="13000.00000" pt_clust_9="56.45785"></scales>
<clustering>
<clus scale="   56.458">  2  9  1 -1</clus>
<clus scale="   81.975">  5  6 -1 -1</clus>
<clus scale="   85.514">  1  5  2 -1</clus>
<clus scale="   92.018">  7  8 -1 -1</clus>
<clus scale="   56.458">  2  5  1 -1</clus>
</clustering>
</event>
<event>
 9    2  0.1654290E-004  0.9444520E+02  0.7546771E-02  0.1300785E+00
         21   -1    0    0  501  502  0.00000000000E+00  0.00000000000E+00  0.10817104789E+03  0.10817104789E+03  0.00000000000E+00 0. -1.
          2   -1    0    0  502    0 -0.00000000000E+00 -0.00000000000E+00 -0.23496125399E+03  0.23496125399E+03  0.00000000000E+00 0. -1.
         24    2    1    2    0    0  0.12372151166E+02 -0.55954684868E+01 -0.12983162905E+03  0.15354740995E+03  0.80846619036E+02 0.  0.
         23    2    1    2    0    0  0.23842700402E+02 -0.21000965263E+02 -0.56868832415E+02  0.11469748004E+03  0.94403034499E+02 0.  0.
        -13    1    3    3    0    0 -0.23629864075E+02 -0.16825820445E+02 -0.10366152393E+03  0.10764381196E+03  0.00000000000E+00 0.  1.
         14    1    3    3    0    0  0.36002015242E+02  0.11230351958E+02 -0.26170105114E+02  0.45903597988E+02  0.00000000000E+00 0. -1.
        -11    1    4    4    0    0 -0.33085009237E+02  0.68887427859E+01 -0.32186205323E+02  0.46669309257E+02  0.00000000000E+00 0.  1.
         11    1    4    4    0    0  0.56927709639E+02 -0.27889708049E+02 -0.24682627092E+02  0.68028170782E+02  0.00000000000E+00 0. -1.
          1    1    1    2  501    0 -0.36214851569E+02  0.26596433750E+02  0.59910255366E+02  0.74887411895E+02  0.00000000000E+00 0. -1.
<scales pt_clust_5="13000.00000" pt_clust_6="13000.00000" pt_clust_7="13000.00000" pt_clust_8="13000.00000" pt_clust_9="44.93201"></scales>
<clustering>
<clus scale="   44.932">  1  9  2 -1</clus>
<clus scale="   80.847">  5  6 -1 -1</clus>
<clus scale="   80.896">  2  5  1 -1</clus>
<clus scale="   94.403">  7  8 -1 -1</clus>
<clus scale="   44.932">  1  5  2 -1</clus>
</clustering>
</event>
<event>
 9    2  0.1654290E-004  0.1287362E+03  0.7546771E-02  0.1231225E+00
         21   -1    0    0  501  502  0.00000000000E+00  0.00000000000E+00  0.17466098751E+03  0.17466098751E+03  0.00000000000E+00 0.  1.
          2   -1    0    0  502    0 -0.00000000000E+00 -0.00000000000E+00 -0.39426856640E+03  0.39426856640E+03  0.00000000000E+00 0. -1.
         23    2    1    2    0    0  0.11043732772E+03  0.21438060592E+02  0.26967407262E+01  0.14293908533E+03  0.88138050280E+02 0.  0.
         24    2    1    2    0    0 -0.71366481796E+02  0.39685780824E+02  0.63403636190E+02  0.13121650263E+03  0.80806024257E+02 0.  0.
        -11    1    4    4    0    0 -0.56294216685E+02  0.64615280327E+02  0.45592238379E+02  0.97071239223E+02  0.00000000000E+00 0.  1.
         12    1    4    4    0    0 -0.15072265111E+02 -0.24929499502E+02  0.17811397811E+02  0.34145263405E+02  0.00000000000E+00 0. -1.
        -11    1    3    3    0    0  0.24485656723E+02  0.39575484454E+02 -0.22303544471E+02  0.51606341189E+02  0.00000000000E+00 0. -1.
         11    1    3    3    0    0  0.85951670997E+02 -0.18137423862E+02  0.25000285197E+02  0.91332744137E+02  0.00000000000E+00 0.  1.
          1    1    1    2  501    0 -0.39070845925E+02 -0.61123841416E+02 -0.28570795581E+03  0.29477396595E+03  0.00000000000E+00 0. -1.
<scales pt_clust_5="13000.00000" pt_clust_6="13000.00000" pt_clust_7="13000.00000" pt_clust_8="13000.00000" pt_clust_9="72.54420"></scales>
<clustering>
<clus scale="   72.544">  1  9  2 -1</clus>
<clus scale="   80.806">  5  6 -1 -1</clus>
<clus scale="   88.138">  7  8 -1 -1</clus>
<clus scale="  123.832">  1  5  2 -1</clus>
<clus scale="   72.544">  1  5  2 -1</clus>
</clustering>
</event>
<event>
 9    2  0.1654290E-004  0.1021308E+03  0.7546771E-02  0.1283279E+00
         21   -1    0    0  501  502  0.00000000000E+00  0.00000000000E+00  0.47418537405E+03  0.47418537405E+03  0.00000000000E+00 0. -1.
          4   -1    0    0  502    0 -0.00000000000E+00 -0.00000000000E+00 -0.24350790143E+03  0.24350790143E+03  0.00000000000E+00 0. -1.
         24    2    1    2    0    0  0.24114126392E+02 -0.27370682301E+02 -0.15905700116E+03  0.18172841634E+03  0.79971509596E+02 0.  0.
         23    2    1    2    0    0  0.20177576103E+02  0.67981430143E+02 -0.21638193771E+02  0.12022640848E+03  0.94644431667E+02 0.  0.
        -11    1    3    3    0    0 -0.16516908057E+02 -0.40397059255E+02 -0.97581379175E+02  0.10689647426E+03  0.00000000000E+00 0.  1.
         12    1    3    3    0    0  0.40631034448E+02  0.13026376954E+02 -0.61475621982E+02  0.74831942077E+02  0.00000000000E+00 0. -1.
        -11    1    4    4    0    0 -0.35436213087E+02  0.98372284980E+01 -0.14206862678E+02  0.39425007414E+02  0.00000000000E+00 0.  1.
         11    1    4    4    0    0  0.55613789190E+02  0.58144201645E+02 -0.74313310923E+01  0.80801401070E+02  0.00000000000E+00 0. -1.
          3    1    1    2  501    0 -0.44291702495E+02 -0.40610747842E+02  0.41137266755E+03  0.41573845066E+03  0.00000000000E+00 0. -1.
<scales pt_clust_5="13000.00000" pt_clust_6="13000.00000" pt_clust_7="13000.00000" pt_clust_8="13000.00000" pt_clust_9="60.09149"></scales>
<clustering>
<clus scale="   60.091">  1  9  2 -1</clus>
<clus scale="   79.972">  5  6 -1 -1</clus>
<clus scale="   88.705">  2  5  1 -1</clus>
<clus scale="   94.644">  7  8 -1 -1</clus>
<clus scale="   60.091">  1  5  2 -1</clus>
</clustering>
</event>
<event>
 9    2  0.1654290E-004  0.9962619E+02  0.7546771E-02  0.1293226E+00
         -1   -1    0    0    0  501 -0.00000000000E+00  0.00000000000E+00  0.13576916125E+03  0.13576916125E+03  0.00000000000E+00 0.  1.
         21   -1    0    0  501  502  0.00000000000E+00 -0.00000000000E+00 -0.42857933007E+03  0.42857933007E+03  0.00000000000E+00 0.  1.
         24    2    1    2    0    0  0.12781319367E+02  0.82530141989E+01  0.88767493217E+02  0.11977025198E+03  0.78954233822E+02 0.  0.
         23    2    1    2    0    0  0.43178358134E+02  0.38044628856E+02 -0.95279468092E+02  0.14921132666E+03  0.99368398228E+02 0.  0.
        -13    1    3    3    0    0  0.12392722791E+02  0.31792037040E+02  0.89943696508E+02  0.96198657677E+02  0.00000000000E+00 0.  1.
         14    1    3    3    0    0  0.38859657589E+00 -0.23539022841E+02 -0.11762032914E+01  0.23571594299E+02  0.00000000000E+00 0. -1.
        -11    1    4    4    0    0  0.44085024897E+02 -0.24292480577E+02 -0.57044493988E+02  0.76076858026E+02  0.00000000000E+00 0. -1.
         11    1    4    4    0    0 -0.90666676298E+00  0.62337109432E+02 -0.38234974104E+02  0.73134468630E+02  0.00000000000E+00 0.  1.
         -2    1    1    2    0  502 -0.55959677501E+02 -0.46297643054E+02 -0.28629819394E+03  0.29536691269E+03  0.00000000000E+00 0.  1.
<scales pt_clust_5="13000.00000" pt_clust_6="13000.00000" pt_clust_7="13000.00000" pt_clust_8="13000.00000" pt_clust_9="72.62890"></scales>
<clustering>
<clus scale="   72.629">  2  9  1 -1</clus>
<clus scale="   78.954">  5  6 -1 -1</clus>
<clus scale="   79.278">  1  5  2 -1</clus>
<clus scale="   99.368">  7  8 -1 -1</clus>
<clus scale="   72.629">  2  5  1 -1</clus>
</clustering>
</event>
<event>
 9    2  0.1654290E-004  0.1772735E+03  0.7546771E-02  0.1171733E+00
         21   -1    0    0  501  502  0.00000000000E+00  0.00000000000E+00  0.36334730050E+02  0.36334730050E+02  0.00000000000E+00 0.  1.
          2   -1    0    0  502    0 -0.00000000000E+00 -0.00000000000E+00 -0.16450912531E+04  0.16450912531E+04  0.00000000000E+00 0. -1.
         24    2    1    2    0    0  0.84707777077E+02  0.10019382536E+03 -0.54366389141E+03  0.56504091798E+03  0.80539443913E+02 0.  0.
         23    2    1    2    0    0 -0.10019876304E+03 -0.17285229262E+03 -0.49500251519E+03  0.54147466835E+03  0.90827414561E+02 0.  0.
        -13    1    3    3    0    0  0.43639764625E+01  0.22993877982E+02 -0.23834650975E+02  0.33404390464E+02  0.00000000000E+00 0.  1.
         14    1    3    3    0    0  0.80343800614E+02  0.77199947376E+02 -0.51982924044E+03  0.53163652751E+03  0.00000000000E+00 0. -1.
        -11    1    4    4    0    0 -0.10371409818E+03 -0.10150866876E+03 -0.28805691247E+03  0.32254830463E+03  0.00000000000E+00 0. -1.
         11    1    4    4    0    0  0.35153351388E+01 -0.71343623854E+02 -0.20694560272E+03  0.21892636372E+03  0.00000000000E+00 0.  1.
          1    1    1    2  501    0  0.15490985963E+02  0.72658467259E+02 -0.57009011645E+03  0.57491039683E+03  0.00000000000E+00 0. -1.
<scales pt_clust_5="13000.00000" pt_clust_6="13000.00000" pt_clust_7="13000.00000" pt_clust_8="13000.00000" pt_clust_9="74.29151"></scales>
<clustering>
<clus scale="   74.292">  1  9  2 -1</clus>
<clus scale="   80.539">  5  6 -1 -1</clus>
<clus scale="   90.827">  7  8 -1 -1</clus>
<clus scale="  172.229">  2  5  1 -1</clus>
<clus scale="   74.292">  1  5  2 -1</clus>
</clustering>
</event>
<event>
 9    2  0.1654290E-004  0.1348539E+03  0.7546771E-02  0.1221831E+00
         -1   -1    0    0    0  501 -0.00000000000E+00  0.00000000000E+00  0.91698466412E+03  0.91698466412E+03  0.00000000000E+00 0.  1.
         21   -1    0    0  501  502  0.00000000000E+00 -0.00000000000E+00 -0.38545618302E+02  0.38545618302E+02  0.00000000000E+00 0.  1.
         24    2    1    2    0    0 -0.13064224578E+03 -0.18874017400E+02  0.58634400867E+03  0.60665827649E+03  0.82530860973E+02 0.  0.
         23    2    1    2    0    0  0.47554913950E+02 -0.20945625701E+01  0.11967450531E+03  0.15633103404E+03  0.88608960893E+02 0.  0.
        -13    1    3    3    0    0 -0.10561163082E+03 -0.22518996797E+02  0.29369234225E+03  0.31291550565E+03  0.00000000000E+00 0.  1.
         14    1    3    3    0    0 -0.25030614964E+02  0.36449793973E+01  0.29265166642E+03  0.29374277084E+03  0.00000000000E+00 0. -1.
        -13    1    4    4    0    0  0.22514733883E+02 -0.39292953299E+02  0.94779133376E+02  0.10504253207E+03  0.00000000000E+00 0.  1.
         13    1    4    4    0    0  0.25040180067E+02  0.37198390729E+02  0.24895371937E+02  0.51288501972E+02  0.00000000000E+00 0. -1.
         -2    1    1    2    0  502  0.83087331834E+02  0.20968579970E+02  0.17242053183E+03  0.19254097189E+03  0.00000000000E+00 0.  1.
<scales pt_clust_5="13000.00000" pt_clust_6="13000.00000" pt_clust_7="13000.00000" pt_clust_8="13000.00000" pt_clust_9="85.69239"></scales>
<clustering>
<clus scale="   82.531">  5  6 -1 -1</clus>
<clus scale="   85.692">  2  9  1 -1</clus>
<clus scale="   88.609">  7  8 -1 -1</clus>
<clus scale="  130.940">  1  5  2 -1</clus>
<clus scale="   85.692">  2  5  1 -1</clus>
</clustering>
</event>
<event>
 9    2  0.1654290E-004  0.1393932E+03  0.7546771E-02  0.1241726E+00
         -1   -1    0    0    0  501 -0.00000000000E+00  0.00000000000E+00  0.32458120805E+03  0.32458120805E+03  0.00000000000E+00 0.  1.
         21   -1    0    0  501  502  0.00000000000E+00 -0.00000000000E+00 -0.86027068926E+02  0.86027068926E+02  0.00000000000E+00 0.  1.
         24    2    1    2    0    0  0.57916376075E+01  0.16078517021E+01  0.93777959066E+02  0.12243340789E+03  0.78482517214E+02 0.  0.
         23    2    1    2    0    0  0.50263146372E+01 -0.10693287089E+03  0.10527937081E+03  0.17516873784E+03  0.90224376328E+02 0.  0.
        -13    1    3    3    0    0  0.12297777511E+02 -0.15833051400E+02  0.10062234832E+03  0.10260008689E+03  0.00000000000E+00 0.  1.
         14    1    3    3    0    0 -0.65061399035E+01  0.17440903102E+02 -0.68443892589E+01  0.19833320998E+02  0.00000000000E+00 0. -1.
        -11    1    4    4    0    0  0.36516679826E+02 -0.11222239808E+02  0.19756196993E+02  0.43008300262E+02  0.00000000000E+00 0. -1.
         11    1    4    4    0    0 -0.31490365189E+02 -0.95710631080E+02  0.85523173818E+02  0.13216043758E+03  0.00000000000E+00 0.  1.
         -2    1    1    2    0  502 -0.10817952245E+02  0.10532501919E+03  0.39496809248E+02  0.11300613124E+03  0.00000000000E+00 0.  1.
<scales pt_clust_5="13000.00000" pt_clust_6="13000.00000" pt_clust_7="13000.00000" pt_clust_8="13000.00000" pt_clust_9="106.25457"></scales>
<clustering>
<clus scale="   78.483">  5  6 -1 -1</clus>
<clus scale="   78.712">  1  5  2 -1</clus>
<clus scale="   90.224">  7  8 -1 -1</clus>
<clus scale="  106.255">  2  9  1 -1</clus>
<clus scale="  106.255">  2  5  1 -1</clus>
</clustering>
</event>
<event>
 9    2  0.1654290E-004  0.1307360E+03  0.7546771E-02  0.1228974E+00
          4   -1    0    0  502    0 -0.00000000000E+00  0.00000000000E+00  0.38466363657E+03  0.38466363657E+03  0.00000000000E+00 0. -1.
         21   -1    0    0  501  502  0.00000000000E+00 -0.00000000000E+00 -0.55769826849E+02  0.55769826849E+02  0.00000000000E+00 0. -1.
         23    2    1    2    0    0 -0.88601456866E+02  0.15279625413E+02  0.14444479405E+03  0.19195024396E+03  0.88864574028E+02 0.  0.
         24    2    1    2    0    0  0.98828007464E+02 -0.33189457144E+02  0.10814460704E+03  0.16944078031E+03  0.78399023433E+02 0.  0.
        -13    1    4    4    0    0  0.39870164490E+02 -0.43895280617E+02  0.88211083874E+02  0.10629026764E+03  0.00000000000E+00 0.  1.
         14    1    4    4    0    0  0.58957842974E+02  0.10705823473E+02  0.19933523163E+02  0.63150512667E+02  0.00000000000E+00 0. -1.
        -11    1    3    3    0    0 -0.11593593236E+02 -0.23833781059E+02  0.79741908075E+02  0.84031139627E+02  0.00000000000E+00 0.  1.
         11    1    3    3    0    0 -0.77007863630E+02  0.39113406472E+02  0.64702885972E+02  0.10791910433E+03  0.00000000000E+00 0. -1.
          3    1    1    2  501    0 -0.10226550598E+02  0.17909831730E+02  0.76304408638E+02  0.79042439153E+02  0.00000000000E+00 0. -1.
<scales pt_clust_5="13000.00000" pt_clust_6="13000.00000" pt_clust_7="13000.00000" pt_clust_8="13000.00000" pt_clust_9="20.62389"></scales>
<clustering>
<clus scale="   20.624">  2  9  1 -1</clus>
<clus scale="   78.399">  5  6 -1 -1</clus>
<clus scale="   88.865">  7  8 -1 -1</clus>
<clus scale="  123.860">  2  5  1 -1</clus>
<clus scale="   20.624">  2  5  1 -1</clus>
</clustering>
</event>
<event>
 9    2  0.1654290E-004  0.1758758E+03  0.7546771E-02  0.1173154E+00
         21   -1    0    0  501  502  0.00000000000E+00  0.00000000000E+00  0.27526949459E+03  0.27526949459E+03  0.00000000000E+00 0.  1.
         -1   -1    0    0    0  501 -0.00000000000E+00 -0.00000000000E+00 -0.17157699204E+03  0.17157699204E+03  0.00000000000E+00 0.  1.
         23    2    1    2    0    0 -0.66966712937E+02  0.10834493417E+03  0.57673624881E+02  0.16716734531E+03  0.91627009829E+02 0.  0.
         24    2    1    2    0    0  0.45132519862E+02 -0.17534367882E+03  0.60960485447E+02  0.20764570869E+03  0.81352378567E+02 0.  0.
        -11    1    4    4    0    0  0.57018142491E+02 -0.13735615694E+03  0.73529689212E+02  0.16590478479E+03  0.00000000000E+00 0.  1.
         12    1    4    4    0    0 -0.11885622629E+02 -0.37987521886E+02 -0.12569203765E+02  0.41740923895E+02  0.00000000000E+00 0. -1.
        -11    1    3    3    0    0  0.12343244275E+01  0.43226662184E+02 -0.17422417436E+02  0.46621974536E+02  0.00000000000E+00 0. -1.
         11    1    3    3    0    0 -0.68201037365E+02  0.65118271986E+02  0.75096042317E+02  0.12054537078E+03  0.00000000000E+00 0.  1.
         -2    1    1    2    0  502  0.21834193075E+02  0.66998744652E+02 -0.14941607778E+02  0.72033432621E+02  0.00000000000E+00 0.  1.
<scales pt_clust_5="13000.00000" pt_clust_6="13000.00000" pt_clust_7="13000.00000" pt_clust_8="13000.00000" pt_clust_9="70.46679"></scales>
<clustering>
<clus scale="   70.467">  1  9  2 -1</clus>
<clus scale="   81.352">  5  6 -1 -1</clus>
<clus scale="   91.627">  7  8 -1 -1</clus>
<clus scale="  170.748">  1  5  2 -1</clus>
<clus scale="   70.467">  1  5  2 -1</clus>
</clustering>
</event>
<event>
 9    2  0.1654290E-004  0.2130644E+03  0.7546771E-02  0.1179743E+00
          2   -1    0    0  502    0 -0.00000000000E+00  0.00000000000E+00  0.36141359949E+03  0.36141359949E+03  0.00000000000E+00 0. -1.
         21   -1    0    0  501  502  0.00000000000E+00 -0.00000000000E+00 -0.19626185824E+03  0.19626185824E+03  0.00000000000E+00 0. -1.
         24    2    1    2    0    0  0.74887572361E+01  0.32312818975E+01  0.21701970839E+02  0.85539339726E+02  0.82337600371E+02 0.  0.
         23    2    1    2    0    0 -0.91307175417E+02 -0.17400639913E+03  0.17541542347E+03  0.27923336824E+03  0.92657843310E+02 0.  0.
        -11    1    3    3    0    0  0.28114278423E+02 -0.12868245683E+02 -0.19628073844E+02  0.36623294240E+02  0.00000000000E+00 0.  1.
         12    1    3    3    0    0 -0.20625521187E+02  0.16099527581E+02  0.41330044682E+02  0.48916045486E+02  0.00000000000E+00 0. -1.
        -13    1    4    4    0    0  0.15240982187E+02 -0.52405078831E+02  0.33005618995E+02  0.63780488478E+02  0.00000000000E+00 0.  1.
         13    1    4    4    0    0 -0.10654815760E+03 -0.12160132030E+03  0.14240980447E+03  0.21545287976E+03  0.00000000000E+00 0. -1.
          1    1    1    2  501    0  0.83818418181E+02  0.17077511723E+03 -0.31965653056E+02  0.19290274977E+03  0.00000000000E+00 0. -1.
<scales pt_clust_5="13000.00000" pt_clust_6="13000.00000" pt_clust_7="13000.00000" pt_clust_8="13000.00000" pt_clust_9="191.86181"></scales>
<clustering>
<clus scale="   82.338">  5  6 -1 -1</clus>
<clus scale="   82.741">  1  5  2 -1</clus>
<clus scale="   92.658">  7  8 -1 -1</clus>
<clus scale="  191.862">  2  9  1 -1</clus>
<clus scale="  191.862">  2  5  1 -1</clus>
</clustering>
</event>
<event>
 9    2  0.1654290E-004  0.1273930E+03  0.7546771E-02  0.1250628E+00
         21   -1    0    0  501  502  0.00000000000E+00  0.00000000000E+00  0.53009609070E+02  0.53009609070E+02  0.00000000000E+00 0. -1.
          2   -1    0    0  502    0 -0.00000000000E+00 -0.00000000000E+00 -0.90430692019E+03  0.90430692019E+03  0.00000000000E+00 0. -1.
         24    2    1    2    0    0 -0.29903445994E+02 -0.22995667842E+01 -0.92921034970E+01  0.86719766498E+02  0.80836072544E+02 0.  0.
         23    2    1    2    0    0 -0.68275182723E+02  0.33087764767E+02 -0.50361674031E+03  0.51691086951E+03  0.88378307006E+02 0.  0.
        -13    1    3    3    0    0 -0.41912193397E+02  0.93945968001E+01 -0.35423054042E+02  0.55674798266E+02  0.00000000000E+00 0.  1.
         14    1    3    3    0    0  0.12008747403E+02 -0.11694163584E+02  0.26130950545E+02  0.31044968232E+02  0.00000000000E+00 0. -1.
        -11    1    4    4    0    0 -0.76810389845E+02  0.59155740898E+01 -0.44638585037E+03  0.45298472095E+03  0.00000000000E+00 0. -1.
         11    1    4    4    0    0  0.85352071218E+01  0.27172190677E+02 -0.57230889935E+02  0.63926148559E+02  0.00000000000E+00 0.  1.
          1    1    1    2  501    0  0.98178628717E+02 -0.30788197982E+02 -0.33838846732E+03  0.35368589325E+03  0.00000000000E+00 0. -1.
<scales pt_clust_5="13000.00000" pt_clust_6="13000.00000" pt_clust_7="13000.00000" pt_clust_8="13000.00000" pt_clust_9="91.75102"></scales>
<clustering>
<clus scale="   80.836">  5  6 -1 -1</clus>
<clus scale="   86.221">  2  5  1 -1</clus>
<clus scale="   88.378">  7  8 -1 -1</clus>
<clus scale="   91.751">  1  9  2 -1</clus>
<clus scale="   91.751">  1  5  2 -1</clus>
</clustering>
</event>
<event>
 9    2  0.1654290E-004  0.2713080E+03  0.7546771E-02  0.1100533E+00
         21   -1    0    0  501  502  0.00000000000E+00  0.00000000000E+00  0.64883916983E+02  0.64883916983E+02  0.00000000000E+00 0. -1.
          2   -1    0    0  502    0 -0.00000000000E+00 -0.00000000000E+00 -0.84739776716E+03  0.84739776716E+03  0.00000000000E+00 0. -1.
         24    2    1    2    0    0 -0.11534593189E+03 -0.54757310947E+01 -0.18845528079E+03  0.23546035416E+03  0.81188163455E+02 0.  0.
         23    2    1    2    0    0 -0.77617484456E+02 -0.36810052076E+02 -0.25428365403E+03  0.28379466344E+03  0.92194253978E+02 0.  0.
        -13    1    3    3    0    0 -0.29101431144E+02  0.84455106434E+01 -0.29892563882E+01  0.30449229849E+02  0.00000000000E+00 0.  1.
         14    1    3    3    0    0 -0.86244500751E+02 -0.13921241738E+02 -0.18546602441E+03  0.20501112431E+03  0.00000000000E+00 0. -1.
        -13    1    4    4    0    0 -0.81587418590E+02  0.69169280446E+01 -0.15728854035E+03  0.17732466182E+03  0.00000000000E+00 0.  1.
         13    1    4    4    0    0  0.39699341342E+01 -0.43726980121E+02 -0.96995113677E+02  0.10647000162E+03  0.00000000000E+00 0. -1.
          1    1    1    2  501    0  0.19296341635E+03  0.42285783171E+02 -0.33977491535E+03  0.39302666654E+03  0.00000000000E+00 0. -1.
<scales pt_clust_5="13000.00000" pt_clust_6="13000.00000" pt_clust_7="13000.00000" pt_clust_8="13000.00000" pt_clust_9="197.54242"></scales>
<clustering>
<clus scale="   81.188">  5  6 -1 -1</clus>
<clus scale="   92.194">  7  8 -1 -1</clus>
<clus scale="  106.268">  5  7 -1 -1</clus>
<clus scale="  197.542">  1  9  2 -1</clus>
<clus scale="  197.542">  1  5  2 -1</clus>
</clustering>
</event>
<event>
 9    2  0.1654290E-004  0.1575487E+03  0.7546771E-02  0.1220354E+00
         21   -1    0    0  501  502  0.00000000000E+00  0.00000000000E+00  0.26493201835E+03  0.26493201835E+03  0.00000000000E+00 0. -1.
          2   -1    0    0  502    0 -0.00000000000E+00 -0.00000000000E+00 -0.29082205861E+03  0.29082205861E+03  0.00000000000E+00 0. -1.
         24    2    1    2    0    0  0.11832977900E+02  0.53195178301E+02 -0.10097637462E+03  0.13179391769E+03  0.64835654921E+02 0.  0.
         23    2    1    2    0    0  0.30617474104E+02 -0.16855980461E+03 -0.93299413266E+02  0.21547803081E+03  0.91521384348E+02 0.  0.
        -13    1    3    3    0    0  0.33617134783E+02  0.80996593111E+01 -0.39379116934E+02  0.52406403068E+02  0.00000000000E+00 0.  1.
         14    1    3    3    0    0 -0.21784156882E+02  0.45095518990E+02 -0.61597257686E+02  0.79387514626E+02  0.00000000000E+00 0. -1.
        -13    1    4    4    0    0 -0.18207253620E+02 -0.12825683182E+03 -0.74491110565E+02  0.14943307715E+03  0.00000000000E+00 0. -1.
         13    1    4    4    0    0  0.48824727724E+02 -0.40302972794E+02 -0.18808302701E+02  0.66044953659E+02  0.00000000000E+00 0.  1.
          1    1    1    2  501    0 -0.42450452004E+02  0.11536462631E+03  0.16838574763E+03  0.20848212845E+03  0.00000000000E+00 0. -1.
<scales pt_clust_5="13000.00000" pt_clust_6="13000.00000" pt_clust_7="13000.00000" pt_clust_8="13000.00000" pt_clust_9="128.23973"></scales>
<clustering>
<clus scale="   64.836">  5  6 -1 -1</clus>
<clus scale="   84.696">  2  5  1 -1</clus>
<clus scale="   91.521">  7  8 -1 -1</clus>
<clus scale="  128.240">  1  9  2 -1</clus>
<clus scale="  128.240">  1  5  2 -1</clus>
</clustering>
</event>
<event>
 9    2  0.1654290E-004  0.1166349E+03  0.7546771E-02  0.1249434E+00
          2   -1    0    0  502    0 -0.00000000000E+00  0.00000000000E+00  0.11774915745E+04  0.11774915745E+04  0.00000000000E+00 0. -1.
         21   -1    0    0  501  502  0.00000000000E+00 -0.00000000000E+00 -0.18750192451E+02  0.18750192451E+02  0.00000000000E+00 0. -1.
         24    2    1    2    0    0  0.83068694796E+02 -0.22821738015E+02  0.84586586682E+03  0.85404517159E+03  0.80516151674E+02 0.  0.
         23    2    1    2    0    0 -0.62920168385E+02  0.30677670244E+02  0.20210401169E+03  0.22933382567E+03  0.82752069533E+02 0.  0.
        -13    1    3    3    0    0  0.65898334358E+02 -0.48350756043E+02  0.48198243566E+03  0.48886343120E+03  0.00000000000E+00 0.  1.
         14    1    3    3    0    0  0.17170360438E+02  0.25529018028E+02  0.36388343116E+03  0.36518174039E+03  0.00000000000E+00 0. -1.
        -11    1    4    4    0    0 -0.40860024503E+02  0.45166503424E+02  0.62543899791E+02  0.87300023110E+02  0.00000000000E+00 0. -1.
         11    1    4    4    0    0 -0.22060143883E+02 -0.14488833180E+02  0.13956011190E+03  0.14203380256E+03  0.00000000000E+00 0.  1.
          1    1    1    2  501    0 -0.20148526410E+02 -0.78559322297E+01  0.11077150355E+03  0.11286276971E+03  0.00000000000E+00 0. -1.
<scales pt_clust_5="13000.00000" pt_clust_6="13000.00000" pt_clust_7="13000.00000" pt_clust_8="13000.00000" pt_clust_9="21.62589"></scales>
<clustering>
<clus scale="   21.626">  2  9  1 -1</clus>
<clus scale="   80.516">  5  6 -1 -1</clus>
<clus scale="   82.752">  7  8 -1 -1</clus>
<clus scale="  115.059">  1  5  2 -1</clus>
<clus scale="   21.626">  2  5  1 -1</clus>
</clustering>
</event>
<event>
 9    2  0.1654290E-004  0.1156869E+03  0.7546771E-02  0.1258649E+00
         21   -1    0    0  501  502  0.00000000000E+00  0.00000000000E+00  0.13123572534E+03  0.13123572534E+03  0.00000000000E+00 0. -1.
          2   -1    0    0  502    0 -0.00000000000E+00 -0.00000000000E+00 -0.20680577629E+03  0.20680577629E+03  0.00000000000E+00 0. -1.
         23    2    1    2    0    0  0.82294368954E+02  0.96146813431E+01 -0.11522253694E+03  0.17353558779E+03  0.99867722267E+02 0.  0.
         24    2    1    2    0    0 -0.92229137551E+01  0.14701022432E+02  0.32622711005E+02  0.87174750972E+02  0.78955770752E+02 0.  0.
        -13    1    4    4    0    0 -0.42600287878E+02 -0.98701389555E+00  0.95405269104E+01  0.43666696434E+02  0.00000000000E+00 0.  1.
         14    1    4    4    0    0  0.33377374123E+02  0.15688036328E+02  0.23082184095E+02  0.43508054539E+02  0.00000000000E+00 0. -1.
        -11    1    3    3    0    0  0.10332179943E+03  0.99430541146E-01 -0.76895218288E+02  0.12879549184E+03  0.00000000000E+00 0. -1.
         11    1    3    3    0    0 -0.21027430473E+02  0.95152508020E+01 -0.38327318650E+02  0.44740095943E+02  0.00000000000E+00 0.  1.
          1    1    1    2  501    0 -0.73071455199E+02 -0.24315703775E+02  0.70297749899E+01  0.77331162874E+02  0.00000000000E+00 0. -1.
<scales pt_clust_5="13000.00000" pt_clust_6="13000.00000" pt_clust_7="13000.00000" pt_clust_8="13000.00000" pt_clust_9="77.01098"></scales>
<clustering>
<clus scale="   77.011">  1  9  2 -1</clus>
<clus scale="   78.956">  5  6 -1 -1</clus>
<clus scale="   98.203">  1  5  2 -1</clus>
<clus scale="   99.868">  7  8 -1 -1</clus>
<clus scale="   77.011">  1  5  2 -1</clus>
</clustering>
</event>
<event>
 9    2  0.1654290E-004  0.1202249E+03  0.7546771E-02  0.1246176E+00
          2   -1    0    0  502    0 -0.00000000000E+00  0.00000000000E+00  0.11215180865E+04  0.11215180865E+04  0.00000000000E+00 0. -1.
         21   -1    0    0  501  502  0.00000000000E+00 -0.00000000000E+00 -0.77242695058E+02  0.77242695058E+02  0.00000000000E+00 0. -1.
         24    2    1    2    0    0 -0.25416926065E+02 -0.65863338757E+02  0.83689890202E+03  0.84370585971E+03  0.80348030348E+02 0.  0.
         23    2    1    2    0    0  0.56285935129E+02  0.12688638000E+03  0.22937183827E+03  0.28321828317E+03  0.91284696469E+02 0.  0.
        -11    1    3    3    0    0 -0.34239017533E+02 -0.34721647337E+02  0.19546612966E+03  0.20145697049E+03  0.00000000000E+00 0.  1.
         12    1    3    3    0    0  0.88220914686E+01 -0.31141691420E+02  0.64143277236E+03  0.64224888922E+03  0.00000000000E+00 0. -1.
        -11    1    4    4    0    0 -0.21002995839E+02  0.16622702382E+02  0.16899275257E+02  0.31670578980E+02  0.00000000000E+00 0.  1.
         11    1    4    4    0    0  0.77288930967E+02  0.11026367762E+03  0.21247256301E+03  0.25154770419E+03  0.00000000000E+00 0. -1.
          1    1    1    2  501    0 -0.30869009064E+02 -0.61023041244E+02 -0.21995348859E+02  0.71836638665E+02  0.00000000000E+00 0. -1.
<scales pt_clust_5="13000.00000" pt_clust_6="13000.00000" pt_clust_7="13000.00000" pt_clust_8="13000.00000" pt_clust_9="68.38646"></scales>
<clustering>
<clus scale="   68.386">  2  9  1 -1</clus>
<clus scale="   80.348">  5  6 -1 -1</clus>
<clus scale="   91.285">  7  8 -1 -1</clus>
<clus scale="  112.147">  1  5  2 -1</clus>
<clus scale="   68.386">  2  5  1 -1</clus>
</clustering>
</event>
<event>
 9    2  0.1654290E-004  0.1007205E+03  0.7546771E-02  0.1285719E+00
         21   -1    0    0  501  502  0.00000000000E+00  0.00000000000E+00  0.18937080385E+03  0.18937080385E+03  0.00000000000E+00 0. -1.
          2   -1    0    0  502    0 -0.00000000000E+00 -0.00000000000E+00 -0.98988519760E+02  0.98988519760E+02  0.00000000000E+00 0. -1.
         24    2    1    2    0    0  0.60356532514E+01  0.26499577795E+02  0.39591577197E+02  0.94699213347E+02  0.81619797170E+02 0.  0.
         23    2    1    2    0    0 -0.19613843303E+02 -0.41621208839E+02  0.96928933205E+02  0.14324417134E+03  0.94903354293E+02 0.  0.
        -13    1    3    3    0    0  0.10002566156E+02 -0.26826743330E+02  0.80903021932E+00  0.28642276748E+02  0.00000000000E+00 0.  1.
         14    1    3    3    0    0 -0.39669129045E+01  0.53326321125E+02  0.38782546978E+02  0.66056936599E+02  0.00000000000E+00 0. -1.
        -13    1    4    4    0    0  0.71208172968E+01  0.23241979977E+02  0.90961930980E+00  0.24325358775E+02  0.00000000000E+00 0.  1.
         13    1    4    4    0    0 -0.26734660599E+02 -0.64863188816E+02  0.96019313895E+02  0.11891881256E+03  0.00000000000E+00 0. -1.
          1    1    1    2  501    0  0.13578190051E+02  0.15121631044E+02 -0.46138226311E+02  0.50415938924E+02  0.00000000000E+00 0. -1.
<scales pt_clust_5="13000.00000" pt_clust_6="13000.00000" pt_clust_7="13000.00000" pt_clust_8="13000.00000" pt_clust_9="20.32317"></scales>
<clustering>
<clus scale="   20.323">  1  9  2 -1</clus>
<clus scale="   81.620">  5  6 -1 -1</clus>
<clus scale="   88.316">  2  5  1 -1</clus>
<clus scale="   94.903">  7  8 -1 -1</clus>
<clus scale="   20.323">  1  5  2 -1</clus>
</clustering>
</event>
<event>
 9    2  0.1654290E-004  0.2792999E+03  0.7546771E-02  0.1142301E+00
         21   -1    0    0  501  502  0.00000000000E+00  0.00000000000E+00  0.43873505722E+02  0.43873505722E+02  0.00000000000E+00 0.  1.
          2   -1    0    0  502    0 -0.00000000000E+00 -0.00000000000E+00 -0.22899450115E+04  0.22899450115E+04  0.00000000000E+00 0. -1.
         24    2    1    2    0    0  0.12282735447E+02 -0.37415486781E+02 -0.27037514604E+03  0.28424261453E+03  0.78360449728E+02 0.  0.
         23    2    1    2    0    0 -0.22627939423E+03 -0.12768245136E+03 -0.98435589991E+03  0.10220508147E+04  0.90145202305E+02 0.  0.
        -11    1    3    3    0    0  0.18319114045E+02 -0.99983729611E+01 -0.11459048130E+02  0.23808972790E+02  0.00000000000E+00 0.  1.
         12    1    3    3    0    0 -0.60363785986E+01 -0.27417113820E+02 -0.25891609791E+03  0.26043364174E+03  0.00000000000E+00 0. -1.
        -13    1    4    4    0    0 -0.15481669939E+03 -0.13174929974E+03 -0.74233557585E+03  0.76966758771E+03  0.00000000000E+00 0.  1.
         13    1    4    4    0    0 -0.71462694837E+02  0.40668483743E+01 -0.24202032406E+03  0.25238322699E+03  0.00000000000E+00 0. -1.
          1    1    1    2  501    0  0.21399665878E+03  0.16509793814E+03 -0.99134045980E+03  0.10275250880E+04  0.00000000000E+00 0. -1.
<scales pt_clust_5="13000.00000" pt_clust_6="13000.00000" pt_clust_7="13000.00000" pt_clust_8="13000.00000" pt_clust_9="264.35266"></scales>
<clustering>
<clus scale="   78.360">  5  6 -1 -1</clus>
<clus scale="   87.699">  2  5  1 -1</clus>
<clus scale="   90.145">  7  8 -1 -1</clus>
<clus scale="  264.353">  1  9  2 -1</clus>
<clus scale="  264.353">  1  5  2 -1</clus>
</clustering>
</event>
<event>
 9    2  0.1654290E-004  0.9209927E+02  0.7546771E-02  0.1304155E+00
          4   -1    0    0  502    0 -0.00000000000E+00  0.00000000000E+00  0.88661609249E+02  0.88661609249E+02  0.00000000000E+00 0. -1.
         21   -1    0    0  501  502  0.00000000000E+00 -0.00000000000E+00 -0.11946222730E+03  0.11946222730E+03  0.00000000000E+00 0.  1.
         23    2    1    2    0    0 -0.11512970560E+02 -0.15479442729E+02 -0.41263498734E+01  0.92466868367E+02  0.90337884323E+02 0.  0.
         24    2    1    2    0    0 -0.16251221328E+02  0.20306431247E+02 -0.16824543418E+02  0.85804543705E+02  0.80018129912E+02 0.  0.
        -11    1    4    4    0    0  0.28533662401E+02  0.89163845174E+00 -0.22924466616E+02  0.36612785728E+02  0.00000000000E+00 0.  1.
         12    1    4    4    0    0 -0.44784883729E+02  0.19414792795E+02  0.60999231984E+01  0.49191757977E+02  0.00000000000E+00 0. -1.
        -13    1    3    3    0    0  0.30258881289E+02  0.13039463616E+02  0.17674121629E+02  0.37389866055E+02  0.00000000000E+00 0. -1.
         13    1    3    3    0    0 -0.41771851849E+02 -0.28518906345E+02 -0.21800471502E+02  0.55077002312E+02  0.00000000000E+00 0.  1.
          3    1    1    2  501    0  0.27764191887E+02 -0.48269885179E+01 -0.98497247603E+01  0.29852424477E+02  0.00000000000E+00 0. -1.
<scales pt_clust_5="13000.00000" pt_clust_6="13000.00000" pt_clust_7="13000.00000" pt_clust_8="13000.00000" pt_clust_9="28.18067"></scales>
<clustering>
<clus scale="   28.181">  2  9  1 -1</clus>
<clus scale="   80.018">  5  6 -1 -1</clus>
<clus scale="   82.001">  2  5  1 -1</clus>
<clus scale="   90.338">  7  8 -1 -1</clus>
<clus scale="   28.181">  2  5  1 -1</clus>
</clustering>
</event>
<event>
 9    2  0.1654290E-004  0.1455814E+03  0.7546771E-02  0.1216243E+00
         21   -1    0    0  501  502  0.00000000000E+00  0.00000000000E+00  0.30263791566E+03  0.30263791566E+03  0.00000000000E+00 0.  1.
         -3   -1    0    0    0  501 -0.00000000000E+00 -0.00000000000E+00 -0.35791055586E+03  0.35791055586E+03  0.00000000000E+00 0.  1.
         23    2    1    2    0    0  0.71561255109E+02 -0.23951470554E+02  0.10948614669E+03  0.16027701931E+03  0.89480838333E+02 0.  0.
         24    2    1    2    0    0 -0.18447548983E+03  0.67365466301E+02 -0.26906732781E+03  0.34053832746E+03  0.70709357065E+02 0.  0.
        -13    1    4    4    0    0 -0.16112053079E+03  0.28841444764E+02 -0.21090072639E+03  0.26696586068E+03  0.00000000000E+00 0.  1.
         14    1    4    4    0    0 -0.23354959045E+02  0.38524021538E+02 -0.58166601421E+02  0.73572466781E+02  0.00000000000E+00 0. -1.
        -11    1    3    3    0    0  0.33311565570E+02 -0.30310760533E+02  0.97736050238E+00  0.45048394404E+02  0.00000000000E+00 0. -1.
         11    1    3    3    0    0  0.38249689539E+02  0.63592899790E+01  0.10850878619E+03  0.11522862491E+03  0.00000000000E+00 0.  1.
         -4    1    1    2    0  502  0.11291423472E+03 -0.43413995747E+02  0.10430854093E+03  0.15973312474E+03  0.00000000000E+00 0.  1.
<scales pt_clust_5="13000.00000" pt_clust_6="13000.00000" pt_clust_7="13000.00000" pt_clust_8="13000.00000" pt_clust_9="127.25612"></scales>
<clustering>
<clus scale="   70.709">  5  6 -1 -1</clus>
<clus scale="   89.481">  7  8 -1 -1</clus>
<clus scale="  117.053">  2  7  1 -1</clus>
<clus scale="  127.256">  1  9  2 -1</clus>
<clus scale="  127.256">  1  5  2 -1</clus>
</clustering>
</event>
<event>
 9    2  0.1654290E-004  0.1115917E+03  0.7546771E-02  0.1265891E+00
          2   -1    0    0  502    0 -0.00000000000E+00  0.00000000000E+00  0.30476937704E+03  0.30476937704E+03  0.00000000000E+00 0. -1.
         21   -1    0    0  501  502  0.00000000000E+00 -0.00000000000E+00 -0.71835694275E+02  0.71835694275E+02  0.00000000000E+00 0. -1.
         24    2    1    2    0    0  0.26298825798E+02  0.91921198261E+02  0.13206724244E+03  0.17723344427E+03  0.69489584211E+02 0.  0.
         23    2    1    2    0    0 -0.27476907734E+02 -0.16605246215E+02  0.51520307375E+02  0.10932207765E+03  0.90918974526E+02 0.  0.
        -11    1    3    3    0    0 -0.18388645105E+02  0.43319921758E+02  0.30456493386E+02  0.56056720197E+02  0.00000000000E+00 0.  1.
         12    1    3    3    0    0  0.44687470903E+02  0.48601276503E+02  0.10161074905E+03  0.12117672407E+03  0.00000000000E+00 0. -1.
        -13    1    4    4    0    0 -0.50108660867E+02 -0.29558442082E+02  0.81905799228E+01  0.58750872263E+02  0.00000000000E+00 0. -1.
         13    1    4    4    0    0  0.22631753132E+02  0.12953195867E+02  0.43329727452E+02  0.50571205385E+02  0.00000000000E+00 0.  1.
          1    1    1    2  501    0  0.11780819365E+01 -0.75315952046E+02  0.49346132948E+02  0.90049549397E+02  0.00000000000E+00 0. -1.
<scales pt_clust_5="13000.00000" pt_clust_6="13000.00000" pt_clust_7="13000.00000" pt_clust_8="13000.00000" pt_clust_9="75.32517"></scales>
<clustering>
<clus scale="   69.490">  5  6 -1 -1</clus>
<clus scale="   75.325">  2  9  1 -1</clus>
<clus scale="   90.919">  7  8 -1 -1</clus>
<clus scale="   94.949">  1  5  2 -1</clus>
<clus scale="   75.325">  2  5  1 -1</clus>
</clustering>
</event>
<event>
 9    2  0.1654290E-004  0.1561909E+03  0.7546771E-02  0.1194778E+00
         -3   -1    0    0    0  501 -0.00000000000E+00  0.00000000000E+00  0.48583662757E+03  0.48583662757E+03  0.00000000000E+00 0.  1.
         21   -1    0    0  501  502  0.00000000000E+00 -0.00000000000E+00 -0.79932433631E+02  0.79932433631E+02  0.00000000000E+00 0.  1.
         23    2    1    2    0    0  0.93236379136E+02  0.11418887377E+03  0.21960730425E+03  0.28010281234E+03  0.92185118722E+02 0.  0.
         24    2    1    2    0    0 -0.10651080506E+03 -0.39614021065E+02  0.13134428983E+03  0.19208522905E+03  0.82046270401E+02 0.  0.
        -11    1    4    4    0    0 -0.86986149042E+02  0.50856915655E+01  0.60524751912E+02  0.10609288373E+03  0.00000000000E+00 0.  1.
         12    1    4    4    0    0 -0.19524656018E+02 -0.44699712631E+02  0.70819537922E+02  0.85992345319E+02  0.00000000000E+00 0. -1.
        -13    1    3    3    0    0  0.10300780707E+03  0.66546002600E+02  0.13400127720E+03  0.18164614246E+03  0.00000000000E+00 0.  1.
         13    1    3    3    0    0 -0.97714279302E+01  0.47642871166E+02  0.85606027052E+02  0.98456669882E+02  0.00000000000E+00 0. -1.
         -4    1    1    2    0  502  0.13274425924E+02 -0.74574852701E+02  0.54952599854E+02  0.93581019815E+02  0.00000000000E+00 0.  1.
<scales pt_clust_5="13000.00000" pt_clust_6="13000.00000" pt_clust_7="13000.00000" pt_clust_8="13000.00000" pt_clust_9="75.74707"></scales>
<clustering>
<clus scale="   75.747">  2  9  1 -1</clus>
<clus scale="   82.046">  5  6 -1 -1</clus>
<clus scale="   92.185">  7  8 -1 -1</clus>
<clus scale="  150.430">  2  5  1 -1</clus>
<clus scale="   75.747">  2  5  1 -1</clus>
</clustering>
</event>
<event>
 9    2  0.1654290E-004  0.1835033E+03  0.7546771E-02  0.1194527E+00
          2   -1    0    0  502    0 -0.00000000000E+00  0.00000000000E+00  0.42437578966E+03  0.42437578966E+03  0.00000000000E+00 0. -1.
         21   -1    0    0  501  502  0.00000000000E+00 -0.00000000000E+00 -0.32316907614E+03  0.32316907614E+03  0.00000000000E+00 0. -1.
         24    2    1    2    0    0 -0.42180481674E+02 -0.19290969083E+02  0.21602856647E+03  0.23530506930E+03  0.80924653747E+02 0.  0.
         23    2    1    2    0    0  0.13027945359E+03 -0.11164620795E+03  0.12048094093E+03  0.22891422761E+03  0.91915475828E+02 0.  0.
        -11    1    3    3    0    0  0.20435650482E+02 -0.13753030798E+02  0.10368421654E+03  0.10657006346E+03  0.00000000000E+00 0.  1.
         12    1    3    3    0    0 -0.62616132155E+02 -0.55379382846E+01  0.11234434993E+03  0.12873500584E+03  0.00000000000E+00 0. -1.
        -13    1    4    4    0    0  0.83218968632E+02 -0.11306038172E+03  0.61028076312E+02  0.15307668912E+03  0.00000000000E+00 0. -1.
         13    1    4    4    0    0  0.47060484961E+02  0.14141737729E+01  0.59452864615E+02  0.75837538483E+02  0.00000000000E+00 0.  1.
          1    1    1    2  501    0 -0.88098971919E+02  0.13093717703E+03 -0.23530279388E+03  0.28332556890E+03  0.00000000000E+00 0. -1.
<scales pt_clust_5="13000.00000" pt_clust_6="13000.00000" pt_clust_7="13000.00000" pt_clust_8="13000.00000" pt_clust_9="158.82385"></scales>
<clustering>
<clus scale="   80.925">  5  6 -1 -1</clus>
<clus scale="   91.915">  7  8 -1 -1</clus>
<clus scale="   93.275">  1  5  2 -1</clus>
<clus scale="  158.824">  2  9  1 -1</clus>
<clus scale="  158.824">  2  5  1 -1</clus>
</clustering>
</event>
<event>
 9    2  0.1654290E-004  0.1346924E+03  0.7546771E-02  0.1238089E+00
         21   -1    0    0  501  502  0.00000000000E+00  0.00000000000E+00  0.92317210425E+02  0.92317210425E+02  0.00000000000E+00 0.  1.
          2   -1    0    0  502    0 -0.00000000000E+00 -0.00000000000E+00 -0.43409371164E+03  0.43409371164E+03  0.00000000000E+00 0. -1.
         24    2    1    2    0    0 -0.41855214875E+02  0.28981830299E+02 -0.21351165995E+03  0.23326124862E+03  0.78941596587E+02 0.  0.
         23    2    1    2    0    0  0.47741221028E+02  0.84189692588E+02 -0.15403642746E+02  0.13321190807E+03  0.90227555212E+02 0.  0.
        -11    1    3    3    0    0  0.16859046506E+02  0.30743366371E+02 -0.73931420987E+02  0.81824428101E+02  0.00000000000E+00 0.  1.
         12    1    3    3    0    0 -0.58714261381E+02 -0.17615360724E+01 -0.13958023897E+03  0.15143682052E+03  0.00000000000E+00 0. -1.
        -11    1    4    4    0    0  0.31001187636E+02 -0.13055377446E+02 -0.34162200142E+01  0.33811049589E+02  0.00000000000E+00 0. -1.
         11    1    4    4    0    0  0.16740033393E+02  0.97245070034E+02 -0.11987422732E+02  0.99400858486E+02  0.00000000000E+00 0.  1.
          1    1    1    2  501    0 -0.58860061533E+01 -0.11317152289E+03 -0.11286119851E+03  0.15993776537E+03  0.00000000000E+00 0. -1.
<scales pt_clust_5="13000.00000" pt_clust_6="13000.00000" pt_clust_7="13000.00000" pt_clust_8="13000.00000" pt_clust_9="100.00526"></scales>
<clustering>
<clus scale="   78.942">  5  6 -1 -1</clus>
<clus scale="   90.228">  7  8 -1 -1</clus>
<clus scale="   93.934">  2  5  1 -1</clus>
<clus scale="  100.005">  1  9  2 -1</clus>
<clus scale="  100.005">  1  5  2 -1</clus>
</clustering>
</event>
<event>
 9    2  0.1654290E-004  0.8863495E+02  0.7546771E-02  0.1306840E+00
          2   -1    0    0  502    0 -0.00000000000E+00  0.00000000000E+00  0.41581312995E+03  0.41581312995E+03  0.00000000000E+00 0. -1.
         21   -1    0    0  501  502  0.00000000000E+00 -0.00000000000E+00 -0.27485256398E+03  0.27485256398E+03  0.00000000000E+00 0. -1.
         24    2    1    2    0    0  0.56729988352E+01 -0.67836861649E+01  0.33236496548E+03  0.34383117508E+03  0.87608249429E+02 0.  0.
         23    2    1    2    0    0 -0.48704649414E+02  0.53110439787E+00  0.43148216356E+02  0.10828526326E+03  0.86553478945E+02 0.  0.
        -11    1    3    3    0    0 -0.13701875694E+02  0.37385142477E+02  0.15213332949E+03  0.15725756012E+03  0.00000000000E+00 0.  1.
         12    1    3    3    0    0  0.19374874529E+02 -0.44168828642E+02  0.18023163599E+03  0.18657361496E+03  0.00000000000E+00 0. -1.
        -11    1    4    4    0    0 -0.63647137365E+02  0.22315765876E+02  0.13881709221E+02  0.68859664190E+02  0.00000000000E+00 0.  1.
         11    1    4    4    0    0  0.14942487952E+02 -0.21784661478E+02  0.29266507135E+02  0.39425599067E+02  0.00000000000E+00 0. -1.
          1    1    1    2  501    0  0.43031650579E+02  0.62525817671E+01 -0.23455261587E+03  0.23854925558E+03  0.00000000000E+00 0. -1.
<scales pt_clust_5="13000.00000" pt_clust_6="13000.00000" pt_clust_7="13000.00000" pt_clust_8="13000.00000" pt_clust_9="43.48353"></scales>
<clustering>
<clus scale="   43.484">  2  9  1 -1</clus>
<clus scale="   86.553">  7  8 -1 -1</clus>
<clus scale="   87.593">  2  7  1 -1</clus>
<clus scale="   87.608">  5  6 -1 -1</clus>
<clus scale="   43.484">  2  5  1 -1</clus>
</clustering>
</event>
<event>
 9    2  0.1654290E-004  0.1679450E+03  0.7546771E-02  0.1181305E+00
          2   -1    0    0  502    0 -0.00000000000E+00  0.00000000000E+00  0.23399808900E+03  0.23399808900E+03  0.00000000000E+00 0. -1.
         21   -1    0    0  501  502  0.00000000000E+00 -0.00000000000E+00 -0.23418731269E+03  0.23418731269E+03  0.00000000000E+00 0. -1.
         24    2    1    2    0    0  0.11763451107E+03  0.72409145127E+02  0.11837357906E+03  0.19896496312E+03  0.80584054498E+02 0.  0.
         23    2    1    2    0    0 -0.11824786229E+03 -0.96326062626E+02 -0.32662043794E+02  0.18005017710E+03  0.89944371086E+02 0.  0.
        -13    1    3    3    0    0 -0.58466914745E+01  0.26460239210E+02  0.12028531779E+02  0.29648164142E+02  0.00000000000E+00 0.  1.
         14    1    3    3    0    0  0.12348120254E+03  0.45948905917E+02  0.10634504728E+03  0.16931679898E+03  0.00000000000E+00 0. -1.
        -11    1    4    4    0    0 -0.52969027606E+02 -0.31344709662E+02  0.30177160649E+02  0.68548302198E+02  0.00000000000E+00 0.  1.
         11    1    4    4    0    0 -0.65278834688E+02 -0.64981352964E+02 -0.62839204443E+02  0.11150187490E+03  0.00000000000E+00 0. -1.
          1    1    1    2  501    0  0.61335122546E+00  0.23916917499E+02 -0.85900758955E+02  0.89170261475E+02  0.00000000000E+00 0. -1.
<scales pt_clust_5="13000.00000" pt_clust_6="13000.00000" pt_clust_7="13000.00000" pt_clust_8="13000.00000" pt_clust_9="23.92478"></scales>
<clustering>
<clus scale="   23.925">  2  9  1 -1</clus>
<clus scale="   80.584">  5  6 -1 -1</clus>
<clus scale="   89.944">  7  8 -1 -1</clus>
<clus scale="  163.124">  1  5  2 -1</clus>
<clus scale="   23.925">  2  5  1 -1</clus>
</clustering>
</event>
<event>
 9    2  0.1654290E-004  0.2065257E+03  0.7546771E-02  0.1144981E+00
         21   -1    0    0  501  502  0.00000000000E+00  0.00000000000E+00  0.14770456058E+03  0.14770456058E+03  0.00000000000E+00 0.  1.
          2   -1    0    0  502    0 -0.00000000000E+00 -0.00000000000E+00 -0.13398939316E+04  0.13398939316E+04  0.00000000000E+00 0. -1.
         23    2    1    2    0    0 -0.81593660414E+01  0.18278484058E+03 -0.11299064492E+04  0.11483426980E+04  0.92333607062E+02 0.  0.
         24    2    1    2    0    0  0.27557305488E+02 -0.19462162091E+03 -0.14157566137E+03  0.25677108063E+03  0.85151274481E+02 0.  0.
        -13    1    4    4    0    0  0.15697797944E+02 -0.62991777071E+02 -0.25762969007E+01  0.64969393906E+02  0.00000000000E+00 0.  1.
         14    1    4    4    0    0  0.11859507543E+02 -0.13162984383E+03 -0.13899936447E+03  0.19180168672E+03  0.00000000000E+00 0. -1.
        -13    1    3    3    0    0  0.29817431523E+02  0.17157445632E+02 -0.15907174127E+03  0.16274911992E+03  0.00000000000E+00 0.  1.
         13    1    3    3    0    0 -0.37976797565E+02  0.16562739495E+03 -0.97083470788E+03  0.98559357808E+03  0.00000000000E+00 0. -1.
          1    1    1    2  501    0 -0.19397939446E+02  0.11836780322E+02  0.79292739532E+02  0.82484713527E+02  0.00000000000E+00 0. -1.
<scales pt_clust_5="13000.00000" pt_clust_6="13000.00000" pt_clust_7="13000.00000" pt_clust_8="13000.00000" pt_clust_9="22.72420"></scales>
<clustering>
<clus scale="   22.724">  1  9  2 -1</clus>
<clus scale="   85.151">  5  6 -1 -1</clus>
<clus scale="   92.334">  7  8 -1 -1</clus>
<clus scale="  203.416">  1  5  2 -1</clus>
<clus scale="   22.724">  1  5  2 -1</clus>
</clustering>
</event>
<event>
 9    2  0.1654290E-004  0.1182631E+03  0.7546771E-02  0.1249364E+00
         21   -1    0    0  501  502  0.00000000000E+00  0.00000000000E+00  0.40116842669E+03  0.40116842669E+03  0.00000000000E+00 0.  1.
         -1   -1    0    0    0  501 -0.00000000000E+00 -0.00000000000E+00 -0.15248474535E+03  0.15248474535E+03  0.00000000000E+00 0.  1.
         24    2    1    2    0    0 -0.11674542326E+02 -0.69193395623E+02  0.49068074095E+02  0.11752555351E+03  0.80501918582E+02 0.  0.
         23    2    1    2    0    0 -0.46239642201E+02  0.99841345307E+02  0.29075675879E+03  0.32387763369E+03  0.90834079932E+02 0.  0.
        -13    1    3    3    0    0  0.31383374049E+02 -0.51330059417E+02  0.28520568352E+02  0.66581633996E+02  0.00000000000E+00 0.  1.
         14    1    3    3    0    0 -0.43057916375E+02 -0.17863336207E+02  0.20547505742E+02  0.50943919511E+02  0.00000000000E+00 0. -1.
        -13    1    4    4    0    0 -0.22951764354E+02  0.13856706366E+02  0.88539118957E+01  0.28234439151E+02  0.00000000000E+00 0. -1.
         13    1    4    4    0    0 -0.23287877847E+02  0.85984638941E+02  0.28190284690E+03  0.29564319454E+03  0.00000000000E+00 0.  1.
         -2    1    1    2    0  502  0.57914184527E+02 -0.30647949684E+02 -0.91141151549E+02  0.11224998483E+03  0.00000000000E+00 0.  1.
<scales pt_clust_5="13000.00000" pt_clust_6="13000.00000" pt_clust_7="13000.00000" pt_clust_8="13000.00000" pt_clust_9="65.52369"></scales>
<clustering>
<clus scale="   65.524">  1  9  2 -1</clus>
<clus scale="   80.502">  5  6 -1 -1</clus>
<clus scale="   90.834">  7  8 -1 -1</clus>
<clus scale="  110.526">  2  5  1 -1</clus>
<clus scale="   65.524">  1  5  2 -1</clus>
</clustering>
</event>
<event>
 9    2  0.1654290E-004  0.8929003E+02  0.7546771E-02  0.1305724E+00
          2   -1    0    0  502    0 -0.00000000000E+00  0.00000000000E+00  0.12518586276E+03  0.12518586276E+03  0.00000000000E+00 0. -1.
         21   -1    0    0  501  502  0.00000000000E+00 -0.00000000000E+00 -0.33083830602E+03  0.33083830602E+03  0.00000000000E+00 0. -1.
         23    2    1    2    0    0 -0.29382010079E+02 -0.22981900469E+02  0.18336442650E+02  0.90703942775E+02  0.80619537585E+02 0.  0.
         24    2    1    2    0    0 -0.45886142306E+02  0.56960777112E+02 -0.25441250086E+03  0.27731195839E+03  0.82620418076E+02 0.  0.
        -13    1    4    4    0    0 -0.27433421568E+02  0.65191496564E+02 -0.10537481156E+03  0.12691089297E+03  0.00000000000E+00 0.  1.
         14    1    4    4    0    0 -0.18452720738E+02 -0.82307194514E+01 -0.14903768930E+03  0.15040106541E+03  0.00000000000E+00 0. -1.
        -11    1    3    3    0    0  0.16943608839E+02 -0.30140086696E+02 -0.99195315459E+01  0.35970930105E+02  0.00000000000E+00 0.  1.
         11    1    3    3    0    0 -0.46325618918E+02  0.71581862270E+01  0.28255974196E+02  0.54733012670E+02  0.00000000000E+00 0. -1.
          1    1    1    2  501    0  0.75268152385E+02 -0.33978876643E+02  0.30423614962E+02  0.88008267616E+02  0.00000000000E+00 0. -1.
<scales pt_clust_5="13000.00000" pt_clust_6="13000.00000" pt_clust_7="13000.00000" pt_clust_8="13000.00000" pt_clust_9="82.58248"></scales>
<clustering>
<clus scale="   80.620">  7  8 -1 -1</clus>
<clus scale="   82.582">  2  9  1 -1</clus>
<clus scale="   82.620">  5  6 -1 -1</clus>
<clus scale="   87.442">  1  7  2 -1</clus>
<clus scale="   82.582">  2  5  1 -1</clus>
</clustering>
</event>
<event>
 9    2  0.1654290E-004  0.1080247E+03  0.7546771E-02  0.1266457E+00
         21   -1    0    0  501  502  0.00000000000E+00  0.00000000000E+00  0.97264126097E+02  0.97264126097E+02  0.00000000000E+00 0.  1.
          2   -1    0    0  502    0 -0.00000000000E+00 -0.00000000000E+00 -0.14396706836E+03  0.14396706836E+03  0.00000000000E+00 0. -1.
         24    2    1    2    0    0 -0.44299383914E+02 -0.50379281880E+02 -0.32308105338E+02  0.11055112730E+03  0.81714323219E+02 0.  0.
         23    2    1    2    0    0  0.22226142037E+02  0.57238438553E+02 -0.11774792243E+02  0.10741763668E+03  0.87347940448E+02 0.  0.
        -13    1    3    3    0    0 -0.65977882607E+02 -0.25234328408E+02 -0.31493346919E+02  0.77341342267E+02  0.00000000000E+00 0.  1.
         14    1    3    3    0    0  0.21678498693E+02 -0.25144953471E+02 -0.81475841913E+00  0.33209785033E+02  0.00000000000E+00 0. -1.
        -11    1    4    4    0    0 -0.22796616358E+02  0.39816464944E+02 -0.31088660090E+02  0.55421488469E+02  0.00000000000E+00 0. -1.
         11    1    4    4    0    0  0.45022758395E+02  0.17421973610E+02  0.19313867847E+02  0.51996148215E+02  0.00000000000E+00 0.  1.
          1    1    1    2  501    0  0.22073241877E+02 -0.68591566734E+01 -0.26200446801E+01  0.23262430470E+02  0.00000000000E+00 0. -1.
<scales pt_clust_5="13000.00000" pt_clust_6="13000.00000" pt_clust_7="13000.00000" pt_clust_8="13000.00000" pt_clust_9="23.11441"></scales>
<clustering>
<clus scale="   23.114">  1  9  2 -1</clus>
<clus scale="   81.714">  5  6 -1 -1</clus>
<clus scale="   87.348">  7  8 -1 -1</clus>
<clus scale="  103.523">  2  5  1 -1</clus>
<clus scale="   23.114">  1  5  2 -1</clus>
</clustering>
</event>
<event>
 9    2  0.1654290E-004  0.9760095E+02  0.7546771E-02  0.1291914E+00
         21   -1    0    0  501  502  0.00000000000E+00  0.00000000000E+00  0.17593408266E+03  0.17593408266E+03  0.00000000000E+00 0. -1.
         -1   -1    0    0    0  501 -0.00000000000E+00 -0.00000000000E+00 -0.10661020194E+03  0.10661020194E+03  0.00000000000E+00 0.  1.
         24    2    1    2    0    0  0.26838073380E+02 -0.13983476405E+02  0.17672136354E+01  0.85303155736E+02  0.79735096033E+02 0.  0.
         23    2    1    2    0    0  0.23155991229E+02  0.62814931751E+02  0.28156353789E+02  0.11701456086E+03  0.91748087789E+02 0.  0.
        -13    1    3    3    0    0  0.47371606520E+02 -0.13014439936E+02 -0.22044259093E+02  0.53846022230E+02  0.00000000000E+00 0.  1.
         14    1    3    3    0    0 -0.20533533140E+02 -0.96903646948E+00  0.23811472728E+02  0.31457133505E+02  0.00000000000E+00 0. -1.
        -13    1    4    4    0    0 -0.30364812722E+02  0.28118307143E+01  0.19381955144E+02  0.36132927210E+02  0.00000000000E+00 0.  1.
         13    1    4    4    0    0  0.53520803951E+02  0.60003101036E+02  0.87743986457E+01  0.80881633645E+02  0.00000000000E+00 0. -1.
         -2    1    1    2    0  502 -0.49994064609E+02 -0.48831455345E+02  0.39400313294E+02  0.80226568012E+02  0.00000000000E+00 0.  1.
<scales pt_clust_5="13000.00000" pt_clust_6="13000.00000" pt_clust_7="13000.00000" pt_clust_8="13000.00000" pt_clust_9="69.88503"></scales>
<clustering>
<clus scale="   69.885">  1  9  2 -1</clus>
<clus scale="   79.735">  5  6 -1 -1</clus>
<clus scale="   86.406">  2  5  1 -1</clus>
<clus scale="   91.748">  7  8 -1 -1</clus>
<clus scale="   69.885">  1  5  2 -1</clus>
</clustering>
</event>
<event>
 9    2  0.1654290E-004  0.1279885E+03  0.7546771E-02  0.1235274E+00
          2   -1    0    0  502    0 -0.00000000000E+00  0.00000000000E+00  0.91279684312E+03  0.91279684312E+03  0.00000000000E+00 0. -1.
         21   -1    0    0  501  502  0.00000000000E+00 -0.00000000000E+00 -0.89262481213E+02  0.89262481213E+02  0.00000000000E+00 0. -1.
         24    2    1    2    0    0 -0.64793895124E+02 -0.44054190350E+02  0.66540640430E+03  0.67491391094E+03  0.81265513981E+02 0.  0.
         23    2    1    2    0    0  0.11400401374E+03  0.15538441785E+02  0.20422322510E+03  0.25393641547E+03  0.97663806544E+02 0.  0.
        -13    1    3    3    0    0 -0.49660161673E+02  0.14446327681E+02  0.26873916533E+03  0.27367054468E+03  0.00000000000E+00 0.  1.
         14    1    3    3    0    0 -0.15133733451E+02 -0.58500518031E+02  0.39666723897E+03  0.40124336626E+03  0.00000000000E+00 0. -1.
        -13    1    4    4    0    0  0.51265655917E+02  0.25975936124E+02  0.23044933830E+02  0.61919186925E+02  0.00000000000E+00 0.  1.
         13    1    4    4    0    0  0.62738357825E+02 -0.10437494339E+02  0.18117829127E+03  0.19201722854E+03  0.00000000000E+00 0. -1.
          1    1    1    2  501    0 -0.49210118618E+02  0.28515748565E+02 -0.46095267498E+02  0.73208997919E+02  0.00000000000E+00 0. -1.
<scales pt_clust_5="13000.00000" pt_clust_6="13000.00000" pt_clust_7="13000.00000" pt_clust_8="13000.00000" pt_clust_9="56.87516"></scales>
<clustering>
<clus scale="   56.875">  2  9  1 -1</clus>
<clus scale="   81.266">  5  6 -1 -1</clus>
<clus scale="   97.664">  7  8 -1 -1</clus>
<clus scale="  115.961">  1  5  2 -1</clus>
<clus scale="   56.875">  2  5  1 -1</clus>
</clustering>
</event>
<event>
 9    2  0.1654290E-004  0.1089992E+03  0.7546771E-02  0.1269093E+00
         21   -1    0    0  501  502  0.00000000000E+00  0.00000000000E+00  0.72153113558E+02  0.72153113558E+02  0.00000000000E+00 0.  1.
          2   -1    0    0  502    0 -0.00000000000E+00 -0.00000000000E+00 -0.40364515415E+03  0.40364515415E+03  0.00000000000E+00 0. -1.
         24    2    1    2    0    0  0.29074581818E+02  0.50808411244E+02 -0.29916177367E+03  0.31520207936E+03  0.80173300110E+02 0.  0.
         23    2    1    2    0    0 -0.40798944083E+02  0.14149171249E+00 -0.30290352664E+02  0.10827492563E+03  0.95610565305E+02 0.  0.
        -11    1    3    3    0    0 -0.18130475305E+02  0.47955357807E+02 -0.13671911117E+03  0.14601556710E+03  0.00000000000E+00 0.  1.
         12    1    3    3    0    0  0.47205057124E+02  0.28530534367E+01 -0.16244266250E+03  0.16918651226E+03  0.00000000000E+00 0. -1.
        -13    1    4    4    0    0 -0.16284053244E+02 -0.18552769542E+02  0.31023662413E+02  0.39646478749E+02  0.00000000000E+00 0.  1.
         13    1    4    4    0    0 -0.24514890839E+02  0.18694261254E+02 -0.61314015076E+02  0.68628446882E+02  0.00000000000E+00 0. -1.
          1    1    1    2  501    0  0.11724362264E+02 -0.50949902956E+02 -0.20399142628E+01  0.52321262714E+02  0.00000000000E+00 0. -1.
<scales pt_clust_5="13000.00000" pt_clust_6="13000.00000" pt_clust_7="13000.00000" pt_clust_8="13000.00000" pt_clust_9="52.28148"></scales>
<clustering>
<clus scale="   52.281">  1  9  2 -1</clus>
<clus scale="   80.173">  5  6 -1 -1</clus>
<clus scale="   95.611">  7  8 -1 -1</clus>
<clus scale="   95.745">  2  5  1 -1</clus>
<clus scale="   52.281">  1  5  2 -1</clus>
</clustering>
</event>
<event>
 9    2  0.1654290E-004  0.8720152E+02  0.7546771E-02  0.1312733E+00
          2   -1    0    0  502    0 -0.00000000000E+00  0.00000000000E+00  0.54317833750E+03  0.54317833750E+03  0.00000000000E+00 0. -1.
         21   -1    0    0  501  502  0.00000000000E+00 -0.00000000000E+00 -0.40326904041E+02  0.40326904041E+02  0.00000000000E+00 0. -1.
         23    2    1    2    0    0 -0.97531501338E+01 -0.27986246865E+02  0.22907960854E+03  0.24597954813E+03  0.84558365031E+02 0.  0.
         24    2    1    2    0    0  0.46183358572E+02 -0.44446762423E+02  0.88703925363E+02  0.13547661926E+03  0.79856813684E+02 0.  0.
        -11    1    4    4    0    0 -0.22942674931E+02 -0.12233345712E+02  0.19580606198E+02  0.32548751425E+02  0.00000000000E+00 0.  1.
         12    1    4    4    0    0  0.69126033503E+02 -0.32213416711E+02  0.69123319165E+02  0.10292786783E+03  0.00000000000E+00 0. -1.
        -13    1    3    3    0    0  0.10675725548E+02 -0.52404243105E+02  0.17734836480E+03  0.18523665487E+03  0.00000000000E+00 0.  1.
         13    1    3    3    0    0 -0.20428875682E+02  0.24417996240E+02  0.51731243746E+02  0.60742893259E+02  0.00000000000E+00 0. -1.
          1    1    1    2  501    0 -0.36430208438E+02  0.72433009289E+02  0.18506789955E+03  0.20204907415E+03  0.00000000000E+00 0. -1.
<scales pt_clust_5="13000.00000" pt_clust_6="13000.00000" pt_clust_7="13000.00000" pt_clust_8="13000.00000" pt_clust_9="81.07840"></scales>
<clustering>
<clus scale="   79.857">  5  6 -1 -1</clus>
<clus scale="   81.078">  2  9  1 -1</clus>
<clus scale="   82.650">  2  5  1 -1</clus>
<clus scale="   84.558">  7  8 -1 -1</clus>
<clus scale="   81.078">  2  5  1 -1</clus>
</clustering>
</event>
<event>
 9    2  0.1654290E-004  0.2383478E+03  0.7546771E-02  0.1120898E+00
         21   -1    0    0  501  502  0.00000000000E+00  0.00000000000E+00  0.89693867434E+02  0.89693867434E+02  0.00000000000E+00 0. -1.
          2   -1    0    0  502    0 -0.00000000000E+00 -0.00000000000E+00 -0.69921173022E+03  0.69921173022E+03  0.00000000000E+00 0. -1.
         24    2    1    2    0    0 -0.78293023857E+02 -0.18662927223E+02 -0.21328542857E+03  0.24209650823E+03  0.81498115448E+02 0.  0.
         23    2    1    2    0    0 -0.71984928487E+02  0.62379247273E+00 -0.37667759013E+03  0.39419432843E+03  0.91219200924E+02 0.  0.
        -13    1    3    3    0    0 -0.70107531659E+01  0.24245085599E+02 -0.89183216082E+02  0.92685602261E+02  0.00000000000E+00 0.  1.
         14    1    3    3    0    0 -0.71282270692E+02 -0.42908012822E+02 -0.12410221248E+03  0.14941090597E+03  0.00000000000E+00 0. -1.
        -11    1    4    4    0    0  0.18572131095E+02  0.14980867293E+02 -0.95979866611E+02  0.98901391461E+02  0.00000000000E+00 0.  1.
         11    1    4    4    0    0 -0.90557059582E+02 -0.14357074820E+02 -0.28069772352E+03  0.29529293697E+03  0.00000000000E+00 0. -1.
          1    1    1    2  501    0  0.15027795234E+03  0.18039134750E+02 -0.19554844087E+02  0.15261476099E+03  0.00000000000E+00 0. -1.
<scales pt_clust_5="13000.00000" pt_clust_6="13000.00000" pt_clust_7="13000.00000" pt_clust_8="13000.00000" pt_clust_9="151.35678"></scales>
<clustering>
<clus scale="   81.498">  5  6 -1 -1</clus>
<clus scale="   91.219">  7  8 -1 -1</clus>
<clus scale="  107.833">  5  7 -1 -1</clus>
<clus scale="  151.357">  1  9  2 -1</clus>
<clus scale="  151.357">  1  5  2 -1</clus>
</clustering>
</event>
<event>
 9    2  0.1654290E-004  0.9349834E+02  0.7546771E-02  0.1303324E+00
          2   -1    0    0  502    0 -0.00000000000E+00  0.00000000000E+00  0.16556830745E+03  0.16556830745E+03  0.00000000000E+00 0. -1.
         21   -1    0    0  501  502  0.00000000000E+00 -0.00000000000E+00 -0.98691714657E+02  0.98691714657E+02  0.00000000000E+00 0.  1.
         23    2    1    2    0    0 -0.11263230136E+02  0.10867088257E+02  0.42984544828E+02  0.10195651109E+03  0.91118083270E+02 0.  0.
         24    2    1    2    0    0  0.98981267282E+01 -0.34048447579E+02 -0.40567431252E+02  0.93788816330E+02  0.76768195856E+02 0.  0.
        -13    1    4    4    0    0  0.32454092385E+02 -0.14227545064E+02 -0.50911609012E+02  0.62029695173E+02  0.00000000000E+00 0.  1.
         14    1    4    4    0    0 -0.22555965657E+02 -0.19820902514E+02  0.10344177759E+02  0.31759121158E+02  0.00000000000E+00 0. -1.
        -13    1    3    3    0    0  0.21779737598E+02  0.32471891799E+02  0.48276673975E+02  0.62124214095E+02  0.00000000000E+00 0. -1.
         13    1    3    3    0    0 -0.33042967734E+02 -0.21604803542E+02 -0.52921291468E+01  0.39832296992E+02  0.00000000000E+00 0.  1.
          1    1    1    2  501    0  0.13651034079E+01  0.23181359322E+02  0.64459479216E+02  0.68514694688E+02  0.00000000000E+00 0. -1.
<scales pt_clust_5="13000.00000" pt_clust_6="13000.00000" pt_clust_7="13000.00000" pt_clust_8="13000.00000" pt_clust_9="23.22153"></scales>
<clustering>
<clus scale="   23.222">  2  9  1 -1</clus>
<clus scale="   76.768">  5  6 -1 -1</clus>
<clus scale="   79.579">  2  5  1 -1</clus>
<clus scale="   91.118">  7  8 -1 -1</clus>
<clus scale="   23.222">  2  5  1 -1</clus>
</clustering>
</event>
<event>
 9    2  0.1654290E-004  0.1973496E+03  0.7546771E-02  0.1153107E+00
         21   -1    0    0  501  502  0.00000000000E+00  0.00000000000E+00  0.56993975327E+03  0.56993975327E+03  0.00000000000E+00 0. -1.
          2   -1    0    0  502    0 -0.00000000000E+00 -0.00000000000E+00 -0.25267732008E+03  0.25267732008E+03  0.00000000000E+00 0. -1.
         24    2    1    2    0    0  0.18368230281E+02  0.18167742760E+03 -0.11969809635E+03  0.23274879269E+03  0.80624355170E+02 0.  0.
         23    2    1    2    0    0 -0.59989930309E+02 -0.15072707491E+03  0.41642954820E+02  0.19116253061E+03  0.92149522919E+02 0.  0.
        -11    1    3    3    0    0 -0.82807738710E+01  0.49023469366E+02 -0.75516903390E+02  0.90413906354E+02  0.00000000000E+00 0.  1.
         12    1    3    3    0    0  0.26649004152E+02  0.13265395823E+03 -0.44181192958E+02  0.14233488633E+03  0.00000000000E+00 0. -1.
        -13    1    4    4    0    0 -0.80244078457E+02 -0.13701368800E+03  0.48020254467E+02  0.16588492296E+03  0.00000000000E+00 0. -1.
         13    1    4    4    0    0  0.20254148148E+02 -0.13713386915E+02 -0.63772996477E+01  0.25277607654E+02  0.00000000000E+00 0.  1.
          1    1    1    2  501    0  0.41621700027E+02 -0.30950352684E+02  0.39531757472E+03  0.39870575006E+03  0.00000000000E+00 0. -1.
<scales pt_clust_5="13000.00000" pt_clust_6="13000.00000" pt_clust_7="13000.00000" pt_clust_8="13000.00000" pt_clust_9="51.86801"></scales>
<clustering>
<clus scale="   51.868">  1  9  2 -1</clus>
<clus scale="   80.624">  5  6 -1 -1</clus>
<clus scale="   92.150">  7  8 -1 -1</clus>
<clus scale="  192.238">  2  5  1 -1</clus>
<clus scale="   51.868">  1  5  2 -1</clus>
</clustering>
</event>
<event>
 9    2  0.1654290E-004  0.1100056E+03  0.7546771E-02  0.1266824E+00
         21   -1    0    0  501  502  0.00000000000E+00  0.00000000000E+00  0.32212658754E+03  0.32212658754E+03  0.00000000000E+00 0. -1.
          4   -1    0    0  502    0 -0.00000000000E+00 -0.00000000000E+00 -0.73130178435E+02  0.73130178435E+02  0.00000000000E+00 0. -1.
         24    2    1    2    0    0 -0.35428842050E+02 -0.35551452850E+02  0.56090715548E+02  0.10715550209E+03  0.76269421186E+02 0.  0.
         23    2    1    2    0    0  0.61133440159E+02  0.64902096612E+02  0.20964025063E+03  0.24564856017E+03  0.91894508966E+02 0.  0.
        -11    1    3    3    0    0  0.13949584071E+02 -0.38879407772E+02  0.31154517116E+02  0.51737831238E+02  0.00000000000E+00 0.  1.
         12    1    3    3    0    0 -0.49378426120E+02  0.33279549219E+01  0.24936198432E+02  0.55417670849E+02  0.00000000000E+00 0. -1.
        -11    1    4    4    0    0  0.22726803570E+02  0.71389545984E+02  0.18490784495E+03  0.19950911257E+03  0.00000000000E+00 0. -1.
         11    1    4    4    0    0  0.38406636589E+02 -0.64874493721E+01  0.24732405678E+02  0.46139447592E+02  0.00000000000E+00 0.  1.
          3    1    1    2  501    0 -0.25704598110E+02 -0.29350643762E+02 -0.16734557070E+02  0.42452703724E+02  0.00000000000E+00 0. -1.
<scales pt_clust_5="13000.00000" pt_clust_6="13000.00000" pt_clust_7="13000.00000" pt_clust_8="13000.00000" pt_clust_9="39.01523"></scales>
<clustering>
<clus scale="   39.015">  1  9  2 -1</clus>
<clus scale="   76.269">  5  6 -1 -1</clus>
<clus scale="   91.895">  7  8 -1 -1</clus>
<clus scale="   97.333">  2  5  1 -1</clus>
<clus scale="   39.015">  1  5  2 -1</clus>
</clustering>
</event>
<event>
 9    2  0.1654290E-004  0.1173497E+03  0.7546771E-02  0.1250262E+00
         21   -1    0    0  501  502  0.00000000000E+00  0.00000000000E+00  0.26418622042E+02  0.26418622042E+02  0.00000000000E+00 0. -1.
         -1   -1    0    0    0  501 -0.00000000000E+00 -0.00000000000E+00 -0.84043378708E+03  0.84043378708E+03  0.00000000000E+00 0.  1.
         23    2    1    2    0    0  0.56344239139E+02  0.48681969819E+02 -0.55145457648E+03  0.56342611936E+03  0.88330258605E+02 0.  0.
         24    2    1    2    0    0 -0.75507509652E+02 -0.38518556039E+02 -0.25520388127E+03  0.28052111440E+03  0.79862453219E+02 0.  0.
        -11    1    4    4    0    0 -0.74454113598E+02  0.14129010219E+01 -0.18977142330E+03  0.20385927603E+03  0.00000000000E+00 0.  1.
         12    1    4    4    0    0 -0.10533960532E+01 -0.39931457061E+02 -0.65432457970E+02  0.76661838370E+02  0.00000000000E+00 0. -1.
        -11    1    3    3    0    0  0.14988237575E+02 -0.23579794253E+02 -0.81578105589E+02  0.86230164526E+02  0.00000000000E+00 0. -1.
         11    1    3    3    0    0  0.41356001564E+02  0.72261764071E+02 -0.46987647089E+03  0.47719595483E+03  0.00000000000E+00 0.  1.
         -2    1    1    2    0  502  0.19163270512E+02 -0.10163413779E+02 -0.73567072866E+01  0.22905175364E+02  0.00000000000E+00 0.  1.
<scales pt_clust_5="13000.00000" pt_clust_6="13000.00000" pt_clust_7="13000.00000" pt_clust_8="13000.00000" pt_clust_9="21.69161"></scales>
<clustering>
<clus scale="   21.692">  1  9  2 -1</clus>
<clus scale="   79.862">  5  6 -1 -1</clus>
<clus scale="   88.330">  7  8 -1 -1</clus>
<clus scale="  111.116">  1  5  2 -1</clus>
<clus scale="   21.692">  1  5  2 -1</clus>
</clustering>
</event>
<event>
 9    2  0.1654290E-004  0.1249078E+03  0.7546771E-02  0.1256610E+00
          2   -1    0    0  502    0 -0.00000000000E+00  0.00000000000E+00  0.59403570966E+03  0.59403570966E+03  0.00000000000E+00 0. -1.
         21   -1    0    0  501  502  0.00000000000E+00 -0.00000000000E+00 -0.83731229800E+02  0.83731229800E+02  0.00000000000E+00 0. -1.
         24    2    1    2    0    0  0.46667209372E+00  0.17126799783E+02  0.79600193979E+02  0.11372479788E+03  0.79395174395E+02 0.  0.
         23    2    1    2    0    0  0.60484454837E+02  0.42185426787E+02  0.45937002513E+03  0.47429413492E+03  0.92174437455E+02 0.  0.
        -11    1    3    3    0    0 -0.16490587692E+02  0.11816441277E+02  0.90588550858E+02  0.92832393665E+02  0.00000000000E+00 0.  1.
         12    1    3    3    0    0  0.16957259786E+02  0.53103585061E+01 -0.10988356879E+02  0.20892404213E+02  0.00000000000E+00 0. -1.
        -13    1    4    4    0    0  0.24251869599E+02 -0.29134621944E+02  0.13712371959E+03  0.14226698088E+03  0.00000000000E+00 0.  1.
         13    1    4    4    0    0  0.36232585237E+02  0.71320048731E+02  0.32224630554E+03  0.33202715403E+03  0.00000000000E+00 0. -1.
          1    1    1    2  501    0 -0.60951126930E+02 -0.59312226570E+02 -0.28665739243E+02  0.89748006670E+02  0.00000000000E+00 0. -1.
<scales pt_clust_5="13000.00000" pt_clust_6="13000.00000" pt_clust_7="13000.00000" pt_clust_8="13000.00000" pt_clust_9="84.29615"></scales>
<clustering>
<clus scale="   79.395">  5  6 -1 -1</clus>
<clus scale="   81.223">  1  5  2 -1</clus>
<clus scale="   84.296">  2  9  1 -1</clus>
<clus scale="   92.174">  7  8 -1 -1</clus>
<clus scale="   84.296">  2  5  1 -1</clus>
</clustering>
</event>
<event>
 9    2  0.1654290E-004  0.2785538E+03  0.7546771E-02  0.1123106E+00
         21   -1    0    0  501  502  0.00000000000E+00  0.00000000000E+00  0.14299626717E+03  0.14299626717E+03  0.00000000000E+00 0. -1.
          2   -1    0    0  502    0 -0.00000000000E+00 -0.00000000000E+00 -0.12372431555E+04  0.12372431555E+04  0.00000000000E+00 0. -1.
         24    2    1    2    0    0 -0.45554471340E+02  0.10709344752E+03 -0.13676371286E+03  0.19666781980E+03  0.80185421544E+02 0.  0.
         23    2    1    2    0    0 -0.21525840715E+03 -0.13676725175E+02 -0.85761189265E+03  0.88908167992E+03  0.91895813236E+02 0.  0.
        -13    1    3    3    0    0 -0.19933691991E+02 -0.30140976964E+01 -0.12613048251E+01  0.20199696809E+02  0.00000000000E+00 0.  1.
         14    1    3    3    0    0 -0.25620779348E+02  0.11010754521E+03 -0.13550240804E+03  0.17646812299E+03  0.00000000000E+00 0. -1.
        -11    1    4    4    0    0 -0.17996601536E+03  0.59046342856E+01 -0.79066842254E+03  0.81091256359E+03  0.00000000000E+00 0. -1.
         11    1    4    4    0    0 -0.35292391793E+02 -0.19581359461E+02 -0.66943470113E+02  0.78169116328E+02  0.00000000000E+00 0.  1.
          1    1    1    2  501    0  0.26081287849E+03 -0.93416722340E+02 -0.99871282853E+02  0.29448992298E+03  0.00000000000E+00 0. -1.
<scales pt_clust_5="13000.00000" pt_clust_6="13000.00000" pt_clust_7="13000.00000" pt_clust_8="13000.00000" pt_clust_9="262.95884"></scales>
<clustering>
<clus scale="   80.185">  5  6 -1 -1</clus>
<clus scale="   91.896">  7  8 -1 -1</clus>
<clus scale="  141.329">  2  5  1 -1</clus>
<clus scale="  262.959">  1  9  2 -1</clus>
<clus scale="  262.959">  1  5  2 -1</clus>
</clustering>
</event>
<event>
 9    2  0.1654290E-004  0.1550729E+03  0.7546771E-02  0.1195846E+00
         21   -1    0    0  501  502  0.00000000000E+00  0.00000000000E+00  0.10696761793E+03  0.10696761793E+03  0.00000000000E+00 0.  1.
         -1   -1    0    0    0  501 -0.00000000000E+00 -0.00000000000E+00 -0.43573004405E+03  0.43573004405E+03  0.00000000000E+00 0.  1.
         24    2    1    2    0    0 -0.16176628861E+03 -0.51953154166E+02 -0.21499411103E+03  0.28594191408E+03  0.81687502656E+02 0.  0.
         23    2    1    2    0    0  0.68013151273E+02  0.38877981843E+01 -0.18479926835E+02  0.11470010337E+03  0.90408530001E+02 0.  0.
        -11    1    3    3    0    0 -0.12570918406E+03 -0.25840627440E+02 -0.20242914421E+03  0.23968332318E+03  0.00000000000E+00 0.  1.
         12    1    3    3    0    0 -0.36057104557E+02 -0.26112526727E+02 -0.12564966816E+02  0.46258590902E+02  0.00000000000E+00 0. -1.
        -11    1    4    4    0    0  0.35731242551E+02  0.15801474642E+02  0.34102475785E+02  0.51859301478E+02  0.00000000000E+00 0.  1.
         11    1    4    4    0    0  0.32281908722E+02 -0.11913676458E+02 -0.52582402619E+02  0.62840801894E+02  0.00000000000E+00 0. -1.
         -2    1    1    2    0  502  0.93753137341E+02  0.48065355982E+02 -0.95288388249E+02  0.14205564453E+03  0.00000000000E+00 0.  1.
<scales pt_clust_5="13000.00000" pt_clust_6="13000.00000" pt_clust_7="13000.00000" pt_clust_8="13000.00000" pt_clust_9="105.35625"></scales>
<clustering>
<clus scale="   81.688">  5  6 -1 -1</clus>
<clus scale="   90.409">  7  8 -1 -1</clus>
<clus scale="  105.356">  1  9  2 -1</clus>
<clus scale="  150.156">  2  5  1 -1</clus>
<clus scale="  105.356">  1  5  2 -1</clus>
</clustering>
</event>
<event>
 9    2  0.1654290E-004  0.9377236E+02  0.7546771E-02  0.1299919E+00
         21   -1    0    0  501  502  0.00000000000E+00  0.00000000000E+00  0.12256823996E+03  0.12256823996E+03  0.00000000000E+00 0.  1.
         -3   -1    0    0    0  501 -0.00000000000E+00 -0.00000000000E+00 -0.15190356573E+03  0.15190356573E+03  0.00000000000E+00 0.  1.
         23    2    1    2    0    0  0.22375772764E+02  0.19899401480E+02 -0.83490427823E+02  0.12746194759E+03  0.91538162316E+02 0.  0.
         24    2    1    2    0    0 -0.69383484771E+01  0.27551509879E+02  0.40217441020E+02  0.95200964535E+02  0.81477326356E+02 0.  0.
        -13    1    4    4    0    0  0.32203023427E+02  0.10123837070E+02  0.40018471590E+02  0.52354606897E+02  0.00000000000E+00 0.  1.
         14    1    4    4    0    0 -0.39141371904E+02  0.17427672809E+02  0.19896942917E+00  0.42846357639E+02  0.00000000000E+00 0. -1.
        -11    1    3    3    0    0 -0.39181887831E+00  0.21542648329E+02  0.15069517217E+02  0.26293146792E+02  0.00000000000E+00 0.  1.
         11    1    3    3    0    0  0.22767591643E+02 -0.16432468482E+01 -0.98559945040E+02  0.10116880080E+03  0.00000000000E+00 0. -1.
         -4    1    1    2    0  502 -0.15437424287E+02 -0.47450911359E+02  0.13937661034E+02  0.51808893566E+02  0.00000000000E+00 0.  1.
<scales pt_clust_5="13000.00000" pt_clust_6="13000.00000" pt_clust_7="13000.00000" pt_clust_8="13000.00000" pt_clust_9="49.89893"></scales>
<clustering>
<clus scale="   49.899">  1  9  2 -1</clus>
<clus scale="   81.477">  5  6 -1 -1</clus>
<clus scale="   83.980">  1  5  2 -1</clus>
<clus scale="   91.538">  7  8 -1 -1</clus>
<clus scale="   49.899">  1  5  2 -1</clus>
</clustering>
</event>
<event>
 9    2  0.1654290E-004  0.1663429E+03  0.7546771E-02  0.1183479E+00
         21   -1    0    0  501  502  0.00000000000E+00  0.00000000000E+00  0.13152854843E+03  0.13152854843E+03  0.00000000000E+00 0. -1.
          2   -1    0    0  502    0 -0.00000000000E+00 -0.00000000000E+00 -0.97936045789E+03  0.97936045789E+03  0.00000000000E+00 0. -1.
         23    2    1    2    0    0  0.33800714618E+02 -0.14848406746E+03 -0.63809247496E+03  0.66225797458E+03  0.90739251144E+02 0.  0.
         24    2    1    2    0    0 -0.49994754508E+02  0.11280241365E+03 -0.30905404998E+03  0.34186577430E+03  0.78319485575E+02 0.  0.
        -13    1    4    4    0    0 -0.11981344064E+02  0.61705533445E+02 -0.68264090205E+02  0.92796074673E+02  0.00000000000E+00 0.  1.
         14    1    4    4    0    0 -0.38013410445E+02  0.51096880205E+02 -0.24078995978E+03  0.24906969962E+03  0.00000000000E+00 0. -1.
        -11    1    3    3    0    0  0.62625964900E+02 -0.10106630546E+03 -0.48680997701E+03  0.50111911089E+03  0.00000000000E+00 0.  1.
         11    1    3    3    0    0 -0.28825250282E+02 -0.47417762003E+02 -0.15128249794E+03  0.16113886369E+03  0.00000000000E+00 0. -1.
          1    1    1    2  501    0  0.16194039891E+02  0.35681653815E+02  0.99314615484E+02  0.10676525744E+03  0.00000000000E+00 0. -1.
<scales pt_clust_5="13000.00000" pt_clust_6="13000.00000" pt_clust_7="13000.00000" pt_clust_8="13000.00000" pt_clust_9="39.18453"></scales>
<clustering>
<clus scale="   39.185">  1  9  2 -1</clus>
<clus scale="   78.319">  5  6 -1 -1</clus>
<clus scale="   90.739">  7  8 -1 -1</clus>
<clus scale="  159.907">  1  5  2 -1</clus>
<clus scale="   39.185">  1  5  2 -1</clus>
</clustering>
</event>
<event>
 9    2  0.1654290E-004  0.2296661E+03  0.7546771E-02  0.1127930E+00
         21   -1    0    0  501  502  0.00000000000E+00  0.00000000000E+00  0.65406274053E+02  0.65406274053E+02  0.00000000000E+00 0. -1.
          2   -1    0    0  502    0 -0.00000000000E+00 -0.00000000000E+00 -0.21040849370E+04  0.21040849370E+04  0.00000000000E+00 0. -1.
         24    2    1    2    0    0 -0.17828765071E+03 -0.71685175426E+02 -0.91925915919E+03  0.94222733557E+03  0.76352468008E+02 0.  0.
         23    2    1    2    0    0  0.24168830731E+03  0.62859222215E+01 -0.11051831522E+04  0.11350717973E+04  0.92224911713E+02 0.  0.
        -13    1    3    3    0    0 -0.67108299893E+01 -0.28981695075E+02 -0.11803610138E+03  0.12172713386E+03  0.00000000000E+00 0.  1.
         14    1    3    3    0    0 -0.17157682072E+03 -0.42703480350E+02 -0.80122305781E+03  0.82050020172E+03  0.00000000000E+00 0. -1.
        -13    1    4    4    0    0  0.50656501112E+02  0.40198894812E+02 -0.28831666174E+03  0.29548016801E+03  0.00000000000E+00 0. -1.
         13    1    4    4    0    0  0.19103180620E+03 -0.33912972591E+02 -0.81686649047E+03  0.83959162927E+03  0.00000000000E+00 0.  1.
          1    1    1    2  501    0 -0.63400656606E+02  0.65399253204E+02 -0.14236351545E+02  0.92192078201E+02  0.00000000000E+00 0. -1.
<scales pt_clust_5="13000.00000" pt_clust_6="13000.00000" pt_clust_7="13000.00000" pt_clust_8="13000.00000" pt_clust_9="91.08625"></scales>
<clustering>
<clus scale="   76.352">  5  6 -1 -1</clus>
<clus scale="   91.086">  1  9  2 -1</clus>
<clus scale="   92.225">  7  8 -1 -1</clus>
<clus scale="  223.765">  2  5  1 -1</clus>
<clus scale="   91.086">  1  5  2 -1</clus>
</clustering>
</event>
<event>
 9    2  0.1654290E-004  0.1582396E+03  0.7546771E-02  0.1198132E+00
          2   -1    0    0  502    0 -0.00000000000E+00  0.00000000000E+00  0.30821454499E+03  0.30821454499E+03  0.00000000000E+00 0. -1.
         21   -1    0    0  501  502  0.00000000000E+00 -0.00000000000E+00 -0.16854311774E+03  0.16854311774E+03  0.00000000000E+00 0. -1.
         23    2    1    2    0    0  0.59516408818E+02  0.26976303123E+02  0.37499568180E+02  0.13957101975E+03  0.11749011912E+03 0.  0.
         24    2    1    2    0    0  0.35087274390E+02 -0.13113308090E+03  0.11575713059E+03  0.19582522380E+03  0.80751490767E+02 0.  0.
        -13    1    4    4    0    0 -0.16547104864E+02 -0.12335437551E+02 -0.20393335714E+01  0.20739541469E+02  0.00000000000E+00 0.  1.
         14    1    4    4    0    0  0.51634379253E+02 -0.11879764335E+03  0.11779646416E+03  0.17508568233E+03  0.00000000000E+00 0. -1.
        -11    1    3    3    0    0  0.13775507611E+02  0.31285774367E+02  0.73593419172E+02  0.81145274866E+02  0.00000000000E+00 0.  1.
         11    1    3    3    0    0  0.45740901207E+02 -0.43094712443E+01 -0.36093850992E+02  0.58425744883E+02  0.00000000000E+00 0. -1.
          1    1    1    2  501    0 -0.94603683208E+02  0.10415677778E+03 -0.13585271519E+02  0.14136141919E+03  0.00000000000E+00 0. -1.
<scales pt_clust_5="13000.00000" pt_clust_6="13000.00000" pt_clust_7="13000.00000" pt_clust_8="13000.00000" pt_clust_9="136.08444"></scales>
<clustering>
<clus scale="   80.751">  5  6 -1 -1</clus>
<clus scale="  117.490">  7  8 -1 -1</clus>
<clus scale="  134.439">  1  7  2 -1</clus>
<clus scale="  136.084">  2  9  1 -1</clus>
<clus scale="  136.084">  2  5  1 -1</clus>
</clustering>
</event>
<event>
 9    2  0.1654290E-004  0.1249758E+03  0.7546771E-02  0.1249352E+00
          4   -1    0    0  502    0 -0.00000000000E+00  0.00000000000E+00  0.93963872884E+02  0.93963872884E+02  0.00000000000E+00 0. -1.
         21   -1    0    0  501  502  0.00000000000E+00 -0.00000000000E+00 -0.15731484181E+03  0.15731484181E+03  0.00000000000E+00 0.  1.
         23    2    1    2    0    0 -0.29065278350E+02  0.55788637718E+02 -0.21501092013E+02  0.13216196172E+03  0.11422488636E+03 0.  0.
         24    2    1    2    0    0  0.22384496900E+02 -0.33892741202E+02 -0.33861920364E+02  0.94870710515E+02  0.78765718782E+02 0.  0.
        -11    1    4    4    0    0  0.44844007440E+02 -0.15462948420E+02  0.34745359346E+01  0.47562171703E+02  0.00000000000E+00 0.  1.
         12    1    4    4    0    0 -0.22459510540E+02 -0.18429792782E+02 -0.37336456299E+02  0.47308538813E+02  0.00000000000E+00 0. -1.
        -11    1    3    3    0    0 -0.53215401590E+02 -0.78556316545E+01 -0.33025571391E+02  0.63121139730E+02  0.00000000000E+00 0.  1.
         11    1    3    3    0    0  0.24150123241E+02  0.63644269372E+02  0.11524479378E+02  0.69040821993E+02  0.00000000000E+00 0. -1.
          3    1    1    2  501    0  0.66807814493E+01 -0.21895896516E+02 -0.79879565518E+01  0.24246042458E+02  0.00000000000E+00 0. -1.
<scales pt_clust_5="13000.00000" pt_clust_6="13000.00000" pt_clust_7="13000.00000" pt_clust_8="13000.00000" pt_clust_9="22.89243"></scales>
<clustering>
<clus scale="   22.892">  2  9  1 -1</clus>
<clus scale="   78.766">  5  6 -1 -1</clus>
<clus scale="   93.679">  2  5  1 -1</clus>
<clus scale="  114.225">  7  8 -1 -1</clus>
<clus scale="   22.892">  2  5  1 -1</clus>
</clustering>
</event>
<event>
 9    2  0.2219910E-004  0.1518054E+03  0.7546771E-02  0.1200051E+00
         21   -1    0    0  501  502  0.00000000000E+00  0.00000000000E+00  0.60339357091E+02  0.60339357091E+02  0.00000000000E+00 0. -1.
          2   -1    0    0  502    0 -0.00000000000E+00 -0.00000000000E+00 -0.20826652540E+04  0.20826652540E+04  0.00000000000E+00 0. -1.
         24    2    1    2    0    0 -0.61101607917E+02 -0.10922537167E+03 -0.15610578110E+04  0.15681382480E+04  0.80575971895E+02 0.  0.
         23    2    1    2    0    0 -0.13749872100E+02  0.88507625899E+02 -0.22616789355E+02  0.12939253780E+03  0.90599397640E+02 0.  0.
        -13    1    3    3    0    0 -0.15476990317E+02 -0.20707164332E+02 -0.88015713274E+02  0.91733797845E+02  0.00000000000E+00 0.  1.
         14    1    3    3    0    0 -0.45624617600E+02 -0.88518207335E+02 -0.14730420977E+04  0.14764044502E+04  0.00000000000E+00 0. -1.
        -13    1    4    4    0    0  0.20980436058E+02  0.14643844614E+02 -0.38513470253E+02  0.46237520189E+02  0.00000000000E+00 0.  1.
         13    1    4    4    0    0 -0.34730308159E+02  0.73863781285E+02  0.15896680898E+02  0.83155017613E+02  0.00000000000E+00 0. -1.
          1    1    1    2  501    0  0.74851480017E+02  0.20717745767E+02 -0.43865129659E+03  0.44547382533E+03  0.00000000000E+00 0. -1.
<scales pt_clust_5="13000.00000" pt_clust_6="13000.00000" pt_clust_7="13000.00000" pt_clust_8="13000.00000" pt_clust_9="77.66579"></scales>
<clustering>
<clus scale="   77.666">  1  9  2 -1</clus>
<clus scale="   80.576">  5  6 -1 -1</clus>
<clus scale="   90.599">  7  8 -1 -1</clus>
<clus scale="  146.045">  2  5  1 -1</clus>
<clus scale="   77.666">  1  5  2 -1</clus>
</clustering>
</event>
<event>
 9    2  0.1654290E-004  0.1002870E+03  0.7546771E-02  0.1287839E+00
          2   -1    0    0  502    0 -0.00000000000E+00  0.00000000000E+00  0.33648759900E+03  0.33648759900E+03  0.00000000000E+00 0. -1.
         21   -1    0    0  501  502  0.00000000000E+00 -0.00000000000E+00 -0.59127955867E+02  0.59127955867E+02  0.00000000000E+00 0. -1.
         23    2    1    2    0    0 -0.47149396241E+01  0.42677722689E+02  0.23585201802E+03  0.25701994941E+03  0.92679346784E+02 0.  0.
         24    2    1    2    0    0 -0.35047715278E+02 -0.24187409924E+02  0.32924467227E+02  0.93911928455E+02  0.76954899901E+02 0.  0.
        -11    1    4    4    0    0  0.21773861518E+02 -0.14473399527E+02 -0.24786217155E+01  0.26262595167E+02  0.00000000000E+00 0.  1.
         12    1    4    4    0    0 -0.56821576796E+02 -0.97140103969E+01  0.35403088943E+02  0.67649333288E+02  0.00000000000E+00 0. -1.
        -13    1    3    3    0    0 -0.18068188787E+02 -0.25321023294E+02  0.96480762230E+02  0.10137135270E+03  0.00000000000E+00 0.  1.
         13    1    3    3    0    0  0.13353249163E+02  0.67998745983E+02  0.13937125579E+03  0.15564859672E+03  0.00000000000E+00 0. -1.
          1    1    1    2  501    0  0.39762654902E+02 -0.18490312765E+02  0.85831578807E+01  0.44683677000E+02  0.00000000000E+00 0. -1.
<scales pt_clust_5="13000.00000" pt_clust_6="13000.00000" pt_clust_7="13000.00000" pt_clust_8="13000.00000" pt_clust_9="43.85157"></scales>
<clustering>
<clus scale="   43.852">  2  9  1 -1</clus>
<clus scale="   76.955">  5  6 -1 -1</clus>
<clus scale="   85.966">  2  5  1 -1</clus>
<clus scale="   92.679">  7  8 -1 -1</clus>
<clus scale="   43.852">  2  5  1 -1</clus>
</clustering>
</event>
<event>
 9    2  0.1812190E-004  0.1007802E+03  0.7546771E-02  0.1284464E+00
         21   -1    0    0  501  502  0.00000000000E+00  0.00000000000E+00  0.58710850465E+03  0.58710850465E+03  0.00000000000E+00 0.  1.
         -1   -1    0    0    0  501 -0.00000000000E+00 -0.00000000000E+00 -0.16963080275E+03  0.16963080275E+03  0.00000000000E+00 0.  1.
         24    2    1    2    0    0 -0.24023069195E+02  0.38791482135E+02 -0.14152740534E+03  0.16763840337E+03  0.77399876504E+02 0.  0.
         23    2    1    2    0    0 -0.10546337688E+02 -0.87609739196E+02  0.35955244290E+03  0.38087114768E+03  0.89432546086E+02 0.  0.
        -11    1    3    3    0    0 -0.21717294189E+02  0.24923446362E+02 -0.14836649032E+03  0.15200471866E+03  0.00000000000E+00 0.  1.
         12    1    3    3    0    0 -0.23057750058E+01  0.13868035773E+02  0.68390849724E+01  0.15633684717E+02  0.00000000000E+00 0. -1.
        -13    1    4    4    0    0 -0.28002247631E+02 -0.99628487277E+02  0.31435125152E+03  0.33094813897E+03  0.00000000000E+00 0.  1.
         13    1    4    4    0    0  0.17455909943E+02  0.12018748081E+02  0.45201191376E+02  0.49923008716E+02  0.00000000000E+00 0. -1.
         -2    1    1    2    0  502  0.34569406883E+02  0.48818257061E+02  0.19945266434E+03  0.20822975634E+03  0.00000000000E+00 0.  1.
<scales pt_clust_5="13000.00000" pt_clust_6="13000.00000" pt_clust_7="13000.00000" pt_clust_8="13000.00000" pt_clust_9="59.81861"></scales>
<clustering>
<clus scale="   59.819">  1  9  2 -1</clus>
<clus scale="   77.400">  5  6 -1 -1</clus>
<clus scale="   89.433">  7  8 -1 -1</clus>
<clus scale="   90.273">  2  5  1 -1</clus>
<clus scale="   59.819">  1  5  2 -1</clus>
</clustering>
</event>
<event>
 9    2  0.1654290E-004  0.1750995E+03  0.7546771E-02  0.1173388E+00
         -1   -1    0    0    0  501 -0.00000000000E+00  0.00000000000E+00  0.67206358975E+03  0.67206358975E+03  0.00000000000E+00 0.  1.
         21   -1    0    0  501  502  0.00000000000E+00 -0.00000000000E+00 -0.96748888800E+02  0.96748888800E+02  0.00000000000E+00 0.  1.
         24    2    1    2    0    0  0.13496880740E+03  0.50059460960E+02  0.17927506123E+03  0.24370546475E+03  0.80810131564E+02 0.  0.
         23    2    1    2    0    0 -0.17559599702E+03  0.98391163278E+01  0.99758837804E+02  0.22011402752E+03  0.86991936488E+02 0.  0.
        -13    1    3    3    0    0  0.14606648513E+03  0.45090288451E+02  0.16433743367E+03  0.22444452387E+03  0.00000000000E+00 0.  1.
         14    1    3    3    0    0 -0.11097677722E+02  0.49691725082E+01  0.14937627557E+02  0.19260940872E+02  0.00000000000E+00 0. -1.
        -11    1    4    4    0    0 -0.13062465225E+03  0.45769616326E+02  0.75329299751E+02  0.15758223553E+03  0.00000000000E+00 0.  1.
         11    1    4    4    0    0 -0.44971344772E+02 -0.35930499998E+02  0.24429538053E+02  0.62531791996E+02  0.00000000000E+00 0. -1.
         -2    1    1    2    0  502  0.40627189614E+02 -0.59898577287E+02  0.29628080191E+03  0.30499298628E+03  0.00000000000E+00 0.  1.
<scales pt_clust_5="13000.00000" pt_clust_6="13000.00000" pt_clust_7="13000.00000" pt_clust_8="13000.00000" pt_clust_9="72.37688"></scales>
<clustering>
<clus scale="   72.377">  2  9  1 -1</clus>
<clus scale="   80.810">  5  6 -1 -1</clus>
<clus scale="   86.992">  7  8 -1 -1</clus>
<clus scale="  172.112">  1  5  2 -1</clus>
<clus scale="   72.377">  2  5  1 -1</clus>
</clustering>
</event>
<event>
 9    2  0.1654290E-004  0.1196309E+03  0.7546771E-02  0.1246383E+00
         21   -1    0    0  501  502  0.00000000000E+00  0.00000000000E+00  0.31241289899E+02  0.31241289899E+02  0.00000000000E+00 0. -1.
          2   -1    0    0  502    0 -0.00000000000E+00 -0.00000000000E+00 -0.10499767064E+04  0.10499767064E+04  0.00000000000E+00 0. -1.
         24    2    1    2    0    0 -0.47865517073E+00 -0.75714504308E+02 -0.57964192436E+03  0.59014491405E+03  0.80952725917E+02 0.  0.
         23    2    1    2    0    0 -0.74919908044E+02  0.80854641911E+02 -0.31898069997E+03  0.34916308544E+03  0.89530483863E+02 0.  0.
        -11    1    3    3    0    0 -0.33970927282E+02 -0.99026663642E+01 -0.14366407169E+03  0.14795760270E+03  0.00000000000E+00 0.  1.
         12    1    3    3    0    0  0.33492272111E+02 -0.65811837944E+02 -0.43597785267E+03  0.44218731135E+03  0.00000000000E+00 0. -1.
        -11    1    4    4    0    0 -0.94804325909E+02  0.70399053741E+02 -0.28422471285E+03  0.30777845015E+03  0.00000000000E+00 0. -1.
         11    1    4    4    0    0  0.19884417866E+02  0.10455588170E+02 -0.34755987120E+02  0.41384635296E+02  0.00000000000E+00 0.  1.
          1    1    1    2  501    0  0.75398563215E+02 -0.51401376029E+01 -0.12011279215E+03  0.14190999678E+03  0.00000000000E+00 0. -1.
<scales pt_clust_5="13000.00000" pt_clust_6="13000.00000" pt_clust_7="13000.00000" pt_clust_8="13000.00000" pt_clust_9="75.57357"></scales>
<clustering>
<clus scale="   75.574">  1  9  2 -1</clus>
<clus scale="   80.953">  5  6 -1 -1</clus>
<clus scale="   89.530">  7  8 -1 -1</clus>
<clus scale="  113.354">  2  5  1 -1</clus>
<clus scale="   75.574">  1  5  2 -1</clus>
</clustering>
</event>
<event>
 9    2  0.1654290E-004  0.9777657E+02  0.7546771E-02  0.1291384E+00
         21   -1    0    0  501  502  0.00000000000E+00  0.00000000000E+00  0.41733043559E+03  0.41733043559E+03  0.00000000000E+00 0. -1.
          2   -1    0    0  502    0 -0.00000000000E+00 -0.00000000000E+00 -0.16311172575E+03  0.16311172575E+03  0.00000000000E+00 0. -1.
         24    2    1    2    0    0 -0.40775883690E+02  0.29090230787E+02 -0.98672621930E+02  0.13654875632E+03  0.80002264444E+02 0.  0.
         23    2    1    2    0    0 -0.45792685763E+02 -0.13373666179E+02  0.27826378831E+02  0.10713184064E+03  0.91799231493E+02 0.  0.
        -11    1    3    3    0    0  0.14225771747E+02  0.36207011726E+02 -0.39064998086E+02  0.55130702474E+02  0.00000000000E+00 0.  1.
         12    1    3    3    0    0 -0.55001655437E+02 -0.71167809385E+01 -0.59607623845E+02  0.81418053846E+02  0.00000000000E+00 0. -1.
        -13    1    4    4    0    0  0.27621418379E+02 -0.76651644071E+01  0.74768453485E+00  0.28675015794E+02  0.00000000000E+00 0.  1.
         13    1    4    4    0    0 -0.73414104142E+02 -0.57085017724E+01  0.27078694296E+02  0.78456824841E+02  0.00000000000E+00 0. -1.
          1    1    1    2  501    0  0.86568569453E+02 -0.15716564608E+02  0.32506495294E+03  0.33676156439E+03  0.00000000000E+00 0. -1.
<scales pt_clust_5="13000.00000" pt_clust_6="13000.00000" pt_clust_7="13000.00000" pt_clust_8="13000.00000" pt_clust_9="87.98368"></scales>
<clustering>
<clus scale="   80.002">  5  6 -1 -1</clus>
<clus scale="   87.984">  1  9  2 -1</clus>
<clus scale="   86.796">  2  5  1 -1</clus>
<clus scale="   91.799">  7  8 -1 -1</clus>
<clus scale="   87.984">  1  5  2 -1</clus>
</clustering>
</event>
<event>
 9    2  0.1654290E-004  0.2970155E+03  0.7546771E-02  0.1087077E+00
         21   -1    0    0  501  502  0.00000000000E+00  0.00000000000E+00  0.11848904769E+04  0.11848904769E+04  0.00000000000E+00 0. -1.
          2   -1    0    0  502    0 -0.00000000000E+00 -0.00000000000E+00 -0.32904106896E+03  0.32904106896E+03  0.00000000000E+00 0. -1.
         23    2    1    2    0    0 -0.27989033869E+03 -0.36693149306E+02 -0.16159564719E+03  0.33723199045E+03  0.89035236256E+02 0.  0.
         24    2    1    2    0    0  0.25814610601E+03  0.23819902369E+03  0.81100330460E+03  0.88739759304E+03  0.79811910883E+02 0.  0.
        -13    1    4    4    0    0  0.22494315698E+02  0.11679115359E+02  0.12444016721E+03  0.12699508332E+03  0.00000000000E+00 0.  1.
         14    1    4    4    0    0  0.23565179031E+03  0.22651990833E+03  0.68656313739E+03  0.76040250971E+03  0.00000000000E+00 0. -1.
        -11    1    3    3    0    0 -0.50962781158E+02  0.23050932279E+02 -0.11681766754E+02  0.57140302911E+02  0.00000000000E+00 0.  1.
         11    1    3    3    0    0 -0.22892755753E+03 -0.59744081585E+02 -0.14991388043E+03  0.28009168754E+03  0.00000000000E+00 0. -1.
          1    1    1    2  501    0  0.21744232686E+02 -0.20150587438E+03  0.20644175048E+03  0.28930196233E+03  0.00000000000E+00 0. -1.
<scales pt_clust_5="13000.00000" pt_clust_6="13000.00000" pt_clust_7="13000.00000" pt_clust_8="13000.00000" pt_clust_9="202.67567"></scales>
<clustering>
<clus scale="   79.812">  5  6 -1 -1</clus>
<clus scale="   89.035">  7  8 -1 -1</clus>
<clus scale="  202.676">  1  9  2 -1</clus>
<clus scale="  294.382">  1  5  2 -1</clus>
<clus scale="  202.676">  1  5  2 -1</clus>
</clustering>
</event>
<event>
 9    2  0.1654290E-004  0.1196589E+03  0.7546771E-02  0.1245675E+00
          2   -1    0    0  502    0 -0.00000000000E+00  0.00000000000E+00  0.91675759537E+03  0.91675759537E+03  0.00000000000E+00 0. -1.
         21   -1    0    0  501  502  0.00000000000E+00 -0.00000000000E+00 -0.66545711535E+02  0.66545711535E+02  0.00000000000E+00 0.  1.
         23    2    1    2    0    0  0.65361872502E+02  0.27564519981E+02  0.39913212858E+03  0.41551530705E+03  0.91184084084E+02 0.  0.
         24    2    1    2    0    0 -0.13986225324E+03  0.59906907881E+02  0.10160081957E+03  0.19990611132E+03  0.80557056260E+02 0.  0.
        -13    1    4    4    0    0 -0.14980198194E+03  0.54329699616E+02  0.87559949424E+02  0.18182160157E+03  0.00000000000E+00 0.  1.
         14    1    4    4    0    0  0.99397286989E+01  0.55772082653E+01  0.14040870144E+02  0.18084509754E+02  0.00000000000E+00 0. -1.
        -11    1    3    3    0    0 -0.22444168500E+02  0.95018556862E+01  0.60662984740E+02  0.65376017611E+02  0.00000000000E+00 0.  1.
         11    1    3    3    0    0  0.87806041001E+02  0.18062664294E+02  0.33846914384E+03  0.35013928944E+03  0.00000000000E+00 0. -1.
          1    1    1    2  501    0  0.74500380738E+02 -0.87471427862E+02  0.34947893569E+03  0.36788188853E+03  0.00000000000E+00 0. -1.
<scales pt_clust_5="13000.00000" pt_clust_6="13000.00000" pt_clust_7="13000.00000" pt_clust_8="13000.00000" pt_clust_9="114.89809"></scales>
<clustering>
<clus scale="   80.557">  5  6 -1 -1</clus>
<clus scale="   91.184">  7  8 -1 -1</clus>
<clus scale="  114.898">  2  9  1 -1</clus>
<clus scale="  114.898">  2  5  1 -1</clus>
<clus scale="  114.898">  2  5  1 -1</clus>
</clustering>
</event>
<event>
 9    2  0.1889787E-004  0.1266055E+03  0.7546771E-02  0.1246995E+00
         -3   -1    0    0    0  501 -0.00000000000E+00  0.00000000000E+00  0.18270616414E+03  0.18270616414E+03  0.00000000000E+00 0.  1.
         21   -1    0    0  501  502  0.00000000000E+00 -0.00000000000E+00 -0.38103260126E+03  0.38103260126E+03  0.00000000000E+00 0.  1.
         23    2    1    2    0    0  0.15071501499E+02 -0.23109984137E+02  0.12087162718E+03  0.15340644693E+03  0.90345814383E+02 0.  0.
         24    2    1    2    0    0  0.80423624936E+02 -0.15379491887E+02 -0.55317256143E+02  0.12707653327E+03  0.79899676229E+02 0.  0.
        -13    1    4    4    0    0  0.94103739515E+02 -0.78900027793E+01 -0.33378918397E+02  0.10015946350E+03  0.00000000000E+00 0.  1.
         14    1    4    4    0    0 -0.13680114579E+02 -0.74894891074E+01 -0.21938337745E+02  0.26917069770E+02  0.00000000000E+00 0. -1.
        -11    1    3    3    0    0  0.43812578372E+02 -0.28841134422E+02  0.11050136024E+03  0.12231886066E+03  0.00000000000E+00 0.  1.
         11    1    3    3    0    0 -0.28741076874E+02  0.57311502853E+01  0.10370266945E+02  0.31087586268E+02  0.00000000000E+00 0. -1.
         -4    1    1    2    0  502 -0.95495126435E+02  0.38489476023E+02 -0.26388080816E+03  0.28325578521E+03  0.00000000000E+00 0.  1.
<scales pt_clust_5="13000.00000" pt_clust_6="13000.00000" pt_clust_7="13000.00000" pt_clust_8="13000.00000" pt_clust_9="98.20891"></scales>
<clustering>
<clus scale="   79.900">  5  6 -1 -1</clus>
<clus scale="   90.346">  7  8 -1 -1</clus>
<clus scale="   94.465">  1  7  2 -1</clus>
<clus scale="   98.209">  2  9  1 -1</clus>
<clus scale="   98.209">  2  5  1 -1</clus>
</clustering>
</event>
<event>
 9    2  0.1654290E-004  0.2602403E+03  0.7546771E-02  0.1135383E+00
          2   -1    0    0  502    0 -0.00000000000E+00  0.00000000000E+00  0.34075121523E+03  0.34075121523E+03  0.00000000000E+00 0. -1.
         21   -1    0    0  501  502  0.00000000000E+00 -0.00000000000E+00 -0.35426044560E+03  0.35426044560E+03  0.00000000000E+00 0. -1.
         23    2    1    2    0    0  0.89010151290E+02  0.51099083088E+01 -0.72133240683E+02  0.14705096640E+03  0.92042729821E+02 0.  0.
         24    2    1    2    0    0 -0.29957066954E+03  0.59711539508E+02  0.82685539069E+02  0.32633824723E+03  0.79697548485E+02 0.  0.
        -11    1    4    4    0    0 -0.24333595861E+03  0.72529866620E+02  0.87233375656E+02  0.26848208904E+03  0.00000000000E+00 0.  1.
         12    1    4    4    0    0 -0.56234710922E+02 -0.12818327112E+02 -0.45478365879E+01  0.57856158187E+02  0.00000000000E+00 0. -1.
        -11    1    3    3    0    0  0.15494731096E+02 -0.34936135872E+02 -0.45020843355E+02  0.59055030419E+02  0.00000000000E+00 0.  1.
         11    1    3    3    0    0  0.73515420194E+02  0.40046044180E+02 -0.27112397329E+02  0.87995935984E+02  0.00000000000E+00 0. -1.
          1    1    1    2  501    0  0.21056051825E+03 -0.64821447817E+02 -0.24061528756E+02  0.22162244721E+03  0.00000000000E+00 0. -1.
<scales pt_clust_5="13000.00000" pt_clust_6="13000.00000" pt_clust_7="13000.00000" pt_clust_8="13000.00000" pt_clust_9="247.73637"></scales>
<clustering>
<clus scale="   79.698">  5  6 -1 -1</clus>
<clus scale="   92.043">  7  8 -1 -1</clus>
<clus scale="  128.144">  1  7  2 -1</clus>
<clus scale="  247.736">  2  9  1 -1</clus>
<clus scale="  247.736">  2  5  1 -1</clus>
</clustering>
</event>
<event>
 9    2  0.1654290E-004  0.1047532E+03  0.7546771E-02  0.1276539E+00
         21   -1    0    0  501  502  0.00000000000E+00  0.00000000000E+00  0.15881493789E+03  0.15881493789E+03  0.00000000000E+00 0.  1.
         -1   -1    0    0    0  501 -0.00000000000E+00 -0.00000000000E+00 -0.31742999242E+03  0.31742999242E+03  0.00000000000E+00 0.  1.
         23    2    1    2    0    0  0.50483165497E+02  0.24426147422E+02 -0.25566420688E+03  0.27720939286E+03  0.91299913105E+02 0.  0.
         24    2    1    2    0    0 -0.26738640559E+02 -0.24557547500E+02 -0.12434940186E+02  0.87006138420E+02  0.78085929253E+02 0.  0.
        -11    1    4    4    0    0  0.56702010024E+01 -0.34098485462E+02 -0.32722628153E+02  0.47598616403E+02  0.00000000000E+00 0.  1.
         12    1    4    4    0    0 -0.32408841561E+02  0.95409379628E+01  0.20287687967E+02  0.39407522018E+02  0.00000000000E+00 0. -1.
        -11    1    3    3    0    0  0.29657182084E+02  0.58800389536E+02 -0.17738454557E+03  0.18921498690E+03  0.00000000000E+00 0.  1.
         11    1    3    3    0    0  0.20825983413E+02 -0.34374242114E+02 -0.78279661309E+02  0.87994405963E+02  0.00000000000E+00 0. -1.
         -2    1    1    2    0  502 -0.23744524938E+02  0.13140007765E+00  0.10948409253E+03  0.11202939903E+03  0.00000000000E+00 0.  1.
<scales pt_clust_5="13000.00000" pt_clust_6="13000.00000" pt_clust_7="13000.00000" pt_clust_8="13000.00000" pt_clust_9="23.74489"></scales>
<clustering>
<clus scale="   23.745">  1  9  2 -1</clus>
<clus scale="   78.086">  5  6 -1 -1</clus>
<clus scale="   91.300">  7  8 -1 -1</clus>
<clus scale="   93.461">  1  5  2 -1</clus>
<clus scale="   23.745">  1  5  2 -1</clus>
</clustering>
</event>
<event>
 9    2  0.1654290E-004  0.1330629E+03  0.7546771E-02  0.1225651E+00
         21   -1    0    0  501  502  0.00000000000E+00  0.00000000000E+00  0.72009565975E+02  0.72009565975E+02  0.00000000000E+00 0. -1.
          2   -1    0    0  502    0 -0.00000000000E+00 -0.00000000000E+00 -0.46464091037E+03  0.46464091037E+03  0.00000000000E+00 0. -1.
         24    2    1    2    0    0  0.37651654207E+02 -0.95997752811E+02 -0.34762354410E+03  0.37122946342E+03  0.79598809601E+02 0.  0.
         23    2    1    2    0    0 -0.45068013403E+02  0.66754803149E+02 -0.55738418585E+02  0.13340072783E+03  0.90562979763E+02 0.  0.
        -13    1    3    3    0    0 -0.14466984239E+02 -0.54269210058E+02 -0.99257219376E+02  0.11404576446E+03  0.00000000000E+00 0.  1.
         14    1    3    3    0    0  0.52118638446E+02 -0.41728542753E+02 -0.24836632472E+03  0.25718369896E+03  0.00000000000E+00 0. -1.
        -11    1    4    4    0    0 -0.66691356333E+02  0.31069292184E+02 -0.54669781170E+02  0.91661458092E+02  0.00000000000E+00 0. -1.
         11    1    4    4    0    0  0.21623342930E+02  0.35685510965E+02 -0.10686374149E+01  0.41739269737E+02  0.00000000000E+00 0.  1.
          1    1    1    2  501    0  0.74163591950E+01  0.29242949662E+02  0.10730618290E+02  0.32020285094E+02  0.00000000000E+00 0. -1.
<scales pt_clust_5="13000.00000" pt_clust_6="13000.00000" pt_clust_7="13000.00000" pt_clust_8="13000.00000" pt_clust_9="30.16873"></scales>
<clustering>
<clus scale="   30.169">  1  9  2 -1</clus>
<clus scale="   79.599">  5  6 -1 -1</clus>
<clus scale="   90.563">  7  8 -1 -1</clus>
<clus scale="  125.857">  2  5  1 -1</clus>
<clus scale="   30.169">  1  5  2 -1</clus>
</clustering>
</event>
<event>
 9    2  0.1654290E-004  0.1245953E+03  0.7546771E-02  0.1238374E+00
         21   -1    0    0  501  502  0.00000000000E+00  0.00000000000E+00  0.35805255496E+03  0.35805255496E+03  0.00000000000E+00 0.  1.
          2   -1    0    0  502    0 -0.00000000000E+00 -0.00000000000E+00 -0.13290236336E+03  0.13290236336E+03  0.00000000000E+00 0. -1.
         24    2    1    2    0    0  0.82820488976E+02  0.10166849246E+02  0.35751546332E+02  0.12167873152E+03  0.81024332274E+02 0.  0.
         23    2    1    2    0    0 -0.91851162290E+02  0.79881645307E+02  0.22559351374E+03  0.27180643285E+03  0.90380253532E+02 0.  0.
        -13    1    3    3    0    0  0.76128171799E+02  0.39453841783E+02  0.21345791201E+02  0.88361456387E+02  0.00000000000E+00 0.  1.
         14    1    3    3    0    0  0.66923171770E+01 -0.29286992538E+02  0.14405755132E+02  0.33317275129E+02  0.00000000000E+00 0. -1.
        -13    1    4    4    0    0 -0.10165350945E+02  0.63726505113E+02  0.69156069984E+02  0.94588391621E+02  0.00000000000E+00 0.  1.
         13    1    4    4    0    0 -0.81685811345E+02  0.16155140194E+02  0.15643744375E+03  0.17721804123E+03  0.00000000000E+00 0. -1.
          1    1    1    2  501    0  0.90306733142E+01 -0.90048494553E+02 -0.36194868470E+02  0.97469753951E+02  0.00000000000E+00 0. -1.
<scales pt_clust_5="13000.00000" pt_clust_6="13000.00000" pt_clust_7="13000.00000" pt_clust_8="13000.00000" pt_clust_9="90.50024"></scales>
<clustering>
<clus scale="   81.024">  5  6 -1 -1</clus>
<clus scale="   90.380">  7  8 -1 -1</clus>
<clus scale="   90.500">  1  9  2 -1</clus>
<clus scale="  117.985">  2  5  1 -1</clus>
<clus scale="   90.500">  1  5  2 -1</clus>
</clustering>
</event>
<event>
 9    2  0.1654290E-004  0.1686251E+03  0.7546771E-02  0.1180499E+00
         21   -1    0    0  501  502  0.00000000000E+00  0.00000000000E+00  0.17791283344E+03  0.17791283344E+03  0.00000000000E+00 0. -1.
         -1   -1    0    0    0  501 -0.00000000000E+00 -0.00000000000E+00 -0.18555109416E+03  0.18555109416E+03  0.00000000000E+00 0.  1.
         23    2    1    2    0    0 -0.74928496445E+02  0.12147632030E+03 -0.35643358031E+02  0.17205372353E+03  0.89225886574E+02 0.  0.
         24    2    1    2    0    0  0.57593339387E+02 -0.13253115153E+03  0.36233558154E+02  0.16926467333E+03  0.80350233567E+02 0.  0.
        -11    1    4    4    0    0  0.30909043854E+02 -0.13777924815E+02 -0.15239344726E+02  0.37113849596E+02  0.00000000000E+00 0.  1.
         12    1    4    4    0    0  0.26684295534E+02 -0.11875322671E+03  0.51472902880E+02  0.13215082374E+03  0.00000000000E+00 0. -1.
        -11    1    3    3    0    0 -0.82396088970E+02  0.56501668827E+02 -0.55545637041E+01  0.10006201695E+03  0.00000000000E+00 0. -1.
         11    1    3    3    0    0  0.74675925248E+01  0.64974651476E+02 -0.30088794326E+02  0.71991706582E+02  0.00000000000E+00 0.  1.
         -2    1    1    2    0  502  0.17335157058E+02  0.11054831226E+02 -0.82284608460E+01  0.22145530735E+02  0.00000000000E+00 0.  1.
<scales pt_clust_5="13000.00000" pt_clust_6="13000.00000" pt_clust_7="13000.00000" pt_clust_8="13000.00000" pt_clust_9="20.56009"></scales>
<clustering>
<clus scale="   20.560">  1  9  2 -1</clus>
<clus scale="   80.350">  5  6 -1 -1</clus>
<clus scale="   89.226">  7  8 -1 -1</clus>
<clus scale="  164.102">  1  5  2 -1</clus>
<clus scale="   20.560">  1  5  2 -1</clus>
</clustering>
</event>
<event>
 9    2  0.1654290E-004  0.1003200E+03  0.7546771E-02  0.1283314E+00
          2   -1    0    0  502    0 -0.00000000000E+00  0.00000000000E+00  0.59538999284E+03  0.59538999284E+03  0.00000000000E+00 0. -1.
         21   -1    0    0  501  502  0.00000000000E+00 -0.00000000000E+00 -0.20951923366E+02  0.20951923366E+02  0.00000000000E+00 0.  1.
         23    2    1    2    0    0  0.65509478766E+01 -0.47346896367E+02  0.30151460149E+03  0.31838740988E+03  0.90414845814E+02 0.  0.
         24    2    1    2    0    0  0.16847819479E+02  0.38207027470E+02  0.19214588091E+03  0.21336101904E+03  0.82820643125E+02 0.  0.
        -11    1    4    4    0    0  0.47291191666E+02  0.16002971071E+02  0.73320032299E+02  0.88703883954E+02  0.00000000000E+00 0.  1.
         12    1    4    4    0    0 -0.30443372187E+02  0.22204056399E+02  0.11882584861E+03  0.12465713509E+03  0.00000000000E+00 0. -1.
        -11    1    3    3    0    0 -0.15151155494E+02 -0.68214314634E+02  0.23891908121E+03  0.24892785622E+03  0.00000000000E+00 0. -1.
         11    1    3    3    0    0  0.21702103371E+02  0.20867418267E+02  0.62595520276E+02  0.69459553659E+02  0.00000000000E+00 0.  1.
          1    1    1    2  501    0 -0.23398767356E+02  0.91398688967E+01  0.80777587081E+02  0.84593487290E+02  0.00000000000E+00 0. -1.
<scales pt_clust_5="13000.00000" pt_clust_6="13000.00000" pt_clust_7="13000.00000" pt_clust_8="13000.00000" pt_clust_9="25.12051"></scales>
<clustering>
<clus scale="   25.121">  2  9  1 -1</clus>
<clus scale="   82.821">  5  6 -1 -1</clus>
<clus scale="   90.415">  7  8 -1 -1</clus>
<clus scale="   93.534">  2  5  1 -1</clus>
<clus scale="   25.121">  2  5  1 -1</clus>
</clustering>
</event>
<event>
 9    2  0.1654290E-004  0.1051899E+03  0.7546771E-02  0.1277416E+00
          2   -1    0    0  502    0 -0.00000000000E+00  0.00000000000E+00  0.55027515239E+03  0.55027515239E+03  0.00000000000E+00 0. -1.
         21   -1    0    0  501  502  0.00000000000E+00 -0.00000000000E+00 -0.37301309748E+02  0.37301309748E+02  0.00000000000E+00 0. -1.
         23    2    1    2    0    0 -0.14304178573E+02  0.52684260806E+02  0.44160662248E+03  0.45468329927E+03  0.93489318943E+02 0.  0.
         24    2    1    2    0    0  0.13073148417E+02 -0.26588341586E+02  0.67412424996E+02  0.10647058086E+03  0.76900600951E+02 0.  0.
        -13    1    4    4    0    0 -0.14193131784E+02 -0.32478863279E+02  0.21655579524E+01  0.35510719381E+02  0.00000000000E+00 0.  1.
         14    1    4    4    0    0  0.27266280201E+02  0.58905216930E+01  0.65246867044E+02  0.70959861477E+02  0.00000000000E+00 0. -1.
        -11    1    3    3    0    0 -0.37249480100E+02  0.70116424125E+02  0.31790672993E+03  0.32767136835E+03  0.00000000000E+00 0.  1.
         11    1    3    3    0    0  0.22945301527E+02 -0.17432163319E+02  0.12369989254E+03  0.12701193092E+03  0.00000000000E+00 0. -1.
          1    1    1    2  501    0  0.12310301560E+01 -0.26095919220E+02  0.39547951668E+01  0.26422582009E+02  0.00000000000E+00 0. -1.
<scales pt_clust_5="13000.00000" pt_clust_6="13000.00000" pt_clust_7="13000.00000" pt_clust_8="13000.00000" pt_clust_9="26.12494"></scales>
<clustering>
<clus scale="   26.125">  2  9  1 -1</clus>
<clus scale="   76.901">  5  6 -1 -1</clus>
<clus scale="   90.765">  2  5  1 -1</clus>
<clus scale="   93.489">  7  8 -1 -1</clus>
<clus scale="   26.125">  2  5  1 -1</clus>
</clustering>
</event>
<event>
 9    2  0.1654290E-004  0.9443879E+02  0.7546771E-02  0.1302899E+00
         -1   -1    0    0    0  501 -0.00000000000E+00  0.00000000000E+00  0.22864639586E+03  0.22864639586E+03  0.00000000000E+00 0.  1.
         21   -1    0    0  501  502  0.00000000000E+00 -0.00000000000E+00 -0.97971372211E+02  0.97971372211E+02  0.00000000000E+00 0.  1.
         23    2    1    2    0    0  0.72522093817E+01 -0.15773066667E+02  0.17464833408E+03  0.19871605944E+03  0.93191456207E+02 0.  0.
         24    2    1    2    0    0  0.14776541629E+02  0.13113298860E+02 -0.20102122157E+00  0.78826729893E+02  0.76310603107E+02 0.  0.
        -11    1    4    4    0    0  0.45698758244E+02  0.32133094913E+01 -0.46837274698E+01  0.46050398109E+02  0.00000000000E+00 0.  1.
         12    1    4    4    0    0 -0.30922216615E+02  0.98999893685E+01  0.44827062482E+01  0.32776331784E+02  0.00000000000E+00 0. -1.
        -13    1    3    3    0    0 -0.27119012011E+02 -0.39742072303E+02  0.61676281116E+02  0.78222993907E+02  0.00000000000E+00 0. -1.
         13    1    3    3    0    0  0.34371221392E+02  0.23969005636E+02  0.11297205296E+03  0.12049306553E+03  0.00000000000E+00 0.  1.
         -2    1    1    2    0  502 -0.22028751011E+02  0.26597678076E+01 -0.43772289206E+02  0.49074978739E+02  0.00000000000E+00 0.  1.
<scales pt_clust_5="13000.00000" pt_clust_6="13000.00000" pt_clust_7="13000.00000" pt_clust_8="13000.00000" pt_clust_9="22.18874"></scales>
<clustering>
<clus scale="   22.189">  2  9  1 -1</clus>
<clus scale="   76.311">  5  6 -1 -1</clus>
<clus scale="   77.829">  2  5  1 -1</clus>
<clus scale="   93.191">  7  8 -1 -1</clus>
<clus scale="   22.189">  2  5  1 -1</clus>
</clustering>
</event>
<event>
 9    2  0.1654290E-004  0.1188423E+03  0.7546771E-02  0.1248916E+00
         21   -1    0    0  501  502  0.00000000000E+00  0.00000000000E+00  0.40942269206E+03  0.40942269206E+03  0.00000000000E+00 0.  1.
          2   -1    0    0  502    0 -0.00000000000E+00 -0.00000000000E+00 -0.13817111621E+03  0.13817111621E+03  0.00000000000E+00 0. -1.
         24    2    1    2    0    0  0.58853912795E+02  0.41924332763E+02 -0.90697885771E+02  0.14111807261E+03  0.80416237203E+02 0.  0.
         23    2    1    2    0    0 -0.81764319321E+02 -0.52246188515E+02  0.18849329511E+03  0.23120888444E+03  0.92264607591E+02 0.  0.
        -13    1    3    3    0    0 -0.20155156901E+02  0.10829231529E+02 -0.23879380095E+02  0.33071549690E+02  0.00000000000E+00 0.  1.
         14    1    3    3    0    0  0.79009069696E+02  0.31095101234E+02 -0.66818505676E+02  0.10804652292E+03  0.00000000000E+00 0. -1.
        -13    1    4    4    0    0 -0.31101435350E+02  0.24744933548E+01  0.13719023724E+03  0.14069322511E+03  0.00000000000E+00 0.  1.
         13    1    4    4    0    0 -0.50662883971E+02 -0.54720681869E+02  0.51303057864E+02  0.90515659323E+02  0.00000000000E+00 0. -1.
          1    1    1    2  501    0  0.22910406526E+02  0.10321855751E+02  0.17345616651E+03  0.17526685121E+03  0.00000000000E+00 0. -1.
<scales pt_clust_5="13000.00000" pt_clust_6="13000.00000" pt_clust_7="13000.00000" pt_clust_8="13000.00000" pt_clust_9="25.12822"></scales>
<clustering>
<clus scale="   25.128">  1  9  2 -1</clus>
<clus scale="   80.416">  5  6 -1 -1</clus>
<clus scale="   92.265">  7  8 -1 -1</clus>
<clus scale="  109.898">  2  5  1 -1</clus>
<clus scale="   25.128">  1  5  2 -1</clus>
</clustering>
</event>
<event>
 9    2  0.1654290E-004  0.1190654E+03  0.7546771E-02  0.1249533E+00
          2   -1    0    0  502    0 -0.00000000000E+00  0.00000000000E+00  0.10848472161E+04  0.10848472161E+04  0.00000000000E+00 0. -1.
         21   -1    0    0  501  502  0.00000000000E+00 -0.00000000000E+00 -0.10213542900E+03  0.10213542900E+03  0.00000000000E+00 0. -1.
         24    2    1    2    0    0 -0.23887483080E+02 -0.79403589443E+02  0.98946631444E+03  0.99569403055E+03  0.74077480943E+02 0.  0.
         23    2    1    2    0    0 -0.38333410246E+02  0.11093915814E+02 -0.12015469585E+02  0.98739554065E+02  0.89513142713E+02 0.  0.
        -13    1    3    3    0    0 -0.26203878352E+02 -0.28463856427E+02  0.15808647692E+03  0.16275186189E+03  0.00000000000E+00 0.  1.
         14    1    3    3    0    0  0.23163952721E+01 -0.50939733016E+02  0.83137983752E+03  0.83294216866E+03  0.00000000000E+00 0. -1.
        -11    1    4    4    0    0 -0.44518993622E+02 -0.30741832157E+02 -0.15576173414E+02  0.56299362480E+02  0.00000000000E+00 0. -1.
         11    1    4    4    0    0  0.61855833758E+01  0.41835747971E+02  0.35607038295E+01  0.42440191585E+02  0.00000000000E+00 0.  1.
          1    1    1    2  501    0  0.62220893326E+02  0.68309673629E+02  0.52609422142E+01  0.92549060452E+02  0.00000000000E+00 0. -1.
<scales pt_clust_5="13000.00000" pt_clust_6="13000.00000" pt_clust_7="13000.00000" pt_clust_8="13000.00000" pt_clust_9="92.39941"></scales>
<clustering>
<clus scale="   74.077">  5  6 -1 -1</clus>
<clus scale="   89.513">  7  8 -1 -1</clus>
<clus scale="   92.399">  2  9  1 -1</clus>
<clus scale="  107.942">  1  5  2 -1</clus>
<clus scale="   92.399">  2  5  1 -1</clus>
</clustering>
</event>
<event>
 9    2  0.1654290E-004  0.1214338E+03  0.7546771E-02  0.1243998E+00
         21   -1    0    0  501  502  0.00000000000E+00  0.00000000000E+00  0.14877996821E+03  0.14877996821E+03  0.00000000000E+00 0. -1.
          4   -1    0    0  502    0 -0.00000000000E+00 -0.00000000000E+00 -0.41244900679E+03  0.41244900679E+03  0.00000000000E+00 0. -1.
         24    2    1    2    0    0 -0.23092656876E+02 -0.79591074948E+02 -0.36031239205E+03  0.37845218877E+03  0.80827156995E+02 0.  0.
         23    2    1    2    0    0 -0.92679516116E+01  0.58755163866E+02  0.44013417135E+02  0.11757514231E+03  0.91371051178E+02 0.  0.
        -11    1    3    3    0    0 -0.18573958497E+02  0.13245394021E+02 -0.72184209672E+02  0.75703319101E+02  0.00000000000E+00 0.  1.
         12    1    3    3    0    0 -0.45186983783E+01 -0.92836468969E+02 -0.28812818238E+03  0.30274886967E+03  0.00000000000E+00 0. -1.
        -13    1    4    4    0    0  0.25530626371E+02  0.14676110963E+02 -0.17520794373E+02  0.34266300521E+02  0.00000000000E+00 0.  1.
         13    1    4    4    0    0 -0.34798577983E+02  0.44079052902E+02  0.61534211508E+02  0.83308841790E+02  0.00000000000E+00 0. -1.
          3    1    1    2  501    0  0.32360608487E+02  0.20835911082E+02  0.52629936327E+02  0.65201643922E+02  0.00000000000E+00 0. -1.
<scales pt_clust_5="13000.00000" pt_clust_6="13000.00000" pt_clust_7="13000.00000" pt_clust_8="13000.00000" pt_clust_9="38.48823"></scales>
<clustering>
<clus scale="   38.488">  1  9  2 -1</clus>
<clus scale="   80.827">  5  6 -1 -1</clus>
<clus scale="   91.371">  7  8 -1 -1</clus>
<clus scale="  113.712">  2  5  1 -1</clus>
<clus scale="   38.488">  1  5  2 -1</clus>
</clustering>
</event>
<event>
 9    2  0.1654290E-004  0.2468483E+03  0.7546771E-02  0.1154575E+00
          2   -1    0    0  502    0 -0.00000000000E+00  0.00000000000E+00  0.53801761281E+03  0.53801761281E+03  0.00000000000E+00 0. -1.
         21   -1    0    0  501  502  0.00000000000E+00 -0.00000000000E+00 -0.33589973842E+03  0.33589973842E+03  0.00000000000E+00 0. -1.
         24    2    1    2    0    0  0.36957803113E+02  0.31616693447E+02  0.23485844215E+03  0.25330643009E+03  0.81487208576E+02 0.  0.
         23    2    1    2    0    0  0.19753961041E+03 -0.49220732798E+02  0.19272848839E+03  0.29482689078E+03  0.91291002140E+02 0.  0.
        -11    1    3    3    0    0  0.13421116343E+02  0.51798667407E+02  0.86265954722E+02  0.10151375894E+03  0.00000000000E+00 0.  1.
         12    1    3    3    0    0  0.23536686770E+02 -0.20181973960E+02  0.14859248743E+03  0.15179267116E+03  0.00000000000E+00 0. -1.
        -13    1    4    4    0    0  0.28660723681E+02  0.96647573862E+01  0.74567387983E+02  0.80468254411E+02  0.00000000000E+00 0.  1.
         13    1    4    4    0    0  0.16887888673E+03 -0.58885490184E+02  0.11816110041E+03  0.21435863637E+03  0.00000000000E+00 0. -1.
          1    1    1    2  501    0 -0.23449741352E+03  0.17604039351E+02 -0.22546905615E+03  0.32578403035E+03  0.00000000000E+00 0. -1.
<scales pt_clust_5="13000.00000" pt_clust_6="13000.00000" pt_clust_7="13000.00000" pt_clust_8="13000.00000" pt_clust_9="229.34699"></scales>
<clustering>
<clus scale="   81.487">  5  6 -1 -1</clus>
<clus scale="   91.291">  7  8 -1 -1</clus>
<clus scale="   94.898">  1  5  2 -1</clus>
<clus scale="  229.347">  2  9  1 -1</clus>
<clus scale="  229.347">  2  5  1 -1</clus>
</clustering>
</event>
<event>
 9    2  0.1654290E-004  0.1747372E+03  0.7546771E-02  0.1206946E+00
         21   -1    0    0  501  502  0.00000000000E+00  0.00000000000E+00  0.65202941923E+02  0.65202941923E+02  0.00000000000E+00 0. -1.
          2   -1    0    0  502    0 -0.00000000000E+00 -0.00000000000E+00 -0.63111525587E+03  0.63111525587E+03  0.00000000000E+00 0. -1.
         24    2    1    2    0    0 -0.48987828680E+01 -0.18366495006E+02 -0.17436228492E+03  0.19290156748E+03  0.80296214872E+02 0.  0.
         23    2    1    2    0    0  0.14224225319E+03  0.30979634811E+02 -0.22297726331E+03  0.28561144791E+03  0.10325910546E+03 0.  0.
        -13    1    3    3    0    0  0.35732809735E+02 -0.17590118188E+02 -0.10770361839E+03  0.11483168275E+03  0.00000000000E+00 0.  1.
         14    1    3    3    0    0 -0.40631592603E+02 -0.77637681798E+00 -0.66658666529E+02  0.78069884731E+02  0.00000000000E+00 0. -1.
        -13    1    4    4    0    0  0.15279782753E+03  0.79755381581E+01 -0.18690893958E+03  0.24154862244E+03  0.00000000000E+00 0. -1.
         13    1    4    4    0    0 -0.10555574338E+02  0.23004096653E+02 -0.36068323725E+02  0.44062825474E+02  0.00000000000E+00 0.  1.
          1    1    1    2  501    0 -0.13734347032E+03 -0.12613139805E+02 -0.16857276572E+03  0.21780518239E+03  0.00000000000E+00 0. -1.
<scales pt_clust_5="13000.00000" pt_clust_6="13000.00000" pt_clust_7="13000.00000" pt_clust_8="13000.00000" pt_clust_9="140.96323"></scales>
<clustering>
<clus scale="   80.296">  5  6 -1 -1</clus>
<clus scale="   82.516">  2  5  1 -1</clus>
<clus scale="  103.259">  7  8 -1 -1</clus>
<clus scale="  140.963">  1  9  2 -1</clus>
<clus scale="  140.963">  1  5  2 -1</clus>
</clustering>
</event>
<event>
 9    2  0.1654290E-004  0.1276936E+03  0.7546771E-02  0.1233892E+00
         -3   -1    0    0    0  501 -0.00000000000E+00  0.00000000000E+00  0.35096872709E+03  0.35096872709E+03  0.00000000000E+00 0.  1.
         21   -1    0    0  501  502  0.00000000000E+00 -0.00000000000E+00 -0.69026263577E+02  0.69026263577E+02  0.00000000000E+00 0.  1.
         24    2    1    2    0    0 -0.39112591544E+02 -0.66851356419E+02  0.11192094219E+03  0.15847734075E+03  0.81178023861E+02 0.  0.
         23    2    1    2    0    0  0.84650438542E+02  0.71541741361E+02  0.91590640672E+02  0.17070411425E+03  0.92017018329E+02 0.  0.
        -13    1    3    3    0    0 -0.47259445002E+02 -0.79515705759E+02  0.10930825561E+03  0.14319391520E+03  0.00000000000E+00 0.  1.
         14    1    3    3    0    0  0.81468534582E+01  0.12664349341E+02  0.26126865781E+01  0.15283425553E+02  0.00000000000E+00 0. -1.
        -13    1    4    4    0    0  0.57378190357E+02  0.91137051555E+02  0.83199599887E+02  0.13608964809E+03  0.00000000000E+00 0.  1.
         13    1    4    4    0    0  0.27272248184E+02 -0.19595310194E+02  0.83910407856E+01  0.34614466168E+02  0.00000000000E+00 0. -1.
         -4    1    1    2    0  502 -0.45537846997E+02 -0.46903849429E+01  0.78430880652E+02  0.90813535664E+02  0.00000000000E+00 0.  1.
<scales pt_clust_5="13000.00000" pt_clust_6="13000.00000" pt_clust_7="13000.00000" pt_clust_8="13000.00000" pt_clust_9="45.77879"></scales>
<clustering>
<clus scale="   45.779">  2  9  1 -1</clus>
<clus scale="   81.178">  5  6 -1 -1</clus>
<clus scale="   92.017">  7  8 -1 -1</clus>
<clus scale="  120.118">  1  5  2 -1</clus>
<clus scale="   45.779">  2  5  1 -1</clus>
</clustering>
</event>
<event>
 9    2  0.1654290E-004  0.2198111E+03  0.7546771E-02  0.1152378E+00
         21   -1    0    0  501  502  0.00000000000E+00  0.00000000000E+00  0.45287091333E+03  0.45287091333E+03  0.00000000000E+00 0. -1.
          2   -1    0    0  502    0 -0.00000000000E+00 -0.00000000000E+00 -0.22359716254E+03  0.22359716254E+03  0.00000000000E+00 0. -1.
         24    2    1    2    0    0  0.10098766903E+03 -0.53760719596E+02  0.99154857299E+02  0.17281326767E+03  0.83330759568E+02 0.  0.
         23    2    1    2    0    0  0.12586318238E+02 -0.18027328611E+03  0.13557566595E+03  0.24346114422E+03  0.90750727030E+02 0.  0.
        -11    1    3    3    0    0  0.66465981866E+02 -0.18656053418E+02  0.10237131705E+03  0.12347332356E+03  0.00000000000E+00 0.  1.
         12    1    3    3    0    0  0.34521687164E+02 -0.35104666178E+02 -0.32164597548E+01  0.49339944117E+02  0.00000000000E+00 0. -1.
        -13    1    4    4    0    0 -0.27883275870E+01 -0.54775464180E+02 -0.41729330131E+01  0.55004905388E+02  0.00000000000E+00 0.  1.
         13    1    4    4    0    0  0.15374645825E+02 -0.12549782193E+03  0.13974859896E+03  0.18845623883E+03  0.00000000000E+00 0. -1.
          1    1    1    2  501    0 -0.11357398727E+03  0.23403400570E+03 -0.54567724574E+01  0.26019366398E+03  0.00000000000E+00 0. -1.
<scales pt_clust_5="13000.00000" pt_clust_6="13000.00000" pt_clust_7="13000.00000" pt_clust_8="13000.00000" pt_clust_9="200.20311"></scales>
<clustering>
<clus scale="   83.331">  5  6 -1 -1</clus>
<clus scale="   90.751">  7  8 -1 -1</clus>
<clus scale="  141.537">  2  5  1 -1</clus>
<clus scale="  200.203">  1  9  2 -1</clus>
<clus scale="  200.203">  1  5  2 -1</clus>
</clustering>
</event>
<event>
 9    2  0.1654290E-004  0.1190547E+03  0.7546771E-02  0.1244836E+00
         21   -1    0    0  501  502  0.00000000000E+00  0.00000000000E+00  0.32820748895E+02  0.32820748895E+02  0.00000000000E+00 0.  1.
          2   -1    0    0  502    0 -0.00000000000E+00 -0.00000000000E+00 -0.79506551591E+03  0.79506551591E+03  0.00000000000E+00 0. -1.
         23    2    1    2    0    0  0.26486290957E+02 -0.73635529990E+02 -0.40366815429E+03  0.41892938384E+03  0.80188122392E+02 0.  0.
         24    2    1    2    0    0 -0.44427845980E+02  0.10850687595E+03 -0.19688419739E+03  0.24257675191E+03  0.79577118322E+02 0.  0.
        -13    1    4    4    0    0 -0.64733140009E+02  0.10116668949E+03 -0.16591918498E+03  0.20482737713E+03  0.00000000000E+00 0.  1.
         14    1    4    4    0    0  0.20305294029E+02  0.73401864540E+01 -0.30965012408E+02  0.37749374779E+02  0.00000000000E+00 0. -1.
        -11    1    3    3    0    0  0.52750700558E+02 -0.62641343497E+02 -0.26488191206E+03  0.27725259541E+03  0.00000000000E+00 0.  1.
         11    1    3    3    0    0 -0.26264409601E+02 -0.10994186493E+02 -0.13878624223E+03  0.14167678843E+03  0.00000000000E+00 0. -1.
          1    1    1    2  501    0  0.17941555024E+02 -0.34871345957E+02 -0.16169241533E+03  0.16638012905E+03  0.00000000000E+00 0. -1.
<scales pt_clust_5="13000.00000" pt_clust_6="13000.00000" pt_clust_7="13000.00000" pt_clust_8="13000.00000" pt_clust_9="39.21622"></scales>
<clustering>
<clus scale="   39.216">  1  9  2 -1</clus>
<clus scale="   79.577">  5  6 -1 -1</clus>
<clus scale="   80.188">  7  8 -1 -1</clus>
<clus scale="  118.644">  1  5  2 -1</clus>
<clus scale="   39.216">  1  5  2 -1</clus>
</clustering>
</event>
<event>
 9    2  0.1654290E-004  0.1498023E+03  0.7546771E-02  0.1222746E+00
          2   -1    0    0  502    0 -0.00000000000E+00  0.00000000000E+00  0.97049378430E+03  0.97049378430E+03  0.00000000000E+00 0. -1.
         21   -1    0    0  501  502  0.00000000000E+00 -0.00000000000E+00 -0.36045763825E+02  0.36045763825E+02  0.00000000000E+00 0. -1.
         23    2    1    2    0    0  0.82258070881E+01 -0.25243472787E+02  0.30507715638E+03  0.31914621230E+03  0.89874004361E+02 0.  0.
         24    2    1    2    0    0 -0.12123433298E+03 -0.29793460910E+02  0.31822160473E+03  0.35181346068E+03  0.83200406211E+02 0.  0.
        -11    1    4    4    0    0 -0.44079660598E+02  0.28790900732E+02  0.98643032011E+02  0.11181404298E+03  0.00000000000E+00 0.  1.
         12    1    4    4    0    0 -0.77154672387E+02 -0.58584361642E+02  0.21957857272E+03  0.23999941770E+03  0.00000000000E+00 0. -1.
        -11    1    3    3    0    0 -0.31704563092E+02  0.93349609243E+01  0.18551176170E+03  0.18843283829E+03  0.00000000000E+00 0.  1.
         11    1    3    3    0    0  0.39930370180E+02 -0.34578433711E+02  0.11956539468E+03  0.13071337401E+03  0.00000000000E+00 0. -1.
          1    1    1    2  501    0  0.11300852590E+03  0.55036933696E+02  0.31114925936E+03  0.33557987514E+03  0.00000000000E+00 0. -1.
<scales pt_clust_5="13000.00000" pt_clust_6="13000.00000" pt_clust_7="13000.00000" pt_clust_8="13000.00000" pt_clust_9="124.57306"></scales>
<clustering>
<clus scale="   83.200">  5  6 -1 -1</clus>
<clus scale="   89.874">  7  8 -1 -1</clus>
<clus scale="   93.714">  1  7  2 -1</clus>
<clus scale="  124.573">  2  9  1 -1</clus>
<clus scale="  124.573">  2  5  1 -1</clus>
</clustering>
</event>
<event>
 9    2  0.1654290E-004  0.1319977E+03  0.7546771E-02  0.1225845E+00
         -3   -1    0    0    0  501 -0.00000000000E+00  0.00000000000E+00  0.91813219442E+02  0.91813219442E+02  0.00000000000E+00 0.  1.
         21   -1    0    0  501  502  0.00000000000E+00 -0.00000000000E+00 -0.54301973578E+03  0.54301973578E+03  0.00000000000E+00 0.  1.
         23    2    1    2    0    0  0.50764537755E+02 -0.82869789067E+02 -0.97317282425E+01  0.12288199261E+03  0.74571022124E+02 0.  0.
         24    2    1    2    0    0 -0.10737891382E+03  0.76848630014E+02 -0.15180407323E+03  0.21673821732E+03  0.80591780776E+02 0.  0.
        -13    1    4    4    0    0 -0.54725579109E+02 -0.63596613346E+01 -0.42202542637E+02  0.69400208257E+02  0.00000000000E+00 0.  1.
         14    1    4    4    0    0 -0.52653334707E+02  0.83208291349E+02 -0.10960153060E+03  0.14733800906E+03  0.00000000000E+00 0. -1.
        -11    1    3    3    0    0 -0.75983910938E+01 -0.55012321308E+02  0.72844951569E+01  0.56010310770E+02  0.00000000000E+00 0.  1.
         11    1    3    3    0    0  0.58362928849E+02 -0.27857467759E+02 -0.17016223399E+02  0.66871681844E+02  0.00000000000E+00 0. -1.
         -4    1    1    2    0  502  0.56614376061E+02  0.60211590530E+01 -0.28967071486E+03  0.29521274529E+03  0.00000000000E+00 0.  1.
<scales pt_clust_5="13000.00000" pt_clust_6="13000.00000" pt_clust_7="13000.00000" pt_clust_8="13000.00000" pt_clust_9="56.93366"></scales>
<clustering>
<clus scale="   56.934">  2  9  1 -1</clus>
<clus scale="   74.571">  7  8 -1 -1</clus>
<clus scale="   80.592">  5  6 -1 -1</clus>
<clus scale="  128.410">  1  7  2 -1</clus>
<clus scale="   56.934">  2  5  1 -1</clus>
</clustering>
</event>
<event>
 9    2  0.1654290E-004  0.1130416E+03  0.7546771E-02  0.1259345E+00
          4   -1    0    0  502    0 -0.00000000000E+00  0.00000000000E+00  0.89396787038E+02  0.89396787038E+02  0.00000000000E+00 0. -1.
         21   -1    0    0  501  502  0.00000000000E+00 -0.00000000000E+00 -0.48065437251E+03  0.48065437251E+03  0.00000000000E+00 0.  1.
         23    2    1    2    0    0 -0.31709822194E+02  0.38754637470E+02 -0.19281801429E+01  0.10399326654E+03  0.91123250922E+02 0.  0.
         24    2    1    2    0    0  0.72434922065E+02 -0.11839495142E+03 -0.19536606143E+03  0.25246273355E+03  0.79406242936E+02 0.  0.
        -13    1    4    4    0    0  0.50935236413E+02 -0.35916799620E+02 -0.13290272240E+03  0.14679083222E+03  0.00000000000E+00 0.  1.
         14    1    4    4    0    0  0.21499685652E+02 -0.82478151801E+02 -0.62463339031E+02  0.10567190133E+03  0.00000000000E+00 0. -1.
        -13    1    3    3    0    0 -0.29027482413E+02 -0.20672379613E+02  0.19672200718E+02  0.40705497113E+02  0.00000000000E+00 0.  1.
         13    1    3    3    0    0 -0.26823397818E+01  0.59427017083E+02 -0.21600380861E+02  0.63287769430E+02  0.00000000000E+00 0. -1.
          3    1    1    2  501    0 -0.40725099870E+02  0.79640313951E+02 -0.19396334390E+03  0.21359515945E+03  0.00000000000E+00 0. -1.
<scales pt_clust_5="13000.00000" pt_clust_6="13000.00000" pt_clust_7="13000.00000" pt_clust_8="13000.00000" pt_clust_9="89.44894"></scales>
<clustering>
<clus scale="   79.406">  5  6 -1 -1</clus>
<clus scale="   89.449">  2  9  1 -1</clus>
<clus scale="   91.123">  7  8 -1 -1</clus>
<clus scale="  103.828">  2  5  1 -1</clus>
<clus scale="   89.449">  2  5  1 -1</clus>
</clustering>
</event>
<event>
 9    2  0.1654290E-004  0.1657980E+03  0.7546771E-02  0.1184241E+00
         21   -1    0    0  501  502  0.00000000000E+00  0.00000000000E+00  0.51132115815E+03  0.51132115815E+03  0.00000000000E+00 0.  1.
         -1   -1    0    0    0  501 -0.00000000000E+00 -0.00000000000E+00 -0.34163470972E+03  0.34163470972E+03  0.00000000000E+00 0.  1.
         24    2    1    2    0    0 -0.12811415228E+03  0.33803719908E+02 -0.20922869404E+03  0.26050635755E+03  0.80814530978E+02 0.  0.
         23    2    1    2    0    0  0.17878223245E+03 -0.13411224498E+03  0.40959986216E+03  0.47595656387E+03  0.93879831265E+02 0.  0.
        -11    1    3    3    0    0 -0.12950263876E+03  0.48807488244E+02 -0.17501658669E+03  0.22312308256E+03  0.00000000000E+00 0.  1.
         12    1    3    3    0    0  0.13884864852E+01 -0.15003768336E+02 -0.34212107350E+02  0.37383274981E+02  0.00000000000E+00 0. -1.
        -13    1    4    4    0    0  0.68898409539E+02 -0.10930952566E+03  0.23475196604E+03  0.26796277502E+03  0.00000000000E+00 0.  1.
         13    1    4    4    0    0  0.10988382292E+03 -0.24802719319E+02  0.17484789612E+03  0.20799378886E+03  0.00000000000E+00 0. -1.
         -2    1    1    2    0  502 -0.50668080178E+02  0.10030852507E+03 -0.30684719686E+02  0.11649294645E+03  0.00000000000E+00 0.  1.
<scales pt_clust_5="13000.00000" pt_clust_6="13000.00000" pt_clust_7="13000.00000" pt_clust_8="13000.00000" pt_clust_9="112.37912"></scales>
<clustering>
<clus scale="   80.815">  5  6 -1 -1</clus>
<clus scale="   93.880">  7  8 -1 -1</clus>
<clus scale="  112.379">  1  9  2 -1</clus>
<clus scale="  158.766">  2  5  1 -1</clus>
<clus scale="  112.379">  1  5  2 -1</clus>
</clustering>
</event>
<event>
 9    2  0.1654290E-004  0.1775395E+03  0.7546771E-02  0.1202848E+00
          2   -1    0    0  502    0 -0.00000000000E+00  0.00000000000E+00  0.17331807125E+03  0.17331807125E+03  0.00000000000E+00 0. -1.
         21   -1    0    0  501  502  0.00000000000E+00 -0.00000000000E+00 -0.27744842838E+03  0.27744842838E+03  0.00000000000E+00 0.  1.
         24    2    1    2    0    0 -0.14876992926E+02 -0.29772732180E+02 -0.77597127819E+02  0.11578001239E+03  0.79220934881E+02 0.  0.
         23    2    1    2    0    0  0.13506881228E+03  0.10216979723E+03 -0.54292631184E+01  0.19309643877E+03  0.92598629849E+02 0.  0.
        -11    1    3    3    0    0 -0.11894836284E+02 -0.32977318783E+02 -0.93199707932E+02  0.99574977996E+02  0.00000000000E+00 0.  1.
         12    1    3    3    0    0 -0.29821566420E+01  0.32045866029E+01  0.15602580113E+02  0.16205034394E+02  0.00000000000E+00 0. -1.
        -13    1    4    4    0    0  0.11550039145E+02  0.48567129832E+02 -0.26962162958E+02  0.56737357497E+02  0.00000000000E+00 0.  1.
         13    1    4    4    0    0  0.12351877314E+03  0.53602667393E+02  0.21532899840E+02  0.13635908127E+03  0.00000000000E+00 0. -1.
          1    1    1    2  501    0 -0.12019181936E+03 -0.72397065045E+02 -0.21103966195E+02  0.14189004848E+03  0.00000000000E+00 0. -1.
<scales pt_clust_5="13000.00000" pt_clust_6="13000.00000" pt_clust_7="13000.00000" pt_clust_8="13000.00000" pt_clust_9="151.47855"></scales>
<clustering>
<clus scale="   79.221">  5  6 -1 -1</clus>
<clus scale="   85.928">  1  5  2 -1</clus>
<clus scale="   92.599">  7  8 -1 -1</clus>
<clus scale="  151.479">  2  9  1 -1</clus>
<clus scale="  151.479">  2  5  1 -1</clus>
</clustering>
</event>
<event>
 9    2  0.1654290E-004  0.9150363E+02  0.7546771E-02  0.1305773E+00
          2   -1    0    0  502    0 -0.00000000000E+00  0.00000000000E+00  0.60880650341E+03  0.60880650341E+03  0.00000000000E+00 0. -1.
         21   -1    0    0  501  502  0.00000000000E+00 -0.00000000000E+00 -0.29874061049E+02  0.29874061049E+02  0.00000000000E+00 0. -1.
         24    2    1    2    0    0 -0.65182629052E+01 -0.13587709288E+02  0.46828318723E+03  0.47522733039E+03  0.79528350379E+02 0.  0.
         23    2    1    2    0    0 -0.10663867328E+02  0.27711995852E+02  0.10284350651E+03  0.13988098806E+03  0.90045717322E+02 0.  0.
        -13    1    3    3    0    0  0.20952092087E+02 -0.30393803981E+02  0.12233522164E+03  0.12778372328E+03  0.00000000000E+00 0.  1.
         14    1    3    3    0    0 -0.27470354992E+02  0.16806094694E+02  0.34594796559E+03  0.34744360711E+03  0.00000000000E+00 0. -1.
        -11    1    4    4    0    0 -0.36986281343E+02  0.26141158026E+02  0.14301940868E+02  0.47496217356E+02  0.00000000000E+00 0. -1.
         11    1    4    4    0    0  0.26322414015E+02  0.15708378261E+01  0.88541565644E+02  0.92384770703E+02  0.00000000000E+00 0.  1.
          1    1    1    2  501    0  0.17182130233E+02 -0.14124286564E+02  0.78057486149E+01  0.23572246005E+02  0.00000000000E+00 0. -1.
<scales pt_clust_5="13000.00000" pt_clust_6="13000.00000" pt_clust_7="13000.00000" pt_clust_8="13000.00000" pt_clust_9="22.24233"></scales>
<clustering>
<clus scale="   22.242">  2  9  1 -1</clus>
<clus scale="   79.528">  5  6 -1 -1</clus>
<clus scale="   81.175">  1  5  2 -1</clus>
<clus scale="   90.046">  7  8 -1 -1</clus>
<clus scale="   22.242">  2  5  1 -1</clus>
</clustering>
</event>
<event>
 9    2  0.1654290E-004  0.1335163E+03  0.7546771E-02  0.1231480E+00
         21   -1    0    0  501  502  0.00000000000E+00  0.00000000000E+00  0.41938606150E+02  0.41938606150E+02  0.00000000000E+00 0. -1.
         -3   -1    0    0    0  501 -0.00000000000E+00 -0.00000000000E+00 -0.96806005027E+03  0.96806005027E+03  0.00000000000E+00 0.  1.
         24    2    1    2    0    0  0.50272248402E+02 -0.56783885768E+02 -0.54345458782E+03  0.55455896713E+03  0.80256154640E+02 0.  0.
         23    2    1    2    0    0  0.65145440986E+02  0.61157072070E+02 -0.24775619239E+03  0.27784111098E+03  0.88478450117E+02 0.  0.
        -13    1    3    3    0    0 -0.10791341795E+02 -0.25697375627E+02 -0.58644936145E+02  0.64931014988E+02  0.00000000000E+00 0.  1.
         14    1    3    3    0    0  0.61063590197E+02 -0.31086510141E+02 -0.48480965168E+03  0.48962795214E+03  0.00000000000E+00 0. -1.
        -13    1    4    4    0    0 -0.69326533788E+00  0.59727029898E+02 -0.11079798895E+03  0.12587292431E+03  0.00000000000E+00 0.  1.
         13    1    4    4    0    0  0.65838706324E+02  0.14300421724E+01 -0.13695820344E+03  0.15196818667E+03  0.00000000000E+00 0. -1.
         -4    1    1    2    0  502 -0.11541768939E+03 -0.43731863019E+01 -0.13491066390E+03  0.17759857830E+03  0.00000000000E+00 0.  1.
<scales pt_clust_5="13000.00000" pt_clust_6="13000.00000" pt_clust_7="13000.00000" pt_clust_8="13000.00000" pt_clust_9="99.99089"></scales>
<clustering>
<clus scale="   80.256">  5  6 -1 -1</clus>
<clus scale="   88.478">  7  8 -1 -1</clus>
<clus scale="  110.421">  2  5  1 -1</clus>
<clus scale="   99.991">  1  9  2 -1</clus>
<clus scale="   99.991">  1  5  2 -1</clus>
</clustering>
</event>
<event>
 9    2  0.1654290E-004  0.9204512E+02  0.7546771E-02  0.1299573E+00
         -3   -1    0    0    0  501 -0.00000000000E+00  0.00000000000E+00  0.68794788523E+02  0.68794788523E+02  0.00000000000E+00 0.  1.
         21   -1    0    0  501  502  0.00000000000E+00 -0.00000000000E+00 -0.38703998432E+03  0.38703998432E+03  0.00000000000E+00 0. -1.
         23    2    1    2    0    0 -0.14440439664E+02 -0.93578948020E+01  0.19531747936E+01  0.91174244358E+02  0.89514420345E+02 0.  0.
         24    2    1    2    0    0  0.15830768539E+02  0.57721578318E+02 -0.28763916102E+03  0.30634174056E+03  0.86755871378E+02 0.  0.
        -13    1    4    4    0    0 -0.33876538114E+02  0.12434911546E+02 -0.73289909369E+02  0.81692457883E+02  0.00000000000E+00 0.  1.
         14    1    4    4    0    0  0.49707306653E+02  0.45286666772E+02 -0.21434925165E+03  0.22464928267E+03  0.00000000000E+00 0. -1.
        -13    1    3    3    0    0  0.21511498506E+02 -0.43285877445E+01 -0.33750748811E+02  0.40256605485E+02  0.00000000000E+00 0. -1.
         13    1    3    3    0    0 -0.35951938170E+02 -0.50293070576E+01  0.35703923605E+02  0.50917638873E+02  0.00000000000E+00 0.  1.
         -4    1    1    2    0  502 -0.13903288748E+01 -0.48363683516E+02 -0.32559209570E+02  0.58318787928E+02  0.00000000000E+00 0.  1.
<scales pt_clust_5="13000.00000" pt_clust_6="13000.00000" pt_clust_7="13000.00000" pt_clust_8="13000.00000" pt_clust_9="48.38369"></scales>
<clustering>
<clus scale="   48.384">  2  9  1 -1</clus>
<clus scale="   86.756">  5  6 -1 -1</clus>
<clus scale="   89.365">  2  5  1 -1</clus>
<clus scale="   89.514">  7  8 -1 -1</clus>
<clus scale="   48.384">  2  5  1 -1</clus>
</clustering>
</event>
<event>
 9    2  0.1654290E-004  0.1370034E+03  0.7546771E-02  0.1220069E+00
         21   -1    0    0  501  502  0.00000000000E+00  0.00000000000E+00  0.11606412012E+03  0.11606412012E+03  0.00000000000E+00 0.  1.
         -3   -1    0    0    0  501 -0.00000000000E+00 -0.00000000000E+00 -0.59227410754E+03  0.59227410754E+03  0.00000000000E+00 0.  1.
         23    2    1    2    0    0  0.11243093997E+03 -0.95091047493E+01 -0.51600338856E+03  0.53575628599E+03  0.89689250386E+02 0.  0.
         24    2    1    2    0    0 -0.37177272635E+02  0.15288133334E+02  0.41775345048E+02  0.97080685259E+02  0.77869142638E+02 0.  0.
        -11    1    4    4    0    0 -0.50258433014E+02  0.25775873326E+02  0.50487098460E+01  0.56707981854E+02  0.00000000000E+00 0.  1.
         12    1    4    4    0    0  0.13081160380E+02 -0.10487739992E+02  0.36726635202E+02  0.40372703406E+02  0.00000000000E+00 0. -1.
        -11    1    3    3    0    0  0.89571375726E+02  0.64618185533E+01 -0.48815267065E+03  0.49634445329E+03  0.00000000000E+00 0.  1.
         11    1    3    3    0    0  0.22859564247E+02 -0.15970923303E+02 -0.27850717913E+02  0.39411832702E+02  0.00000000000E+00 0. -1.
         -4    1    1    2    0  502 -0.75253667338E+02 -0.57790285851E+01 -0.19819439066E+01  0.75501256419E+02  0.00000000000E+00 0.  1.
<scales pt_clust_5="13000.00000" pt_clust_6="13000.00000" pt_clust_7="13000.00000" pt_clust_8="13000.00000" pt_clust_9="75.47524"></scales>
<clustering>
<clus scale="   75.475">  1  9  2 -1</clus>
<clus scale="   77.869">  5  6 -1 -1</clus>
<clus scale="   89.689">  7  8 -1 -1</clus>
<clus scale="  129.574">  1  5  2 -1</clus>
<clus scale="   75.475">  1  5  2 -1</clus>
</clustering>
</event>
<event>
 9    2  0.1654290E-004  0.9152889E+02  0.7546771E-02  0.1305213E+00
         -3   -1    0    0    0  501 -0.00000000000E+00  0.00000000000E+00  0.13622232462E+03  0.13622232462E+03  0.00000000000E+00 0.  1.
         21   -1    0    0  501  502  0.00000000000E+00 -0.00000000000E+00 -0.17395428133E+03  0.17395428133E+03  0.00000000000E+00 0.  1.
         23    2    1    2    0    0  0.15309457799E+02 -0.17925566280E+02  0.45058796858E+02  0.10469175304E+03  0.91511543291E+02 0.  0.
         24    2    1    2    0    0  0.18961689833E+02 -0.25096331200E+02  0.18996916749E+02  0.89786430051E+02  0.81922821328E+02 0.  0.
        -11    1    4    4    0    0 -0.12935885941E+02 -0.36870200941E+02 -0.14859511579E+02  0.41803755177E+02  0.00000000000E+00 0.  1.
         12    1    4    4    0    0  0.31897575774E+02  0.11773869741E+02  0.33856428328E+02  0.47982674874E+02  0.00000000000E+00 0. -1.
        -13    1    3    3    0    0  0.80793098085E+01  0.28030759116E+02  0.50021318903E+02  0.57906226335E+02  0.00000000000E+00 0.  1.
         13    1    3    3    0    0  0.72301479903E+01 -0.45956325396E+02 -0.49625220451E+01  0.46785526703E+02  0.00000000000E+00 0. -1.
         -4    1    1    2    0  502 -0.34271147632E+02  0.43021897480E+02 -0.10178767032E+03  0.11569842286E+03  0.00000000000E+00 0.  1.
<scales pt_clust_5="13000.00000" pt_clust_6="13000.00000" pt_clust_7="13000.00000" pt_clust_8="13000.00000" pt_clust_9="55.00359"></scales>
<clustering>
<clus scale="   55.004">  2  9  1 -1</clus>
<clus scale="   81.923">  5  6 -1 -1</clus>
<clus scale="   81.942">  2  5  1 -1</clus>
<clus scale="   91.512">  7  8 -1 -1</clus>
<clus scale="   55.004">  2  5  1 -1</clus>
</clustering>
</event>
<event>
 9    2  0.1654290E-004  0.1270320E+03  0.7546771E-02  0.1234540E+00
         21   -1    0    0  501  502  0.00000000000E+00  0.00000000000E+00  0.17337941768E+03  0.17337941768E+03  0.00000000000E+00 0. -1.
          2   -1    0    0  502    0 -0.00000000000E+00 -0.00000000000E+00 -0.15693944547E+03  0.15693944547E+03  0.00000000000E+00 0. -1.
         23    2    1    2    0    0  0.65592766672E+02  0.23055767827E+02  0.12968351188E+02  0.11448064426E+03  0.90020332747E+02 0.  0.
         24    2    1    2    0    0 -0.11567935277E+03  0.28036038261E+02 -0.54812369324E+01  0.14373279315E+03  0.80382459343E+02 0.  0.
        -11    1    4    4    0    0 -0.16419594539E+02 -0.23652139084E+02 -0.12952933539E+02  0.31572222844E+02  0.00000000000E+00 0.  1.
         12    1    4    4    0    0 -0.99259758229E+02  0.51688177345E+02  0.74716966066E+01  0.11216057030E+03  0.00000000000E+00 0. -1.
        -11    1    3    3    0    0  0.39187338882E+02  0.10074318478E+02  0.51819437468E+02  0.65744912510E+02  0.00000000000E+00 0.  1.
         11    1    3    3    0    0  0.26405427790E+02  0.12981449349E+02 -0.38851086281E+02  0.48735731750E+02  0.00000000000E+00 0. -1.
          1    1    1    2  501    0  0.50086586095E+02 -0.51091806088E+02  0.89528579512E+01  0.72105425742E+02  0.00000000000E+00 0. -1.
<scales pt_clust_5="13000.00000" pt_clust_6="13000.00000" pt_clust_7="13000.00000" pt_clust_8="13000.00000" pt_clust_9="71.54746"></scales>
<clustering>
<clus scale="   71.547">  1  9  2 -1</clus>
<clus scale="   80.382">  5  6 -1 -1</clus>
<clus scale="   90.020">  7  8 -1 -1</clus>
<clus scale="  120.394">  1  5  2 -1</clus>
<clus scale="   71.547">  1  5  2 -1</clus>
</clustering>
</event>
<event>
 9    2  0.1654290E-004  0.1869955E+03  0.7546771E-02  0.1173723E+00
          2   -1    0    0  502    0 -0.00000000000E+00  0.00000000000E+00  0.43878708259E+03  0.43878708259E+03  0.00000000000E+00 0. -1.
         21   -1    0    0  501  502  0.00000000000E+00 -0.00000000000E+00 -0.27019380341E+03  0.27019380341E+03  0.00000000000E+00 0. -1.
         24    2    1    2    0    0 -0.59385701865E+02  0.98744360676E+02 -0.84295806112E+02  0.16362314433E+03  0.79935224281E+02 0.  0.
         23    2    1    2    0    0  0.11863968414E+03  0.64771907399E+02  0.31996434589E+03  0.35895040565E+03  0.90539695342E+02 0.  0.
        -13    1    3    3    0    0 -0.19805374283E+02 -0.93685578533E+01 -0.27748719569E+02  0.35355539374E+02  0.00000000000E+00 0.  1.
         14    1    3    3    0    0 -0.39580327582E+02  0.10811291853E+03 -0.56547086543E+02  0.12826760496E+03  0.00000000000E+00 0. -1.
        -13    1    4    4    0    0  0.82952031777E+02  0.46864618133E+02  0.29908256018E+03  0.31389123883E+03  0.00000000000E+00 0. -1.
         13    1    4    4    0    0  0.35687652362E+02  0.17907289266E+02  0.20881785708E+02  0.45059166818E+02  0.00000000000E+00 0.  1.
          1    1    1    2  501    0 -0.59253982274E+02 -0.16351626808E+03 -0.67075260598E+02  0.18640733603E+03  0.00000000000E+00 0. -1.
<scales pt_clust_5="13000.00000" pt_clust_6="13000.00000" pt_clust_7="13000.00000" pt_clust_8="13000.00000" pt_clust_9="163.61508"></scales>
<clustering>
<clus scale="   79.935">  5  6 -1 -1</clus>
<clus scale="   90.540">  7  8 -1 -1</clus>
<clus scale="  140.238">  1  5  2 -1</clus>
<clus scale="  163.615">  2  9  1 -1</clus>
<clus scale="  163.615">  2  5  1 -1</clus>
</clustering>
</event>
<event>
 9    2  0.1654290E-004  0.1762771E+03  0.7546771E-02  0.1189264E+00
         21   -1    0    0  501  502  0.00000000000E+00  0.00000000000E+00  0.31118764650E+03  0.31118764650E+03  0.00000000000E+00 0.  1.
         -1   -1    0    0    0  501 -0.00000000000E+00 -0.00000000000E+00 -0.47669840481E+03  0.47669840481E+03  0.00000000000E+00 0.  1.
         23    2    1    2    0    0  0.56454031872E+02  0.78764172518E+02  0.11637865632E+03  0.16584287245E+03  0.67594482829E+02 0.  0.
         24    2    1    2    0    0 -0.17199932183E+03  0.30042157057E+02 -0.38692516607E+03  0.43172229071E+03  0.78655923140E+02 0.  0.
        -11    1    4    4    0    0 -0.13473555685E+03  0.55479972405E+02 -0.31011022357E+03  0.34263690458E+03  0.00000000000E+00 0.  1.
         12    1    4    4    0    0 -0.37263764978E+02 -0.25437815348E+02 -0.76814942496E+02  0.89085386123E+02  0.00000000000E+00 0. -1.
        -13    1    3    3    0    0  0.15846999692E+02  0.73233843635E+02  0.89987454450E+02  0.11709852779E+03  0.00000000000E+00 0.  1.
         13    1    3    3    0    0  0.40607032180E+02  0.55303288832E+01  0.26391201870E+02  0.48744344658E+02  0.00000000000E+00 0. -1.
         -2    1    1    2    0  502  0.11554528996E+03 -0.10880632958E+03  0.10503575144E+03  0.19032088815E+03  0.00000000000E+00 0.  1.
<scales pt_clust_5="13000.00000" pt_clust_6="13000.00000" pt_clust_7="13000.00000" pt_clust_8="13000.00000" pt_clust_9="157.75568"></scales>
<clustering>
<clus scale="   67.594">  7  8 -1 -1</clus>
<clus scale="   78.656">  5  6 -1 -1</clus>
<clus scale="  118.152">  2  7  1 -1</clus>
<clus scale="  157.756">  1  9  2 -1</clus>
<clus scale="  157.756">  1  5  2 -1</clus>
</clustering>
</event>
<event>
 9    2  0.1654290E-004  0.2911489E+03  0.7546771E-02  0.1090125E+00
         21   -1    0    0  501  502  0.00000000000E+00  0.00000000000E+00  0.54773240275E+02  0.54773240275E+02  0.00000000000E+00 0.  1.
          2   -1    0    0  502    0 -0.00000000000E+00 -0.00000000000E+00 -0.25013594171E+04  0.25013594171E+04  0.00000000000E+00 0. -1.
         24    2    1    2    0    0 -0.19198908618E+03  0.21867371626E+03 -0.13086530555E+04  0.13430708123E+04  0.81168860300E+02 0.  0.
         23    2    1    2    0    0  0.10409011718E+03 -0.24736817583E+03 -0.10419569880E+04  0.10797913722E+04  0.90825523792E+02 0.  0.
        -11    1    3    3    0    0 -0.32948992511E+02  0.26905887137E+01 -0.17748476201E+03  0.18053729842E+03  0.00000000000E+00 0.  1.
         12    1    3    3    0    0 -0.15904009367E+03  0.21598312754E+03 -0.11311682934E+04  0.11625335139E+04  0.00000000000E+00 0. -1.
        -11    1    4    4    0    0  0.73202462526E+02 -0.14000688105E+03 -0.43879290521E+03  0.46636867489E+03  0.00000000000E+00 0.  1.
         11    1    4    4    0    0  0.30887654657E+02 -0.10736129479E+03 -0.60316408278E+03  0.61342269732E+03  0.00000000000E+00 0. -1.
          1    1    1    2  501    0  0.87898968996E+02  0.28694459577E+02 -0.95976133381E+02  0.13327047287E+03  0.00000000000E+00 0. -1.
<scales pt_clust_5="13000.00000" pt_clust_6="13000.00000" pt_clust_7="13000.00000" pt_clust_8="13000.00000" pt_clust_9="92.46405"></scales>
<clustering>
<clus scale="   81.169">  5  6 -1 -1</clus>
<clus scale="   90.826">  7  8 -1 -1</clus>
<clus scale="   92.464">  1  9  2 -1</clus>
<clus scale="  288.282">  2  5  1 -1</clus>
<clus scale="   92.464">  1  5  2 -1</clus>
</clustering>
</event>
<event>
 9    2  0.1654290E-004  0.3099273E+03  0.7546771E-02  0.1081066E+00
          2   -1    0    0  502    0 -0.00000000000E+00  0.00000000000E+00  0.21990406049E+03  0.21990406049E+03  0.00000000000E+00 0. -1.
         21   -1    0    0  501  502  0.00000000000E+00 -0.00000000000E+00 -0.55627893286E+03  0.55627893286E+03  0.00000000000E+00 0. -1.
         23    2    1    2    0    0 -0.18223309014E+03  0.19231581141E+03 -0.11836487494E+03  0.30502334634E+03  0.93993232388E+02 0.  0.
         24    2    1    2    0    0  0.21592610164E+03 -0.25771864079E+03 -0.17784830217E+03  0.38734013328E+03  0.73207793885E+02 0.  0.
        -11    1    4    4    0    0  0.53126347200E+02 -0.39716242390E+02 -0.64727132137E+02  0.92678963692E+02  0.00000000000E+00 0.  1.
         12    1    4    4    0    0  0.16279975444E+03 -0.21800239840E+03 -0.11312117003E+03  0.29466116959E+03  0.00000000000E+00 0. -1.
        -11    1    3    3    0    0 -0.15236734885E+03  0.12589755523E+03 -0.12171572492E+03  0.23212221156E+03  0.00000000000E+00 0.  1.
         11    1    3    3    0    0 -0.29865741287E+02  0.66418256178E+02  0.33508499769E+01  0.72901134778E+02  0.00000000000E+00 0. -1.
          1    1    1    2  501    0 -0.33693011504E+02  0.65402829385E+02 -0.40161695260E+02  0.83819513730E+02  0.00000000000E+00 0. -1.
<scales pt_clust_5="13000.00000" pt_clust_6="13000.00000" pt_clust_7="13000.00000" pt_clust_8="13000.00000" pt_clust_9="73.57139"></scales>
<clustering>
<clus scale="   73.208">  5  6 -1 -1</clus>
<clus scale="   73.571">  2  9  1 -1</clus>
<clus scale="   93.993">  7  8 -1 -1</clus>
<clus scale="  304.269">  2  5  1 -1</clus>
<clus scale="   73.571">  2  5  1 -1</clus>
</clustering>
</event>
<event>
 9    2  0.1654290E-004  0.1380116E+03  0.7546771E-02  0.1218158E+00
         21   -1    0    0  501  502  0.00000000000E+00  0.00000000000E+00  0.12407611278E+03  0.12407611278E+03  0.00000000000E+00 0.  1.
          2   -1    0    0  502    0 -0.00000000000E+00 -0.00000000000E+00 -0.30690576087E+03  0.30690576087E+03  0.00000000000E+00 0. -1.
         24    2    1    2    0    0 -0.88220455957E+02 -0.68085988514E+02 -0.21837264338E+03  0.25949943370E+03  0.85057592424E+02 0.  0.
         23    2    1    2    0    0  0.45086625095E+02  0.53925644742E+02  0.67359367422E+01  0.11771544893E+03  0.94184792562E+02 0.  0.
        -11    1    3    3    0    0 -0.39523226263E+02 -0.43361452378E+02 -0.35340035438E+02  0.68492474560E+02  0.00000000000E+00 0.  1.
         12    1    3    3    0    0 -0.48697229694E+02 -0.24724536136E+02 -0.18303260795E+03  0.19100695914E+03  0.00000000000E+00 0. -1.
        -13    1    4    4    0    0  0.11571148522E+02  0.56645412711E+02  0.40088758800E+02  0.70354124552E+02  0.00000000000E+00 0.  1.
         13    1    4    4    0    0  0.33515476573E+02 -0.27197679690E+01 -0.33352822058E+02  0.47361324379E+02  0.00000000000E+00 0. -1.
          1    1    1    2  501    0  0.43133830862E+02  0.14160343773E+02  0.28807058558E+02  0.53766991020E+02  0.00000000000E+00 0. -1.
<scales pt_clust_5="13000.00000" pt_clust_6="13000.00000" pt_clust_7="13000.00000" pt_clust_8="13000.00000" pt_clust_9="45.39871"></scales>
<clustering>
<clus scale="   45.399">  1  9  2 -1</clus>
<clus scale="   85.058">  5  6 -1 -1</clus>
<clus scale="   94.185">  7  8 -1 -1</clus>
<clus scale="  131.952">  2  5  1 -1</clus>
<clus scale="   45.399">  1  5  2 -1</clus>
</clustering>
</event>
<event>
 9    2  0.1654290E-004  0.1043591E+03  0.7546771E-02  0.1275982E+00
         21   -1    0    0  501  502  0.00000000000E+00  0.00000000000E+00  0.35479927206E+03  0.35479927206E+03  0.00000000000E+00 0.  1.
         -3   -1    0    0    0  501 -0.00000000000E+00 -0.00000000000E+00 -0.70476001154E+02  0.70476001154E+02  0.00000000000E+00 0.  1.
         23    2    1    2    0    0 -0.85731416662E+01 -0.20929198393E+02  0.10784725847E+03  0.14288475606E+03  0.90958739291E+02 0.  0.
         24    2    1    2    0    0 -0.74095326324E+02  0.63774005535E+02  0.11184611715E+03  0.16904689596E+03  0.80684930115E+02 0.  0.
        -11    1    4    4    0    0 -0.23789828646E+02  0.47088547710E+02  0.92389170769E+01  0.53559731713E+02  0.00000000000E+00 0.  1.
         12    1    4    4    0    0 -0.50305497678E+02  0.16685457825E+02  0.10260720007E+03  0.11548716425E+03  0.00000000000E+00 0. -1.
        -13    1    3    3    0    0 -0.35921344854E+02 -0.40405773253E+02  0.89663884434E+02  0.10470234811E+03  0.00000000000E+00 0.  1.
         13    1    3    3    0    0  0.27348203187E+02  0.19476574860E+02  0.18183374031E+02  0.38182407952E+02  0.00000000000E+00 0. -1.
         -4    1    1    2    0  502  0.82668467990E+02 -0.42844807142E+02  0.64629895290E+02  0.11334362119E+03  0.00000000000E+00 0.  1.
<scales pt_clust_5="13000.00000" pt_clust_6="13000.00000" pt_clust_7="13000.00000" pt_clust_8="13000.00000" pt_clust_9="93.11156"></scales>
<clustering>
<clus scale="   80.685">  5  6 -1 -1</clus>
<clus scale="   90.959">  7  8 -1 -1</clus>
<clus scale="   93.112">  1  9  2 -1</clus>
<clus scale="   95.537">  1  5  2 -1</clus>
<clus scale="   93.112">  1  5  2 -1</clus>
</clustering>
</event>
<event>
 9    2  0.1654290E-004  0.1107977E+03  0.7546771E-02  0.1260384E+00
         21   -1    0    0  501  502  0.00000000000E+00  0.00000000000E+00  0.31586494011E+02  0.31586494011E+02  0.00000000000E+00 0. -1.
          2   -1    0    0  502    0 -0.00000000000E+00 -0.00000000000E+00 -0.10456628730E+04  0.10456628730E+04  0.00000000000E+00 0. -1.
         24    2    1    2    0    0 -0.45677949330E+02  0.62442195846E+02 -0.61233102042E+03  0.62232224739E+03  0.79688130561E+02 0.  0.
         23    2    1    2    0    0  0.64055527012E+02 -0.31719434593E+02 -0.40437922046E+03  0.41903059264E+03  0.83395746668E+02 0.  0.
        -13    1    3    3    0    0 -0.33762251468E+02  0.44763442101E+01 -0.83325819671E+02  0.90017328918E+02  0.00000000000E+00 0.  1.
         14    1    3    3    0    0 -0.11915697863E+02  0.57965851636E+02 -0.52900520075E+03  0.53230491847E+03  0.00000000000E+00 0. -1.
        -11    1    4    4    0    0  0.53783477576E+02 -0.58707242835E+02 -0.32340398602E+03  0.33306056656E+03  0.00000000000E+00 0.  1.
         11    1    4    4    0    0  0.10272049436E+02  0.26987808242E+02 -0.80975234437E+02  0.85970026087E+02  0.00000000000E+00 0. -1.
          1    1    1    2  501    0 -0.18377577682E+02 -0.30722761253E+02  0.26338618887E+01  0.35896526976E+02  0.00000000000E+00 0. -1.
<scales pt_clust_5="13000.00000" pt_clust_6="13000.00000" pt_clust_7="13000.00000" pt_clust_8="13000.00000" pt_clust_9="35.79977"></scales>
<clustering>
<clus scale="   35.800">  1  9  2 -1</clus>
<clus scale="   79.688">  5  6 -1 -1</clus>
<clus scale="   83.396">  7  8 -1 -1</clus>
<clus scale="  108.035">  2  5  1 -1</clus>
<clus scale="   35.800">  1  5  2 -1</clus>
</clustering>
</event>
<event>
 9    2  0.1654290E-004  0.9265745E+02  0.7546771E-02  0.1301509E+00
         21   -1    0    0  501  502  0.00000000000E+00  0.00000000000E+00  0.42047414560E+02  0.42047414560E+02  0.00000000000E+00 0. -1.
          2   -1    0    0  502    0 -0.00000000000E+00 -0.00000000000E+00 -0.46025804493E+03  0.46025804493E+03  0.00000000000E+00 0. -1.
         24    2    1    2    0    0  0.14257746346E+02 -0.23406270773E+01 -0.24676901097E+03  0.26010849844E+03  0.80948899451E+02 0.  0.
         23    2    1    2    0    0 -0.66117295527E+02 -0.12609112607E+02 -0.85978994434E+02  0.14111893265E+03  0.89396192203E+02 0.  0.
        -11    1    3    3    0    0  0.37260756980E+02 -0.18887391790E+02 -0.73535989229E+02  0.84573277643E+02  0.00000000000E+00 0.  1.
         12    1    3    3    0    0 -0.23003010633E+02  0.16546764713E+02 -0.17323302174E+03  0.17553522080E+03  0.00000000000E+00 0. -1.
        -13    1    4    4    0    0 -0.59316009230E+02  0.62892997003E+01 -0.75090423832E+01  0.60119297727E+02  0.00000000000E+00 0. -1.
         13    1    4    4    0    0 -0.68012862965E+01 -0.18898412307E+02 -0.78469952051E+02  0.80999634924E+02  0.00000000000E+00 0.  1.
          1    1    1    2  501    0  0.51859549181E+02  0.14949739684E+02 -0.85462624969E+02  0.10107802840E+03  0.00000000000E+00 0. -1.
<scales pt_clust_5="13000.00000" pt_clust_6="13000.00000" pt_clust_7="13000.00000" pt_clust_8="13000.00000" pt_clust_9="53.97139"></scales>
<clustering>
<clus scale="   53.971">  1  9  2 -1</clus>
<clus scale="   80.949">  5  6 -1 -1</clus>
<clus scale="   84.537">  2  5  1 -1</clus>
<clus scale="   89.396">  7  8 -1 -1</clus>
<clus scale="   53.971">  1  5  2 -1</clus>
</clustering>
</event>
<event>
 9    2  0.1654290E-004  0.1782815E+03  0.7546771E-02  0.1193061E+00
         21   -1    0    0  501  502  0.00000000000E+00  0.00000000000E+00  0.67260453837E+02  0.67260453837E+02  0.00000000000E+00 0. -1.
          2   -1    0    0  502    0 -0.00000000000E+00 -0.00000000000E+00 -0.83255491620E+03  0.83255491620E+03  0.00000000000E+00 0. -1.
         24    2    1    2    0    0 -0.66233266617E+02  0.24924053155E+02 -0.32599014243E+03  0.34249470273E+03  0.77620837463E+02 0.  0.
         23    2    1    2    0    0 -0.11985040909E+03  0.18475715810E+02 -0.20394525649E+03  0.25416301351E+03  0.91102673698E+02 0.  0.
        -11    1    3    3    0    0 -0.25251670862E+02  0.24461741162E+02 -0.38656011416E+02  0.52252376794E+02  0.00000000000E+00 0.  1.
         12    1    3    3    0    0 -0.40981595755E+02  0.46231199252E+00 -0.28733413101E+03  0.29024232594E+03  0.00000000000E+00 0. -1.
        -13    1    4    4    0    0 -0.60179969767E+02  0.96512142225E+01 -0.25983225540E+02  0.66256340878E+02  0.00000000000E+00 0.  1.
         13    1    4    4    0    0 -0.59670439323E+02  0.88245015872E+01 -0.17796203095E+03  0.18790667263E+03  0.00000000000E+00 0. -1.
          1    1    1    2  501    0  0.18608367571E+03 -0.43399768965E+02 -0.23535906344E+03  0.30315765379E+03  0.00000000000E+00 0. -1.
<scales pt_clust_5="13000.00000" pt_clust_6="13000.00000" pt_clust_7="13000.00000" pt_clust_8="13000.00000" pt_clust_9="153.24687"></scales>
<clustering>
<clus scale="   77.621">  5  6 -1 -1</clus>
<clus scale="   91.103">  7  8 -1 -1</clus>
<clus scale="  105.038">  2  5  1 -1</clus>
<clus scale="  153.247">  1  9  2 -1</clus>
<clus scale="  153.247">  1  5  2 -1</clus>
</clustering>
</event>
<event>
 9    2  0.1654290E-004  0.1299741E+03  0.7546771E-02  0.1229771E+00
          2   -1    0    0  502    0 -0.00000000000E+00  0.00000000000E+00  0.31756977087E+03  0.31756977087E+03  0.00000000000E+00 0. -1.
         21   -1    0    0  501  502  0.00000000000E+00 -0.00000000000E+00 -0.94661294984E+02  0.94661294984E+02  0.00000000000E+00 0. -1.
         24    2    1    2    0    0  0.63147229355E+02  0.10476466749E+03  0.18105605847E+03  0.23280299799E+03  0.80328895384E+02 0.  0.
         23    2    1    2    0    0 -0.20655374239E+02 -0.49381171393E+02  0.32142186821E+02  0.10894985869E+03  0.89284976122E+02 0.  0.
        -11    1    3    3    0    0  0.31059357372E+01  0.27530145856E+02  0.80527656035E+00  0.27716497578E+02  0.00000000000E+00 0.  1.
         12    1    3    3    0    0  0.60041293617E+02  0.77234521638E+02  0.18025078191E+03  0.20508650041E+03  0.00000000000E+00 0. -1.
        -11    1    4    4    0    0 -0.54336924613E+02 -0.19513523962E+02  0.26685535583E+02  0.63603433895E+02  0.00000000000E+00 0.  1.
         11    1    4    4    0    0  0.33681550375E+02 -0.29867647431E+02  0.54566512379E+01  0.45346424792E+02  0.00000000000E+00 0. -1.
          1    1    1    2  501    0 -0.42491855116E+02 -0.55383496101E+02  0.97102306036E+01  0.70478209185E+02  0.00000000000E+00 0. -1.
<scales pt_clust_5="13000.00000" pt_clust_6="13000.00000" pt_clust_7="13000.00000" pt_clust_8="13000.00000" pt_clust_9="69.80608"></scales>
<clustering>
<clus scale="   69.806">  2  9  1 -1</clus>
<clus scale="   80.329">  5  6 -1 -1</clus>
<clus scale="   89.285">  7  8 -1 -1</clus>
<clus scale="  123.993">  1  5  2 -1</clus>
<clus scale="   69.806">  2  5  1 -1</clus>
</clustering>
</event>
<event>
 9    2  0.1654290E-004  0.1347115E+03  0.7546771E-02  0.1222817E+00
          2   -1    0    0  502    0 -0.00000000000E+00  0.00000000000E+00  0.70018043767E+02  0.70018043767E+02  0.00000000000E+00 0. -1.
         21   -1    0    0  501  502  0.00000000000E+00 -0.00000000000E+00 -0.51888829705E+03  0.51888829705E+03  0.00000000000E+00 0. -1.
         24    2    1    2    0    0 -0.10933730021E+03  0.44852498261E+02 -0.91990657517E+02  0.17121634577E+03  0.82984120009E+02 0.  0.
         23    2    1    2    0    0  0.28246876497E+02 -0.82787369295E+02 -0.19507356787E+03  0.23276865522E+03  0.92064734971E+02 0.  0.
        -13    1    3    3    0    0 -0.66723176016E+01  0.24791485696E+02 -0.54234851149E+02  0.60004638691E+02  0.00000000000E+00 0.  1.
         14    1    3    3    0    0 -0.10266498260E+03  0.20061012565E+02 -0.37755806367E+02  0.11121170708E+03  0.00000000000E+00 0. -1.
        -13    1    4    4    0    0 -0.32540049171E+02 -0.43670722282E+02 -0.76673760330E+02  0.94047074956E+02  0.00000000000E+00 0. -1.
         13    1    4    4    0    0  0.60786925667E+02 -0.39116647013E+02 -0.11839980754E+03  0.13872158027E+03  0.00000000000E+00 0.  1.
          1    1    1    2  501    0  0.81090423708E+02  0.37934871034E+02 -0.16180602789E+03  0.18492133982E+03  0.00000000000E+00 0. -1.
<scales pt_clust_5="13000.00000" pt_clust_6="13000.00000" pt_clust_7="13000.00000" pt_clust_8="13000.00000" pt_clust_9="89.52492"></scales>
<clustering>
<clus scale="   82.984">  5  6 -1 -1</clus>
<clus scale="   89.525">  2  9  1 -1</clus>
<clus scale="   92.065">  7  8 -1 -1</clus>
<clus scale="  128.676">  1  5  2 -1</clus>
<clus scale="   89.525">  2  5  1 -1</clus>
</clustering>
</event>
<event>
 9    2  0.1654290E-004  0.3792383E+03  0.7546771E-02  0.1057339E+00
         -1   -1    0    0    0  501 -0.00000000000E+00  0.00000000000E+00  0.67751145622E+03  0.67751145622E+03  0.00000000000E+00 0.  1.
         21   -1    0    0  501  502  0.00000000000E+00 -0.00000000000E+00 -0.59310940937E+03  0.59310940937E+03  0.00000000000E+00 0.  1.
         23    2    1    2    0    0  0.76550842806E+02  0.29952369245E+03  0.15162544596E+03  0.35311752694E+03  0.78276676593E+02 0.  0.
         24    2    1    2    0    0  0.29873712158E+03 -0.13071884636E+03  0.23101470144E+03  0.40928872169E+03  0.88420477381E+02 0.  0.
        -11    1    4    4    0    0  0.27775909793E+03 -0.90845369039E+02  0.20795129082E+03  0.35867357989E+03  0.00000000000E+00 0.  1.
         12    1    4    4    0    0  0.20978023643E+02 -0.39873477323E+02  0.23063410629E+02  0.50615141801E+02  0.00000000000E+00 0. -1.
        -11    1    3    3    0    0  0.38663897793E+00  0.37917269758E+02  0.49010297205E+02  0.61966749694E+02  0.00000000000E+00 0.  1.
         11    1    3    3    0    0  0.76164203828E+02  0.26160642269E+03  0.10261514876E+03  0.29115077725E+03  0.00000000000E+00 0. -1.
         -2    1    1    2    0  502 -0.37528796438E+03 -0.16880484608E+03 -0.29823810055E+03  0.50821461696E+03  0.00000000000E+00 0.  1.
<scales pt_clust_5="13000.00000" pt_clust_6="13000.00000" pt_clust_7="13000.00000" pt_clust_8="13000.00000" pt_clust_9="368.78656"></scales>
<clustering>
<clus scale="   78.277">  7  8 -1 -1</clus>
<clus scale="   88.420">  5  6 -1 -1</clus>
<clus scale="  318.907">  1  7  2 -1</clus>
<clus scale="  368.787">  2  9  1 -1</clus>
<clus scale="  368.787">  2  5  1 -1</clus>
</clustering>
</event>
<event>
 9    2  0.1654290E-004  0.9294273E+02  0.7546771E-02  0.1303499E+00
         21   -1    0    0  501  502  0.00000000000E+00  0.00000000000E+00  0.49694415270E+02  0.49694415270E+02  0.00000000000E+00 0. -1.
          2   -1    0    0  502    0 -0.00000000000E+00 -0.00000000000E+00 -0.41604068344E+03  0.41604068344E+03  0.00000000000E+00 0. -1.
         23    2    1    2    0    0  0.18338082356E+02  0.28814434738E+02 -0.34479503658E+03  0.35745762695E+03  0.87896421448E+02 0.  0.
         24    2    1    2    0    0  0.24627729533E+00 -0.16905226288E+02 -0.32816513347E+02  0.83496143261E+02  0.74892156217E+02 0.  0.
        -11    1    4    4    0    0 -0.32064493433E+02 -0.71404479437E+01  0.45248882307E+01  0.33160101770E+02  0.00000000000E+00 0.  1.
         12    1    4    4    0    0  0.32310770728E+02 -0.97647783444E+01 -0.37341401578E+02  0.50336041490E+02  0.00000000000E+00 0. -1.
        -11    1    3    3    0    0  0.50142762487E+02  0.73561989224E+01 -0.13533675705E+03  0.14451452557E+03  0.00000000000E+00 0.  1.
         11    1    3    3    0    0 -0.31804680131E+02  0.21458235816E+02 -0.20945827953E+03  0.21294310138E+03  0.00000000000E+00 0. -1.
          1    1    1    2  501    0 -0.18584359652E+02 -0.11909208450E+02  0.11265281748E+02  0.24781328504E+02  0.00000000000E+00 0. -1.
<scales pt_clust_5="13000.00000" pt_clust_6="13000.00000" pt_clust_7="13000.00000" pt_clust_8="13000.00000" pt_clust_9="22.07278"></scales>
<clustering>
<clus scale="   22.073">  1  9  2 -1</clus>
<clus scale="   74.892">  5  6 -1 -1</clus>
<clus scale="   80.755">  1  5  2 -1</clus>
<clus scale="   87.896">  7  8 -1 -1</clus>
<clus scale="   22.073">  1  5  2 -1</clus>
</clustering>
</event>
<event>
 9    2  0.1654290E-004  0.1402795E+03  0.7546771E-02  0.1214996E+00
         21   -1    0    0  501  502  0.00000000000E+00  0.00000000000E+00  0.12767662909E+03  0.12767662909E+03  0.00000000000E+00 0.  1.
          2   -1    0    0  502    0 -0.00000000000E+00 -0.00000000000E+00 -0.32574282457E+03  0.32574282457E+03  0.00000000000E+00 0. -1.
         23    2    1    2    0    0  0.92199638148E+02  0.48989946532E+02 -0.21454926377E+03  0.25500828585E+03  0.89983615904E+02 0.  0.
         24    2    1    2    0    0 -0.12364604357E+03 -0.27177571661E+02  0.37725808605E+02  0.15464005716E+03  0.80394938580E+02 0.  0.
        -11    1    4    4    0    0 -0.12865543274E+03 -0.13157243324E+02  0.18996619527E+02  0.13071421109E+03  0.00000000000E+00 0.  1.
         12    1    4    4    0    0  0.50093891710E+01 -0.14020328337E+02  0.18729189078E+02  0.23925846068E+02  0.00000000000E+00 0. -1.
        -13    1    3    3    0    0  0.64005945642E+02  0.54465704117E+02 -0.75345454895E+02  0.11287254571E+03  0.00000000000E+00 0. -1.
         13    1    3    3    0    0  0.28193692506E+02 -0.54757575847E+01 -0.13920380888E+03  0.14213574014E+03  0.00000000000E+00 0.  1.
          1    1    1    2  501    0  0.31446405426E+02 -0.21812374870E+02 -0.21242740312E+02  0.43771110651E+02  0.00000000000E+00 0. -1.
<scales pt_clust_5="13000.00000" pt_clust_6="13000.00000" pt_clust_7="13000.00000" pt_clust_8="13000.00000" pt_clust_9="38.27084"></scales>
<clustering>
<clus scale="   38.271">  1  9  2 -1</clus>
<clus scale="   80.395">  5  6 -1 -1</clus>
<clus scale="   89.984">  7  8 -1 -1</clus>
<clus scale="  134.330">  1  5  2 -1</clus>
<clus scale="   38.271">  1  5  2 -1</clus>
</clustering>
</event>
<event>
 9    2  0.1654290E-004  0.1016566E+03  0.7546771E-02  0.1283132E+00
         21   -1    0    0  501  502  0.00000000000E+00  0.00000000000E+00  0.70873208035E+03  0.70873208035E+03  0.00000000000E+00 0. -1.
          4   -1    0    0  502    0 -0.00000000000E+00 -0.00000000000E+00 -0.85285019697E+02  0.85285019697E+02  0.00000000000E+00 0. -1.
         23    2    1    2    0    0 -0.30428096998E+02  0.27655883635E+02  0.33586046851E+02  0.10625726522E+03  0.92042744866E+02 0.  0.
         24    2    1    2    0    0 -0.43098043027E+01 -0.87252632784E+02  0.60562571307E+03  0.61699953494E+03  0.79210639704E+02 0.  0.
        -11    1    4    4    0    0  0.22795198897E+02 -0.49056302608E+02  0.15952607535E+03  0.16844794637E+03  0.00000000000E+00 0.  1.
         12    1    4    4    0    0 -0.27105003200E+02 -0.38196330175E+02  0.44609963772E+03  0.44855158857E+03  0.00000000000E+00 0. -1.
        -13    1    3    3    0    0 -0.32102552968E+02  0.59886817908E+02  0.28054292080E+02  0.73512231433E+02  0.00000000000E+00 0. -1.
         13    1    3    3    0    0  0.16744559692E+01 -0.32230934273E+02  0.55317547708E+01  0.32745033787E+02  0.00000000000E+00 0.  1.
          3    1    1    2  501    0  0.34737901301E+02  0.59596749149E+02 -0.15764699276E+02  0.70760299880E+02  0.00000000000E+00 0. -1.
<scales pt_clust_5="13000.00000" pt_clust_6="13000.00000" pt_clust_7="13000.00000" pt_clust_8="13000.00000" pt_clust_9="68.98187"></scales>
<clustering>
<clus scale="   68.982">  1  9  2 -1</clus>
<clus scale="   79.211">  5  6 -1 -1</clus>
<clus scale="   90.203">  1  5  2 -1</clus>
<clus scale="   92.043">  7  8 -1 -1</clus>
<clus scale="   68.982">  1  5  2 -1</clus>
</clustering>
</event>
<event>
 9    2  0.1654290E-004  0.9418449E+02  0.7546771E-02  0.1301646E+00
         21   -1    0    0  501  502  0.00000000000E+00  0.00000000000E+00  0.37467442639E+02  0.37467442639E+02  0.00000000000E+00 0. -1.
          2   -1    0    0  502    0 -0.00000000000E+00 -0.00000000000E+00 -0.34601029745E+03  0.34601029745E+03  0.00000000000E+00 0. -1.
         23    2    1    2    0    0 -0.98947254026E+01 -0.33394021791E+02 -0.21952862982E+03  0.24017377143E+03  0.90981068856E+02 0.  0.
         24    2    1    2    0    0  0.12033308572E+02  0.48433224123E+01 -0.83788330376E+02  0.11420025846E+03  0.76504617096E+02 0.  0.
        -11    1    4    4    0    0 -0.23534599301E+02  0.99571863844E+01 -0.29359968399E+01  0.25722422172E+02  0.00000000000E+00 0.  1.
         12    1    4    4    0    0  0.35567907873E+02 -0.51138639721E+01 -0.80852333536E+02  0.88477836283E+02  0.00000000000E+00 0. -1.
        -11    1    3    3    0    0 -0.25552957319E+02  0.24672775639E+02 -0.60548500888E+02  0.70198436203E+02  0.00000000000E+00 0.  1.
         11    1    3    3    0    0  0.15658231916E+02 -0.58066797430E+02 -0.15898012894E+03  0.16997533523E+03  0.00000000000E+00 0. -1.
          1    1    1    2  501    0 -0.21385831690E+01  0.28550699379E+02 -0.52258946145E+01  0.29103710202E+02  0.00000000000E+00 0. -1.
<scales pt_clust_5="13000.00000" pt_clust_6="13000.00000" pt_clust_7="13000.00000" pt_clust_8="13000.00000" pt_clust_9="28.63068"></scales>
<clustering>
<clus scale="   28.631">  1  9  2 -1</clus>
<clus scale="   76.505">  5  6 -1 -1</clus>
<clus scale="   80.288">  1  5  2 -1</clus>
<clus scale="   90.981">  7  8 -1 -1</clus>
<clus scale="   28.631">  1  5  2 -1</clus>
</clustering>
</event>
<event>
 9    2  0.1654290E-004  0.2216447E+03  0.7546771E-02  0.1133017E+00
         21   -1    0    0  501  502  0.00000000000E+00  0.00000000000E+00  0.25761198685E+03  0.25761198685E+03  0.00000000000E+00 0. -1.
          2   -1    0    0  502    0 -0.00000000000E+00 -0.00000000000E+00 -0.10594423135E+04  0.10594423135E+04  0.00000000000E+00 0. -1.
         23    2    1    2    0    0  0.33217935671E+02  0.20295208164E+03 -0.96920860079E+03  0.99497555299E+03  0.91203401847E+02 0.  0.
         24    2    1    2    0    0 -0.84166468179E+02 -0.14886494730E+03  0.80727289905E+02  0.20793163119E+03  0.86451726495E+02 0.  0.
        -13    1    4    4    0    0 -0.40243436061E+02 -0.13972075885E+03  0.50882427888E+02  0.15404689567E+03  0.00000000000E+00 0.  1.
         14    1    4    4    0    0 -0.43923032118E+02 -0.91441884515E+01  0.29844862017E+02  0.53884735517E+02  0.00000000000E+00 0. -1.
        -11    1    3    3    0    0 -0.30343895791E+02  0.51969742063E+02 -0.30334801471E+03  0.30925980038E+03  0.00000000000E+00 0.  1.
         11    1    3    3    0    0  0.63561831462E+02  0.15098233958E+03 -0.66586058608E+03  0.68571575261E+03  0.00000000000E+00 0. -1.
          1    1    1    2  501    0  0.50948532508E+02 -0.54087134341E+02  0.86650984229E+02  0.11414711619E+03  0.00000000000E+00 0. -1.
<scales pt_clust_5="13000.00000" pt_clust_6="13000.00000" pt_clust_7="13000.00000" pt_clust_8="13000.00000" pt_clust_9="74.30458"></scales>
<clustering>
<clus scale="   74.305">  1  9  2 -1</clus>
<clus scale="   86.452">  5  6 -1 -1</clus>
<clus scale="   91.203">  7  8 -1 -1</clus>
<clus scale="  219.732">  1  5  2 -1</clus>
<clus scale="   74.305">  1  5  2 -1</clus>
</clustering>
</event>
<event>
 9    2  0.1654290E-004  0.1680590E+03  0.7546771E-02  0.1181314E+00
         -1   -1    0    0    0  501 -0.00000000000E+00  0.00000000000E+00  0.49640350999E+03  0.49640350999E+03  0.00000000000E+00 0.  1.
         21   -1    0    0  501  502  0.00000000000E+00 -0.00000000000E+00 -0.18459905596E+03  0.18459905596E+03  0.00000000000E+00 0.  1.
         24    2    1    2    0    0 -0.82589581274E+02  0.12344427733E+03  0.35376669508E+03  0.39229127061E+03  0.81743733150E+02 0.  0.
         23    2    1    2    0    0  0.13997146199E+03 -0.22082098714E+02 -0.18264184378E+02  0.16984763655E+03  0.91842310275E+02 0.  0.
        -13    1    3    3    0    0 -0.60793841998E+02  0.11232253118E+03  0.34213769438E+03  0.36519918421E+03  0.00000000000E+00 0.  1.
         14    1    3    3    0    0 -0.21795739276E+02  0.11121746155E+02  0.11629000701E+02  0.27092086399E+02  0.00000000000E+00 0. -1.
        -11    1    4    4    0    0  0.45146407539E+02 -0.22049318586E+01 -0.50467650269E+02  0.67749860235E+02  0.00000000000E+00 0.  1.
         11    1    4    4    0    0  0.94825054452E+02 -0.19877166856E+02  0.32203465891E+02  0.10209777632E+03  0.00000000000E+00 0. -1.
         -2    1    1    2    0  502 -0.57381880717E+02 -0.10136217862E+03 -0.23698056671E+02  0.11886365878E+03  0.00000000000E+00 0.  1.
<scales pt_clust_5="13000.00000" pt_clust_6="13000.00000" pt_clust_7="13000.00000" pt_clust_8="13000.00000" pt_clust_9="116.47734"></scales>
<clustering>
<clus scale="   81.744">  5  6 -1 -1</clus>
<clus scale="   91.842">  7  8 -1 -1</clus>
<clus scale="  116.477">  2  9  1 -1</clus>
<clus scale="  162.760">  1  5  2 -1</clus>
<clus scale="  116.477">  2  5  1 -1</clus>
</clustering>
</event>
<event>
 9    2  0.1654290E-004  0.1250176E+03  0.7546771E-02  0.1238836E+00
         21   -1    0    0  501  502  0.00000000000E+00  0.00000000000E+00  0.64589337058E+03  0.64589337058E+03  0.00000000000E+00 0. -1.
          2   -1    0    0  502    0 -0.00000000000E+00 -0.00000000000E+00 -0.95615195015E+02  0.95615195015E+02  0.00000000000E+00 0. -1.
         23    2    1    2    0    0  0.56829565778E+02  0.41712793043E+02 -0.31848424214E+00  0.11638855085E+03  0.92610132747E+02 0.  0.
         24    2    1    2    0    0 -0.12806517575E+03 -0.11809379338E+03  0.36103655315E+03  0.40869080374E+03  0.79586098496E+02 0.  0.
        -13    1    4    4    0    0 -0.10198681368E+03 -0.10086127784E+03  0.20907729801E+03  0.25355004254E+03  0.00000000000E+00 0.  1.
         14    1    4    4    0    0 -0.26078362070E+02 -0.17232515542E+02  0.15195925514E+03  0.15514076119E+03  0.00000000000E+00 0. -1.
        -13    1    3    3    0    0  0.80367735118E+02  0.24498366136E+02  0.11735133338E+02  0.84834286381E+02  0.00000000000E+00 0.  1.
         13    1    3    3    0    0 -0.23538169340E+02  0.17214426907E+02 -0.12053617580E+02  0.31554264472E+02  0.00000000000E+00 0. -1.
          1    1    1    2  501    0  0.71235609973E+02  0.76381000335E+02  0.18956010666E+03  0.21642921101E+03  0.00000000000E+00 0. -1.
<scales pt_clust_5="13000.00000" pt_clust_6="13000.00000" pt_clust_7="13000.00000" pt_clust_8="13000.00000" pt_clust_9="104.44410"></scales>
<clustering>
<clus scale="   79.586">  5  6 -1 -1</clus>
<clus scale="   92.610">  7  8 -1 -1</clus>
<clus scale="  104.444">  1  9  2 -1</clus>
<clus scale="  115.701">  1  5  2 -1</clus>
<clus scale="  104.444">  1  5  2 -1</clus>
</clustering>
</event>
<event>
 9    2  0.1654290E-004  0.1083268E+03  0.7546771E-02  0.1268487E+00
          2   -1    0    0  502    0 -0.00000000000E+00  0.00000000000E+00  0.57333034767E+03  0.57333034767E+03  0.00000000000E+00 0. -1.
         21   -1    0    0  501  502  0.00000000000E+00 -0.00000000000E+00 -0.45107120654E+02  0.45107120654E+02  0.00000000000E+00 0.  1.
         24    2    1    2    0    0  0.38165108075E+02 -0.69976350964E+02  0.28409017338E+03  0.30578021286E+03  0.80256132454E+02 0.  0.
         23    2    1    2    0    0  0.22558485611E+02  0.15892534805E+02  0.64782540035E+02  0.11573335968E+03  0.91847564555E+02 0.  0.
        -13    1    3    3    0    0  0.12973086435E+02  0.17667580002E+02  0.55315635478E+02  0.59500116665E+02  0.00000000000E+00 0.  1.
         14    1    3    3    0    0  0.25192021641E+02 -0.87643930966E+02  0.22877453791E+03  0.24628009620E+03  0.00000000000E+00 0. -1.
        -11    1    4    4    0    0 -0.85439792888E+00  0.48440787705E+02  0.57144229776E+02  0.74917974518E+02  0.00000000000E+00 0. -1.
         11    1    4    4    0    0  0.23412883540E+02 -0.32548252900E+02  0.76383102591E+01  0.40815385165E+02  0.00000000000E+00 0.  1.
          1    1    1    2  501    0 -0.60723593687E+02  0.54083816159E+02  0.17935051360E+03  0.19692389578E+03  0.00000000000E+00 0. -1.
<scales pt_clust_5="13000.00000" pt_clust_6="13000.00000" pt_clust_7="13000.00000" pt_clust_8="13000.00000" pt_clust_9="81.31679"></scales>
<clustering>
<clus scale="   80.256">  5  6 -1 -1</clus>
<clus scale="   81.317">  2  9  1 -1</clus>
<clus scale="   91.848">  7  8 -1 -1</clus>
<clus scale="   98.690">  1  5  2 -1</clus>
<clus scale="   81.317">  2  5  1 -1</clus>
</clustering>
</event>
<event>
 9    2  0.1654290E-004  0.9578038E+02  0.7546771E-02  0.1296917E+00
         21   -1    0    0  501  502  0.00000000000E+00  0.00000000000E+00  0.46597467232E+02  0.46597467232E+02  0.00000000000E+00 0. -1.
          2   -1    0    0  502    0 -0.00000000000E+00 -0.00000000000E+00 -0.39788636631E+03  0.39788636631E+03  0.00000000000E+00 0. -1.
         23    2    1    2    0    0 -0.27036081518E+02 -0.36577510407E+01 -0.22222368685E+03  0.24248427729E+03  0.93117822611E+02 0.  0.
         24    2    1    2    0    0 -0.11397054685E+02  0.43156106157E+02 -0.11090212687E+03  0.14397263418E+03  0.80227771352E+02 0.  0.
        -11    1    4    4    0    0 -0.17262207046E+02 -0.20548584465E+02 -0.23586204824E+02  0.35728660395E+02  0.00000000000E+00 0.  1.
         12    1    4    4    0    0  0.58651523615E+01  0.63704690622E+02 -0.87315922043E+02  0.10824397379E+03  0.00000000000E+00 0. -1.
        -11    1    3    3    0    0 -0.40618768927E+02 -0.40732950178E+02 -0.13435263150E+03  0.14614953715E+03  0.00000000000E+00 0.  1.
         11    1    3    3    0    0  0.13582687409E+02  0.37075199137E+02 -0.87871055354E+02  0.96334740137E+02  0.00000000000E+00 0. -1.
          1    1    1    2  501    0  0.38433136202E+02 -0.39498355117E+02 -0.18163085363E+02  0.58026922072E+02  0.00000000000E+00 0. -1.
<scales pt_clust_5="13000.00000" pt_clust_6="13000.00000" pt_clust_7="13000.00000" pt_clust_8="13000.00000" pt_clust_9="55.11103"></scales>
<clustering>
<clus scale="   55.111">  1  9  2 -1</clus>
<clus scale="   80.228">  5  6 -1 -1</clus>
<clus scale="   83.303">  1  5  2 -1</clus>
<clus scale="   93.118">  7  8 -1 -1</clus>
<clus scale="   55.111">  1  5  2 -1</clus>
</clustering>
</event>
<event>
 9    2  0.1654290E-004  0.9827463E+02  0.7546771E-02  0.1288907E+00
         -1   -1    0    0    0  501 -0.00000000000E+00  0.00000000000E+00  0.40020343802E+03  0.40020343802E+03  0.00000000000E+00 0.  1.
         21   -1    0    0  501  502  0.00000000000E+00 -0.00000000000E+00 -0.11123788130E+03  0.11123788130E+03  0.00000000000E+00 0. -1.
         24    2    1    2    0    0 -0.14538561962E+02  0.36623842346E+02  0.34306907891E+03  0.35432238009E+03  0.79342803796E+02 0.  0.
         23    2    1    2    0    0  0.32005784375E+02 -0.64532501209E+02 -0.40810810395E+02  0.12161269633E+03  0.89080366624E+02 0.  0.
        -11    1    3    3    0    0 -0.23107379253E+02  0.59433450494E+02  0.26350091557E+03  0.27110702411E+03  0.00000000000E+00 0.  1.
         12    1    3    3    0    0  0.85688172907E+01 -0.22809608149E+02  0.79568163339E+02  0.83215355980E+02  0.00000000000E+00 0. -1.
        -11    1    4    4    0    0  0.11256158302E+01  0.20883979333E+02 -0.18879737365E+02  0.28175380863E+02  0.00000000000E+00 0.  1.
         11    1    4    4    0    0  0.30880168545E+02 -0.85416480542E+02 -0.21931073030E+02  0.93437315467E+02  0.00000000000E+00 0. -1.
         -2    1    1    2    0  502 -0.17467222413E+02  0.27908658863E+02 -0.13292711789E+02  0.35506242902E+02  0.00000000000E+00 0.  1.
<scales pt_clust_5="13000.00000" pt_clust_6="13000.00000" pt_clust_7="13000.00000" pt_clust_8="13000.00000" pt_clust_9="32.92411"></scales>
<clustering>
<clus scale="   32.924">  2  9  1 -1</clus>
<clus scale="   79.343">  5  6 -1 -1</clus>
<clus scale="   89.080">  7  8 -1 -1</clus>
<clus scale="   89.543">  1  5  2 -1</clus>
<clus scale="   32.924">  2  5  1 -1</clus>
</clustering>
</event>
<event>
 9    2  0.1654290E-004  0.9425673E+02  0.7546771E-02  0.1298879E+00
         21   -1    0    0  501  502  0.00000000000E+00  0.00000000000E+00  0.68673426273E+03  0.68673426273E+03  0.00000000000E+00 0. -1.
         -1   -1    0    0    0  501 -0.00000000000E+00 -0.00000000000E+00 -0.62413221153E+02  0.62413221153E+02  0.00000000000E+00 0.  1.
         23    2    1    2    0    0 -0.24965301804E+02 -0.15900962797E+00 -0.16286996727E+02  0.95496870920E+02  0.90725379662E+02 0.  0.
         24    2    1    2    0    0  0.31823607830E+02  0.33311036666E+02  0.52819330879E+03  0.53624888951E+03  0.80326414517E+02 0.  0.
        -11    1    4    4    0    0 -0.19959957647E+02  0.27920550089E+02  0.12210903329E+03  0.12684073887E+03  0.00000000000E+00 0.  1.
         12    1    4    4    0    0  0.51783565477E+02  0.53904865764E+01  0.40608427551E+03  0.40940815064E+03  0.00000000000E+00 0. -1.
        -13    1    3    3    0    0 -0.35532357672E+02  0.31444915922E+02 -0.33410617557E+02  0.58031030876E+02  0.00000000000E+00 0.  1.
         13    1    3    3    0    0  0.10567055867E+02 -0.31603925550E+02  0.17123620830E+02  0.37465840044E+02  0.00000000000E+00 0. -1.
         -2    1    1    2    0  502 -0.68583060257E+01 -0.33152027038E+02  0.11241472951E+03  0.11740172345E+03  0.00000000000E+00 0.  1.
<scales pt_clust_5="13000.00000" pt_clust_6="13000.00000" pt_clust_7="13000.00000" pt_clust_8="13000.00000" pt_clust_9="33.85400"></scales>
<clustering>
<clus scale="   33.854">  1  9  2 -1</clus>
<clus scale="   80.326">  5  6 -1 -1</clus>
<clus scale="   84.295">  1  5  2 -1</clus>
<clus scale="   90.725">  7  8 -1 -1</clus>
<clus scale="   33.854">  1  5  2 -1</clus>
</clustering>
</event>
<event>
 9    2  0.1654290E-004  0.1445199E+03  0.7546771E-02  0.1219229E+00
         21   -1    0    0  501  502  0.00000000000E+00  0.00000000000E+00  0.13217498531E+03  0.13217498531E+03  0.00000000000E+00 0. -1.
          2   -1    0    0  502    0 -0.00000000000E+00 -0.00000000000E+00 -0.33910084527E+03  0.33910084527E+03  0.00000000000E+00 0. -1.
         23    2    1    2    0    0 -0.63516342350E+02 -0.15530334847E+02 -0.85828417488E+02  0.14138655832E+03  0.91368071992E+02 0.  0.
         24    2    1    2    0    0 -0.78967157979E+02  0.74755908293E+02 -0.16829789169E+01  0.13477640615E+03  0.79608977968E+02 0.  0.
        -13    1    4    4    0    0 -0.80555999894E+02  0.31967660639E+02  0.16558660400E+02  0.88234855243E+02  0.00000000000E+00 0.  1.
         14    1    4    4    0    0  0.15888419152E+01  0.42788247654E+02 -0.18241639317E+02  0.46541550908E+02  0.00000000000E+00 0. -1.
        -11    1    3    3    0    0 -0.69665410858E+02 -0.36085422980E+02 -0.34408686272E+02  0.85670210182E+02  0.00000000000E+00 0. -1.
         11    1    3    3    0    0  0.61490685079E+01  0.20555088133E+02 -0.51419731216E+02  0.55716348139E+02  0.00000000000E+00 0.  1.
          1    1    1    2  501    0  0.14248350033E+03 -0.59225573446E+02 -0.11941446355E+03  0.19511286611E+03  0.00000000000E+00 0. -1.
<scales pt_clust_5="13000.00000" pt_clust_6="13000.00000" pt_clust_7="13000.00000" pt_clust_8="13000.00000" pt_clust_9="120.61689"></scales>
<clustering>
<clus scale="   79.609">  5  6 -1 -1</clus>
<clus scale="   91.368">  7  8 -1 -1</clus>
<clus scale="  112.355">  2  7  1 -1</clus>
<clus scale="  120.617">  1  9  2 -1</clus>
<clus scale="  120.617">  1  5  2 -1</clus>
</clustering>
</event>
<event>
 9    2  0.1654290E-004  0.1464183E+03  0.7546771E-02  0.1206570E+00
          2   -1    0    0  502    0 -0.00000000000E+00  0.00000000000E+00  0.16987634192E+03  0.16987634192E+03  0.00000000000E+00 0. -1.
         21   -1    0    0  501  502  0.00000000000E+00 -0.00000000000E+00 -0.25287798641E+03  0.25287798641E+03  0.00000000000E+00 0. -1.
         23    2    1    2    0    0 -0.56323738384E+02 -0.41849715888E+02 -0.33382349393E+02  0.12015601475E+03  0.91647828144E+02 0.  0.
         24    2    1    2    0    0  0.10501758191E+03  0.12852011583E+03  0.11171876455E+02  0.18607185667E+03  0.83377528989E+02 0.  0.
        -11    1    4    4    0    0  0.51044671326E+02  0.55167399788E+01  0.53821551023E+01  0.51623255266E+02  0.00000000000E+00 0.  1.
         12    1    4    4    0    0  0.53972910580E+02  0.12300337585E+03  0.57897213532E+01  0.13444860141E+03  0.00000000000E+00 0. -1.
        -13    1    3    3    0    0 -0.33548150608E+02  0.20188417764E+02  0.10853630471E+02  0.40630677024E+02  0.00000000000E+00 0.  1.
         13    1    3    3    0    0 -0.22775587776E+02 -0.62038133652E+02 -0.44235979864E+02  0.79525337724E+02  0.00000000000E+00 0. -1.
          1    1    1    2  501    0 -0.48693843522E+02 -0.86670399940E+02 -0.60791171551E+02  0.11652645692E+03  0.00000000000E+00 0. -1.
<scales pt_clust_5="13000.00000" pt_clust_6="13000.00000" pt_clust_7="13000.00000" pt_clust_8="13000.00000" pt_clust_9="99.41252"></scales>
<clustering>
<clus scale="   83.378">  5  6 -1 -1</clus>
<clus scale="   91.648">  7  8 -1 -1</clus>
<clus scale="   99.413">  2  9  1 -1</clus>
<clus scale="  141.389">  2  5  1 -1</clus>
<clus scale="   99.413">  2  5  1 -1</clus>
</clustering>
</event>
<event>
 9    2  0.1654290E-004  0.1847018E+03  0.7546771E-02  0.1164818E+00
          2   -1    0    0  502    0 -0.00000000000E+00  0.00000000000E+00  0.95050695887E+03  0.95050695887E+03  0.00000000000E+00 0. -1.
         21   -1    0    0  501  502  0.00000000000E+00 -0.00000000000E+00 -0.61739407631E+02  0.61739407631E+02  0.00000000000E+00 0. -1.
         24    2    1    2    0    0 -0.15271459570E+03  0.48254870616E+02  0.29643587803E+03  0.34633079901E+03  0.80128099200E+02 0.  0.
         23    2    1    2    0    0  0.12810100617E+03 -0.10425059634E+03  0.22838322549E+03  0.29686296598E+03  0.93223753737E+02 0.  0.
        -11    1    3    3    0    0 -0.62997578880E+01  0.29440776166E+02  0.67754311053E+02  0.74142382731E+02  0.00000000000E+00 0.  1.
         12    1    3    3    0    0 -0.14641483781E+03  0.18814094450E+02  0.22868156698E+03  0.27218841628E+03  0.00000000000E+00 0. -1.
        -11    1    4    4    0    0  0.39616759311E+02 -0.92190265907E+02  0.11933431761E+03  0.15591411773E+03  0.00000000000E+00 0.  1.
         11    1    4    4    0    0  0.88484246864E+02 -0.12060330438E+02  0.10904890788E+03  0.14094884825E+03  0.00000000000E+00 0. -1.
          1    1    1    2  501    0  0.24613589526E+02  0.55995725728E+02  0.36394844772E+03  0.36905260152E+03  0.00000000000E+00 0. -1.
<scales pt_clust_5="13000.00000" pt_clust_6="13000.00000" pt_clust_7="13000.00000" pt_clust_8="13000.00000" pt_clust_9="61.16661"></scales>
<clustering>
<clus scale="   61.167">  2  9  1 -1</clus>
<clus scale="   80.128">  5  6 -1 -1</clus>
<clus scale="   93.224">  7  8 -1 -1</clus>
<clus scale="  178.451">  1  5  2 -1</clus>
<clus scale="   61.167">  2  5  1 -1</clus>
</clustering>
</event>
<event>
 9    2  0.1654290E-004  0.1514712E+03  0.7546771E-02  0.1199802E+00
          2   -1    0    0  502    0 -0.00000000000E+00  0.00000000000E+00  0.15907356154E+03  0.15907356154E+03  0.00000000000E+00 0. -1.
         21   -1    0    0  501  502  0.00000000000E+00 -0.00000000000E+00 -0.24028165624E+03  0.24028165624E+03  0.00000000000E+00 0.  1.
         23    2    1    2    0    0  0.13069182483E+03 -0.72364976451E+02 -0.43834359739E+02  0.17826142997E+03  0.86825361658E+02 0.  0.
         24    2    1    2    0    0 -0.10051205894E+03  0.17868639916E+02 -0.73357681993E+02  0.14915274661E+03  0.80269732958E+02 0.  0.
        -11    1    4    4    0    0 -0.11012795636E+03  0.83426094465E+01 -0.48030251342E+02  0.12043533929E+03  0.00000000000E+00 0.  1.
         12    1    4    4    0    0  0.96158974275E+01  0.95260304696E+01 -0.25327430651E+02  0.28717407321E+02  0.00000000000E+00 0. -1.
        -11    1    3    3    0    0  0.30311942475E+02 -0.11904014020E+02  0.26155560568E+02  0.41768801215E+02  0.00000000000E+00 0.  1.
         11    1    3    3    0    0  0.10037988235E+03 -0.60460962431E+02 -0.69989920306E+02  0.13649262875E+03  0.00000000000E+00 0. -1.
          1    1    1    2  501    0 -0.30179765893E+02  0.54496336535E+02  0.35983947027E+02  0.71941041199E+02  0.00000000000E+00 0. -1.
<scales pt_clust_5="13000.00000" pt_clust_6="13000.00000" pt_clust_7="13000.00000" pt_clust_8="13000.00000" pt_clust_9="62.29505"></scales>
<clustering>
<clus scale="   62.295">  2  9  1 -1</clus>
<clus scale="   80.270">  5  6 -1 -1</clus>
<clus scale="   86.825">  7  8 -1 -1</clus>
<clus scale="  147.811">  2  5  1 -1</clus>
<clus scale="   62.295">  2  5  1 -1</clus>
</clustering>
</event>
<event>
 9    2  0.1654290E-004  0.9983278E+02  0.7546771E-02  0.1284995E+00
         -1   -1    0    0    0  501 -0.00000000000E+00  0.00000000000E+00  0.12431036981E+03  0.12431036981E+03  0.00000000000E+00 0.  1.
         21   -1    0    0  501  502  0.00000000000E+00 -0.00000000000E+00 -0.31442167738E+03  0.31442167738E+03  0.00000000000E+00 0. -1.
         24    2    1    2    0    0  0.23640765514E+02  0.27674350598E+02  0.82268888395E+02  0.12234356897E+03  0.82915760846E+02 0.  0.
         23    2    1    2    0    0 -0.40669912646E+02 -0.51266512636E+02 -0.13410618537E+03  0.17508637643E+03  0.91588608154E+02 0.  0.
        -11    1    3    3    0    0  0.42763582868E+02  0.30231015050E+02  0.87836046676E+02  0.10226343132E+03  0.00000000000E+00 0.  1.
         12    1    3    3    0    0 -0.19122817355E+02 -0.25566644521E+01 -0.55671582814E+01  0.20080137650E+02  0.00000000000E+00 0. -1.
        -13    1    4    4    0    0  0.12003166835E+01  0.25114132638E+02 -0.35734586277E+02  0.43693490072E+02  0.00000000000E+00 0.  1.
         13    1    4    4    0    0 -0.41870229329E+02 -0.76380645274E+02 -0.98371599096E+02  0.13139288636E+03  0.00000000000E+00 0. -1.
         -2    1    1    2    0  502  0.17029147132E+02  0.23592162039E+02 -0.13827401059E+03  0.14130210178E+03  0.00000000000E+00 0.  1.
<scales pt_clust_5="13000.00000" pt_clust_6="13000.00000" pt_clust_7="13000.00000" pt_clust_8="13000.00000" pt_clust_9="29.09608"></scales>
<clustering>
<clus scale="   29.096">  2  9  1 -1</clus>
<clus scale="   82.916">  5  6 -1 -1</clus>
<clus scale="   91.589">  7  8 -1 -1</clus>
<clus scale="   91.941">  1  5  2 -1</clus>
<clus scale="   29.096">  2  5  1 -1</clus>
</clustering>
</event>
<event>
 9    2  0.1654290E-004  0.1100226E+03  0.7546771E-02  0.1262809E+00
          2   -1    0    0  502    0 -0.00000000000E+00  0.00000000000E+00  0.74340872623E+03  0.74340872623E+03  0.00000000000E+00 0. -1.
         21   -1    0    0  501  502  0.00000000000E+00 -0.00000000000E+00 -0.15981798641E+03  0.15981798641E+03  0.00000000000E+00 0. -1.
         23    2    1    2    0    0  0.63169696966E+02 -0.10744892385E+02  0.53864376044E+03  0.55020521705E+03  0.92102208895E+02 0.  0.
         24    2    1    2    0    0 -0.45037913530E+02  0.32050105111E+02  0.18430531215E+03  0.21088276558E+03  0.86298724439E+02 0.  0.
        -11    1    4    4    0    0 -0.32230193891E+02 -0.24785381449E+02  0.49714442583E+02  0.64223253835E+02  0.00000000000E+00 0.  1.
         12    1    4    4    0    0 -0.12807719639E+02  0.56835486560E+02  0.13459086956E+03  0.14665951174E+03  0.00000000000E+00 0. -1.
        -11    1    3    3    0    0 -0.22083866697E+02  0.10254892367E+02  0.12376293396E+03  0.12613533925E+03  0.00000000000E+00 0.  1.
         11    1    3    3    0    0  0.85253563663E+02 -0.20999784752E+02  0.41488082648E+03  0.42406987780E+03  0.00000000000E+00 0. -1.
          1    1    1    2  501    0 -0.18131783436E+02 -0.21305212726E+02 -0.13935833276E+03  0.14213873001E+03  0.00000000000E+00 0. -1.
<scales pt_clust_5="13000.00000" pt_clust_6="13000.00000" pt_clust_7="13000.00000" pt_clust_8="13000.00000" pt_clust_9="27.97631"></scales>
<clustering>
<clus scale="   27.976">  2  9  1 -1</clus>
<clus scale="   86.299">  5  6 -1 -1</clus>
<clus scale="   92.102">  7  8 -1 -1</clus>
<clus scale="  105.212">  2  5  1 -1</clus>
<clus scale="   27.976">  2  5  1 -1</clus>
</clustering>
</event>
<event>
 9    2  0.1654290E-004  0.1115299E+03  0.7546771E-02  0.1261725E+00
         21   -1    0    0  501  502  0.00000000000E+00  0.00000000000E+00  0.49390688637E+02  0.49390688637E+02  0.00000000000E+00 0.  1.
         -3   -1    0    0    0  501 -0.00000000000E+00 -0.00000000000E+00 -0.50459834562E+03  0.50459834562E+03  0.00000000000E+00 0.  1.
         24    2    1    2    0    0  0.54256574804E+02  0.56113635519E+02 -0.35899953979E+03  0.37554284973E+03  0.77841161427E+02 0.  0.
         23    2    1    2    0    0 -0.14525456757E+02 -0.41924836272E+02 -0.93367092782E+02  0.13616196542E+03  0.88622717308E+02 0.  0.
        -13    1    3    3    0    0  0.34109873903E+02  0.70060696080E+02 -0.32104210971E+03  0.33036346777E+03  0.00000000000E+00 0.  1.
         14    1    3    3    0    0  0.20146700901E+02 -0.13947060561E+02 -0.37957430079E+02  0.45179381953E+02  0.00000000000E+00 0. -1.
        -13    1    4    4    0    0 -0.41776490453E+01 -0.63440225957E+02 -0.33833379721E+02  0.72019529326E+02  0.00000000000E+00 0.  1.
         13    1    4    4    0    0 -0.10347807711E+02  0.21515389685E+02 -0.59533713061E+02  0.64142436098E+02  0.00000000000E+00 0. -1.
         -4    1    1    2    0  502 -0.39731118047E+02 -0.14188799247E+02 -0.28410244088E+01  0.42284219102E+02  0.00000000000E+00 0.  1.
<scales pt_clust_5="13000.00000" pt_clust_6="13000.00000" pt_clust_7="13000.00000" pt_clust_8="13000.00000" pt_clust_9="42.18867"></scales>
<clustering>
<clus scale="   42.189">  1  9  2 -1</clus>
<clus scale="   77.841">  5  6 -1 -1</clus>
<clus scale="   88.623">  7  8 -1 -1</clus>
<clus scale="  103.171">  2  5  1 -1</clus>
<clus scale="   42.189">  1  5  2 -1</clus>
</clustering>
</event>
<event>
 9    2  0.1654290E-004  0.9495826E+02  0.7546771E-02  0.1292894E+00
         -1   -1    0    0    0  501 -0.00000000000E+00  0.00000000000E+00  0.37367024143E+03  0.37367024143E+03  0.00000000000E+00 0.  1.
         21   -1    0    0  501  502  0.00000000000E+00 -0.00000000000E+00 -0.45223856575E+02  0.45223856575E+02  0.00000000000E+00 0.  1.
         24    2    1    2    0    0  0.13708173833E+02 -0.13353878014E+02  0.14791722666E+03  0.17308032412E+03  0.87812599145E+02 0.  0.
         23    2    1    2    0    0 -0.53135332755E+02 -0.28302733708E+02  0.10862233162E+03  0.15383352671E+03  0.90782898674E+02 0.  0.
        -13    1    3    3    0    0 -0.26349708282E+02 -0.29519797090E+02  0.10491206978E+03  0.11212612511E+03  0.00000000000E+00 0.  1.
         14    1    3    3    0    0  0.40057882114E+02  0.16165919075E+02  0.43005156872E+02  0.60954199007E+02  0.00000000000E+00 0. -1.
        -11    1    4    4    0    0 -0.38128502373E+02 -0.48691763196E+02  0.25419152854E+02  0.66864069784E+02  0.00000000000E+00 0.  1.
         11    1    4    4    0    0 -0.15006830382E+02  0.20389029487E+02  0.83203178766E+02  0.86969456928E+02  0.00000000000E+00 0. -1.
         -2    1    1    2    0  502  0.39427158923E+02  0.41656611722E+02  0.71906826578E+02  0.91980247170E+02  0.00000000000E+00 0.  1.
<scales pt_clust_5="13000.00000" pt_clust_6="13000.00000" pt_clust_7="13000.00000" pt_clust_8="13000.00000" pt_clust_9="57.35655"></scales>
<clustering>
<clus scale="   57.357">  2  9  1 -1</clus>
<clus scale="   87.813">  5  6 -1 -1</clus>
<clus scale="   90.783">  7  8 -1 -1</clus>
<clus scale="   92.123">  1  5  2 -1</clus>
<clus scale="   57.357">  2  5  1 -1</clus>
</clustering>
</event>
<event>
 9    2  0.1654290E-004  0.9114191E+02  0.7546771E-02  0.1304652E+00
         21   -1    0    0  501  502  0.00000000000E+00  0.00000000000E+00  0.39870512261E+02  0.39870512261E+02  0.00000000000E+00 0.  1.
          2   -1    0    0  502    0 -0.00000000000E+00 -0.00000000000E+00 -0.27609130634E+03  0.27609130634E+03  0.00000000000E+00 0. -1.
         23    2    1    2    0    0 -0.21586168374E+02  0.21209660248E+02 -0.15178689909E+03  0.17796619711E+03  0.87845843529E+02 0.  0.
         24    2    1    2    0    0 -0.17203294260E+01 -0.18995483988E+02 -0.50331765426E+02  0.96630773409E+02  0.80252300985E+02 0.  0.
        -13    1    4    4    0    0 -0.11314263910E+01 -0.47195560391E+02 -0.49513577325E+02  0.68412684393E+02  0.00000000000E+00 0.  1.
         14    1    4    4    0    0 -0.58890303500E+00  0.28200076403E+02 -0.81818810103E+00  0.28218089016E+02  0.00000000000E+00 0. -1.
        -11    1    3    3    0    0 -0.24475865458E+01  0.53392190387E+02 -0.70500867701E+02  0.88470837120E+02  0.00000000000E+00 0. -1.
         11    1    3    3    0    0 -0.19138581828E+02 -0.32182530139E+02 -0.81286031387E+02  0.89495359987E+02  0.00000000000E+00 0.  1.
          1    1    1    2  501    0  0.23306497800E+02 -0.22141762600E+01 -0.34102129565E+02  0.41364848085E+02  0.00000000000E+00 0. -1.
<scales pt_clust_5="13000.00000" pt_clust_6="13000.00000" pt_clust_7="13000.00000" pt_clust_8="13000.00000" pt_clust_9="23.41145"></scales>
<clustering>
<clus scale="   23.411">  1  9  2 -1</clus>
<clus scale="   80.252">  5  6 -1 -1</clus>
<clus scale="   83.847">  1  5  2 -1</clus>
<clus scale="   87.846">  7  8 -1 -1</clus>
<clus scale="   23.411">  1  5  2 -1</clus>
</clustering>
</event>
<event>
 9    2  0.1654290E-004  0.3089695E+03  0.7546771E-02  0.1132814E+00
         21   -1    0    0  501  502  0.00000000000E+00  0.00000000000E+00  0.11527245239E+03  0.11527245239E+03  0.00000000000E+00 0.  1.
          2   -1    0    0  502    0 -0.00000000000E+00 -0.00000000000E+00 -0.11623006938E+04  0.11623006938E+04  0.00000000000E+00 0. -1.
         24    2    1    2    0    0 -0.24681470229E+02 -0.39855012287E+01 -0.29698145863E+02  0.86763864197E+02  0.77594645885E+02 0.  0.
         23    2    1    2    0    0  0.30298928761E+03  0.67049957436E+02 -0.40819690259E+03  0.51814620613E+03  0.74515598650E+02 0.  0.
        -13    1    3    3    0    0 -0.25885492937E+02  0.64084406529E+01  0.21657163063E+02  0.34353450600E+02  0.00000000000E+00 0.  1.
         14    1    3    3    0    0  0.12040227076E+01 -0.10393941882E+02 -0.51355308926E+02  0.52410413597E+02  0.00000000000E+00 0. -1.
        -11    1    4    4    0    0  0.23036933054E+03  0.53852200430E+02 -0.35716744409E+03  0.42841413500E+03  0.00000000000E+00 0.  1.
         11    1    4    4    0    0  0.72619957074E+02  0.13197757005E+02 -0.51029458494E+02  0.89732071132E+02  0.00000000000E+00 0. -1.
          1    1    1    2  501    0 -0.27830781738E+03 -0.63064456207E+02 -0.60913319292E+03  0.67266307581E+03  0.00000000000E+00 0. -1.
<scales pt_clust_5="13000.00000" pt_clust_6="13000.00000" pt_clust_7="13000.00000" pt_clust_8="13000.00000" pt_clust_9="299.84941"></scales>
<clustering>
<clus scale="   74.516">  7  8 -1 -1</clus>
<clus scale="   77.595">  5  6 -1 -1</clus>
<clus scale="   81.523">  2  5  1 -1</clus>
<clus scale="  299.849">  1  9  2 -1</clus>
<clus scale="  299.849">  1  5  2 -1</clus>
</clustering>
</event>
<event>
 9    2  0.1654290E-004  0.1290582E+03  0.7546771E-02  0.1239407E+00
          2   -1    0    0  502    0 -0.00000000000E+00  0.00000000000E+00  0.41555313866E+03  0.41555313866E+03  0.00000000000E+00 0. -1.
         21   -1    0    0  501  502  0.00000000000E+00 -0.00000000000E+00 -0.10380324554E+03  0.10380324554E+03  0.00000000000E+00 0. -1.
         23    2    1    2    0    0  0.47653330164E+02 -0.26442389869E+02 -0.21001326555E+02  0.10605553652E+03  0.88525031784E+02 0.  0.
         24    2    1    2    0    0  0.67624809555E+02  0.16172744947E+02  0.24781820970E+03  0.26974552285E+03  0.80710033413E+02 0.  0.
        -13    1    4    4    0    0  0.13357152435E+02  0.42457081303E+02  0.81941552937E+02  0.93249318345E+02  0.00000000000E+00 0.  1.
         14    1    4    4    0    0  0.54267657120E+02 -0.26284336355E+02  0.16587665676E+03  0.17649620451E+03  0.00000000000E+00 0. -1.
        -13    1    3    3    0    0  0.16468983239E+02 -0.14465274960E+02  0.34736248573E+02  0.41074061810E+02  0.00000000000E+00 0.  1.
         13    1    3    3    0    0  0.31184346926E+02 -0.11977114909E+02 -0.55737575128E+02  0.64981474713E+02  0.00000000000E+00 0. -1.
          1    1    1    2  501    0 -0.11527813972E+03  0.10269644921E+02  0.84933009966E+02  0.14355532483E+03  0.00000000000E+00 0. -1.
<scales pt_clust_5="13000.00000" pt_clust_6="13000.00000" pt_clust_7="13000.00000" pt_clust_8="13000.00000" pt_clust_9="100.70709"></scales>
<clustering>
<clus scale="   80.710">  5  6 -1 -1</clus>
<clus scale="   88.525">  7  8 -1 -1</clus>
<clus scale="  103.955">  1  7  2 -1</clus>
<clus scale="  100.707">  2  9  1 -1</clus>
<clus scale="  100.707">  2  5  1 -1</clus>
</clustering>
</event>
<event>
 9    2  0.1654290E-004  0.1490051E+03  0.7546771E-02  0.1228190E+00
          2   -1    0    0  502    0 -0.00000000000E+00  0.00000000000E+00  0.14422246200E+04  0.14422246200E+04  0.00000000000E+00 0. -1.
         21   -1    0    0  501  502  0.00000000000E+00 -0.00000000000E+00 -0.31605881797E+02  0.31605881797E+02  0.00000000000E+00 0. -1.
         24    2    1    2    0    0 -0.25906431992E+02  0.42923468879E+01  0.45959570938E+03  0.46739473524E+03  0.80870606446E+02 0.  0.
         23    2    1    2    0    0  0.33677772151E+02 -0.11938842229E+03  0.22355017197E+03  0.26987330637E+03  0.86424153966E+02 0.  0.
        -13    1    3    3    0    0  0.23635646224E+02  0.75507707969E+01  0.63109178345E+02  0.67811697394E+02  0.00000000000E+00 0.  1.
         14    1    3    3    0    0 -0.49542078215E+02 -0.32584239090E+01  0.39648653103E+03  0.39958303784E+03  0.00000000000E+00 0. -1.
        -13    1    4    4    0    0  0.26198732169E+00 -0.22615130302E+02  0.12750048799E+03  0.12949087687E+03  0.00000000000E+00 0.  1.
         13    1    4    4    0    0  0.33415784830E+02 -0.96773291989E+02  0.96049683975E+02  0.14038242949E+03  0.00000000000E+00 0. -1.
          1    1    1    2  501    0 -0.77713401597E+01  0.11509607540E+03  0.72747285683E+03  0.73656246016E+03  0.00000000000E+00 0. -1.
<scales pt_clust_5="13000.00000" pt_clust_6="13000.00000" pt_clust_7="13000.00000" pt_clust_8="13000.00000" pt_clust_9="121.38126"></scales>
<clustering>
<clus scale="   80.871">  5  6 -1 -1</clus>
<clus scale="   85.027">  1  5  2 -1</clus>
<clus scale="   86.424">  7  8 -1 -1</clus>
<clus scale="  121.381">  2  9  1 -1</clus>
<clus scale="  121.381">  2  5  1 -1</clus>
</clustering>
</event>
<event>
 9    2  0.1654290E-004  0.1078453E+03  0.7546771E-02  0.1270784E+00
         21   -1    0    0  501  502  0.00000000000E+00  0.00000000000E+00  0.14644351564E+03  0.14644351564E+03  0.00000000000E+00 0.  1.
         -3   -1    0    0    0  501 -0.00000000000E+00 -0.00000000000E+00 -0.26425047503E+03  0.26425047503E+03  0.00000000000E+00 0.  1.
         23    2    1    2    0    0 -0.44691448218E+02 -0.94050216769E+01 -0.12995875603E+03  0.16760480613E+03  0.95479384121E+02 0.  0.
         24    2    1    2    0    0  0.39091853564E+02  0.10137039532E+03  0.48270328584E+02  0.14412690002E+03  0.81476429874E+02 0.  0.
        -13    1    4    4    0    0  0.43758608790E+02  0.97300618990E+02  0.12032559898E+02  0.10736390826E+03  0.00000000000E+00 0.  1.
         14    1    4    4    0    0 -0.46667552253E+01  0.40697763292E+01  0.36237768686E+02  0.36762991759E+02  0.00000000000E+00 0. -1.
        -13    1    3    3    0    0 -0.57520300884E+02  0.27763959557E+02 -0.97797613495E+02  0.11680665935E+03  0.00000000000E+00 0.  1.
         13    1    3    3    0    0  0.12828852666E+02 -0.37168981234E+02 -0.32161142537E+02  0.50798146777E+02  0.00000000000E+00 0. -1.
         -4    1    1    2    0  502  0.55995946539E+01 -0.91965373642E+02 -0.36118531940E+02  0.98962284528E+02  0.00000000000E+00 0.  1.
<scales pt_clust_5="13000.00000" pt_clust_6="13000.00000" pt_clust_7="13000.00000" pt_clust_8="13000.00000" pt_clust_9="92.13574"></scales>
<clustering>
<clus scale="   81.476">  5  6 -1 -1</clus>
<clus scale="   92.136">  1  9  2 -1</clus>
<clus scale="   95.479">  7  8 -1 -1</clus>
<clus scale="   95.670">  1  5  2 -1</clus>
<clus scale="   92.136">  1  5  2 -1</clus>
</clustering>
</event>
<event>
 9    2  0.1654290E-004  0.1722751E+03  0.7546771E-02  0.1209371E+00
         21   -1    0    0  501  502  0.00000000000E+00  0.00000000000E+00  0.19361784441E+03  0.19361784441E+03  0.00000000000E+00 0.  1.
         -3   -1    0    0    0  501 -0.00000000000E+00 -0.00000000000E+00 -0.32912132939E+03  0.32912132939E+03  0.00000000000E+00 0.  1.
         24    2    1    2    0    0 -0.74376494143E+01 -0.30507827673E+01  0.95799801906E+02  0.12593642441E+03  0.81349585400E+02 0.  0.
         23    2    1    2    0    0 -0.76893782667E+02 -0.11993963034E+03 -0.93604269726E+02  0.19382626927E+03  0.92242585666E+02 0.  0.
        -11    1    3    3    0    0 -0.31601940274E+02 -0.31254278263E+02  0.56089010407E+02  0.71564583610E+02  0.00000000000E+00 0.  1.
         12    1    3    3    0    0  0.24164290860E+02  0.28203495496E+02  0.39710791499E+02  0.54371840804E+02  0.00000000000E+00 0. -1.
        -13    1    4    4    0    0 -0.96718295523E+02 -0.10543392920E+03 -0.68239208129E+02  0.15851602961E+03  0.00000000000E+00 0.  1.
         13    1    4    4    0    0  0.19824512856E+02 -0.14505701136E+02 -0.25365061598E+02  0.35310239666E+02  0.00000000000E+00 0. -1.
         -4    1    1    2    0  502  0.84331432081E+02  0.12299041311E+03 -0.13769901716E+03  0.20297648012E+03  0.00000000000E+00 0.  1.
<scales pt_clust_5="13000.00000" pt_clust_6="13000.00000" pt_clust_7="13000.00000" pt_clust_8="13000.00000" pt_clust_9="145.49929"></scales>
<clustering>
<clus scale="   81.350">  5  6 -1 -1</clus>
<clus scale="   81.746">  2  5  1 -1</clus>
<clus scale="   92.243">  7  8 -1 -1</clus>
<clus scale="  145.499">  1  9  2 -1</clus>
<clus scale="  145.499">  1  5  2 -1</clus>
</clustering>
</event>
<event>
 9    2  0.1654290E-004  0.1149661E+03  0.7546771E-02  0.1253151E+00
          2   -1    0    0  502    0 -0.00000000000E+00  0.00000000000E+00  0.45064199266E+03  0.45064199266E+03  0.00000000000E+00 0. -1.
         21   -1    0    0  501  502  0.00000000000E+00 -0.00000000000E+00 -0.56252978011E+02  0.56252978011E+02  0.00000000000E+00 0.  1.
         24    2    1    2    0    0  0.16271230851E+02 -0.52845064932E+02  0.23646230845E+03  0.26063993662E+03  0.94664668169E+02 0.  0.
         23    2    1    2    0    0 -0.20912903788E+02  0.77962919238E+02  0.17687304341E+03  0.21445227590E+03  0.90499385818E+02 0.  0.
        -11    1    3    3    0    0 -0.12371355274E+02 -0.35817975689E+02  0.22441851118E+02  0.44041054658E+02  0.00000000000E+00 0.  1.
         12    1    3    3    0    0  0.28642586125E+02 -0.17027089243E+02  0.21402045733E+03  0.21659888196E+03  0.00000000000E+00 0. -1.
        -13    1    4    4    0    0  0.32752121179E+02  0.11836350049E+02  0.66246505648E+02  0.74842502195E+02  0.00000000000E+00 0. -1.
         13    1    4    4    0    0 -0.53665024966E+02  0.66126569189E+02  0.11062653776E+03  0.13960977371E+03  0.00000000000E+00 0.  1.
          1    1    1    2  501    0  0.46416729366E+01 -0.25117854306E+02 -0.18946337211E+02  0.31802758155E+02  0.00000000000E+00 0. -1.
<scales pt_clust_5="13000.00000" pt_clust_6="13000.00000" pt_clust_7="13000.00000" pt_clust_8="13000.00000" pt_clust_9="25.54313"></scales>
<clustering>
<clus scale="   25.543">  2  9  1 -1</clus>
<clus scale="   90.499">  7  8 -1 -1</clus>
<clus scale="   94.665">  5  6 -1 -1</clus>
<clus scale="  111.561">  2  7  1 -1</clus>
<clus scale="   25.543">  2  5  1 -1</clus>
</clustering>
</event>
<event>
 9    2  0.1654290E-004  0.9908106E+02  0.7546771E-02  0.1285567E+00
         -1   -1    0    0    0  501 -0.00000000000E+00  0.00000000000E+00  0.19299532843E+03  0.19299532843E+03  0.00000000000E+00 0.  1.
         21   -1    0    0  501  502  0.00000000000E+00 -0.00000000000E+00 -0.99872753540E+02  0.99872753540E+02  0.00000000000E+00 0. -1.
         23    2    1    2    0    0  0.18524255837E+02  0.27648493076E+02  0.86427109678E+02  0.13044664335E+03  0.91864542945E+02 0.  0.
         24    2    1    2    0    0  0.20697512552E+01 -0.56731584445E+02 -0.34336810988E+02  0.10807452498E+03  0.85313128051E+02 0.  0.
        -11    1    4    4    0    0  0.38962681726E+02 -0.32624712590E+02  0.21448128336E+01  0.50863175883E+02  0.00000000000E+00 0.  1.
         12    1    4    4    0    0 -0.36892930470E+02 -0.24106871855E+02 -0.36481623821E+02  0.57211349101E+02  0.00000000000E+00 0. -1.
        -11    1    3    3    0    0  0.17939457804E+02 -0.32009548868E+02  0.22685004289E+02  0.43139828286E+02  0.00000000000E+00 0.  1.
         11    1    3    3    0    0  0.58479803383E+00  0.59658041943E+02  0.63742105389E+02  0.87306815065E+02  0.00000000000E+00 0. -1.
         -2    1    1    2    0  502 -0.20594007093E+02  0.29083091369E+02  0.41032276203E+02  0.54346913639E+02  0.00000000000E+00 0.  1.
<scales pt_clust_5="13000.00000" pt_clust_6="13000.00000" pt_clust_7="13000.00000" pt_clust_8="13000.00000" pt_clust_9="35.63623"></scales>
<clustering>
<clus scale="   35.636">  2  9  1 -1</clus>
<clus scale="   85.313">  5  6 -1 -1</clus>
<clus scale="   91.865">  7  8 -1 -1</clus>
<clus scale="   93.039">  2  5  1 -1</clus>
<clus scale="   35.636">  2  5  1 -1</clus>
</clustering>
</event>
<event>
 9    2  0.1654290E-004  0.1040871E+03  0.7546771E-02  0.1276166E+00
         -3   -1    0    0    0  501 -0.00000000000E+00  0.00000000000E+00  0.16396610910E+03  0.16396610910E+03  0.00000000000E+00 0.  1.
         21   -1    0    0  501  502  0.00000000000E+00 -0.00000000000E+00 -0.23845163173E+03  0.23845163173E+03  0.00000000000E+00 0.  1.
         24    2    1    2    0    0  0.52706916592E+00 -0.56551634198E+02  0.12324459973E+03  0.15746680779E+03  0.80051227733E+02 0.  0.
         23    2    1    2    0    0 -0.10553456722E+02  0.30550284138E+02 -0.81393579004E+02  0.12532321896E+03  0.89645408129E+02 0.  0.
        -13    1    3    3    0    0 -0.10802282184E+02 -0.36865066023E+02  0.12852849111E+03  0.13414654457E+03  0.00000000000E+00 0.  1.
         14    1    3    3    0    0  0.11329351350E+02 -0.19686568175E+02 -0.52838913819E+01  0.23320263220E+02  0.00000000000E+00 0. -1.
        -13    1    4    4    0    0  0.17876217620E+02  0.38200071278E+02 -0.38173238041E+01  0.42348276979E+02  0.00000000000E+00 0. -1.
         13    1    4    4    0    0 -0.28429674343E+02 -0.76497871402E+01 -0.77576255200E+02  0.82974941985E+02  0.00000000000E+00 0.  1.
         -4    1    1    2    0  502  0.10026387556E+02  0.26001350060E+02 -0.11633654336E+03  0.11962771407E+03  0.00000000000E+00 0.  1.
<scales pt_clust_5="13000.00000" pt_clust_6="13000.00000" pt_clust_7="13000.00000" pt_clust_8="13000.00000" pt_clust_9="27.86752"></scales>
<clustering>
<clus scale="   27.868">  2  9  1 -1</clus>
<clus scale="   80.051">  5  6 -1 -1</clus>
<clus scale="   89.645">  7  8 -1 -1</clus>
<clus scale="   95.948">  1  5  2 -1</clus>
<clus scale="   27.868">  2  5  1 -1</clus>
</clustering>
</event>
<event>
 9    2  0.1654290E-004  0.1230047E+03  0.7546771E-02  0.1241109E+00
          2   -1    0    0  502    0 -0.00000000000E+00  0.00000000000E+00  0.44355947301E+03  0.44355947301E+03  0.00000000000E+00 0. -1.
         21   -1    0    0  501  502  0.00000000000E+00 -0.00000000000E+00 -0.86611687274E+02  0.86611687274E+02  0.00000000000E+00 0. -1.
         23    2    1    2    0    0 -0.58112919534E+02  0.19945262106E+01  0.15434588644E+03  0.18686775062E+03  0.87839706340E+02 0.  0.
         24    2    1    2    0    0  0.15131139378E+03  0.33769668603E+02  0.15547797347E+03  0.23291456232E+03  0.77719139864E+02 0.  0.
        -13    1    4    4    0    0  0.25785626680E+02  0.20548040210E+02  0.41459274411E+00  0.32974116923E+02  0.00000000000E+00 0.  1.
         14    1    4    4    0    0  0.12552576710E+03  0.13221628393E+02  0.15506338072E+03  0.19994044539E+03  0.00000000000E+00 0. -1.
        -13    1    3    3    0    0 -0.65348966619E+02 -0.28051105940E+02  0.84185125140E+02  0.11020202937E+03  0.00000000000E+00 0. -1.
         13    1    3    3    0    0  0.72360470854E+01  0.30045632150E+02  0.70160761298E+02  0.76665721249E+02  0.00000000000E+00 0.  1.
          1    1    1    2  501    0 -0.93198474246E+02 -0.35764194814E+02  0.47123925832E+02  0.11038884735E+03  0.00000000000E+00 0. -1.
<scales pt_clust_5="13000.00000" pt_clust_6="13000.00000" pt_clust_7="13000.00000" pt_clust_8="13000.00000" pt_clust_9="99.82501"></scales>
<clustering>
<clus scale="   77.719">  5  6 -1 -1</clus>
<clus scale="   87.840">  7  8 -1 -1</clus>
<clus scale="   99.825">  2  9  1 -1</clus>
<clus scale="  115.994">  2  5  1 -1</clus>
<clus scale="   99.825">  2  5  1 -1</clus>
</clustering>
</event>
<event>
 9    2  0.1654290E-004  0.2707226E+03  0.7546771E-02  0.1101443E+00
         21   -1    0    0  501  502  0.00000000000E+00  0.00000000000E+00  0.10293037873E+03  0.10293037873E+03  0.00000000000E+00 0.  1.
          4   -1    0    0  502    0 -0.00000000000E+00 -0.00000000000E+00 -0.12684783811E+04  0.12684783811E+04  0.00000000000E+00 0. -1.
         24    2    1    2    0    0 -0.30960314059E+03 -0.56319345093E+02 -0.60890254859E+03  0.69005079283E+03  0.79886229776E+02 0.  0.
         23    2    1    2    0    0  0.18280791277E+03 -0.64039344350E+01 -0.15924330458E+03  0.25952896399E+03  0.92396481263E+02 0.  0.
        -13    1    3    3    0    0 -0.30996550959E+03 -0.56349894600E+02 -0.57099920253E+03  0.65214570231E+03  0.00000000000E+00 0.  1.
         14    1    3    3    0    0  0.36236899214E+00  0.30549506838E-01 -0.37903346062E+02  0.37905090519E+02  0.00000000000E+00 0. -1.
        -11    1    4    4    0    0  0.99133004310E+02  0.41414465115E+02 -0.97427411611E+02  0.14503313758E+03  0.00000000000E+00 0. -1.
         11    1    4    4    0    0  0.83674908456E+02 -0.47818399550E+02 -0.61815892969E+02  0.11449582641E+03  0.00000000000E+00 0.  1.
          3    1    1    2  501    0  0.12679522783E+03  0.62723279528E+02 -0.39740214924E+03  0.42182900305E+03  0.00000000000E+00 0. -1.
<scales pt_clust_5="13000.00000" pt_clust_6="13000.00000" pt_clust_7="13000.00000" pt_clust_8="13000.00000" pt_clust_9="141.46116"></scales>
<clustering>
<clus scale="   79.886">  5  6 -1 -1</clus>
<clus scale="   92.396">  7  8 -1 -1</clus>
<clus scale="  141.461">  1  9  2 -1</clus>
<clus scale="  266.712">  2  5  1 -1</clus>
<clus scale="  141.461">  1  5  2 -1</clus>
</clustering>
</event>
<event>
 9    2  0.1654290E-004  0.1135925E+03  0.7546771E-02  0.1257744E+00
         -1   -1    0    0    0  501 -0.00000000000E+00  0.00000000000E+00  0.16059400218E+03  0.16059400218E+03  0.00000000000E+00 0.  1.
         21   -1    0    0  501  502  0.00000000000E+00 -0.00000000000E+00 -0.15207758398E+03  0.15207758398E+03  0.00000000000E+00 0.  1.
         24    2    1    2    0    0 -0.57221723325E+02 -0.13850079978E+02  0.28650052394E+02  0.10435611000E+03  0.81260210788E+02 0.  0.
         23    2    1    2    0    0  0.79537320869E+02 -0.39563395197E+02  0.30891039581E+02  0.13115005282E+03  0.91403678146E+02 0.  0.
        -13    1    3    3    0    0 -0.45502066569E+02 -0.27788168760E+02 -0.16386183265E+02  0.55777481003E+02  0.00000000000E+00 0.  1.
         14    1    3    3    0    0 -0.11719656757E+02  0.13938088781E+02  0.45036235659E+02  0.48578629002E+02  0.00000000000E+00 0. -1.
        -13    1    4    4    0    0  0.14619677033E+02 -0.25957824869E+02  0.53365280145E+02  0.61117892253E+02  0.00000000000E+00 0.  1.
         13    1    4    4    0    0  0.64917643837E+02 -0.13605570328E+02 -0.22474240564E+02  0.70032160570E+02  0.00000000000E+00 0. -1.
         -2    1    1    2    0  502 -0.22315597544E+02  0.53413475175E+02 -0.51024673778E+02  0.77165423333E+02  0.00000000000E+00 0.  1.
<scales pt_clust_5="13000.00000" pt_clust_6="13000.00000" pt_clust_7="13000.00000" pt_clust_8="13000.00000" pt_clust_9="57.88769"></scales>
<clustering>
<clus scale="   57.888">  2  9  1 -1</clus>
<clus scale="   81.260">  5  6 -1 -1</clus>
<clus scale="   91.404">  7  8 -1 -1</clus>
<clus scale="  105.602">  1  5  2 -1</clus>
<clus scale="   57.888">  2  5  1 -1</clus>
</clustering>
</event>
<event>
 9    2  0.1654290E-004  0.1256327E+03  0.7546771E-02  0.1237520E+00
         21   -1    0    0  501  502  0.00000000000E+00  0.00000000000E+00  0.43729133595E+03  0.43729133595E+03  0.00000000000E+00 0. -1.
         -1   -1    0    0    0  501 -0.00000000000E+00 -0.00000000000E+00 -0.47836853597E+02  0.47836853597E+02  0.00000000000E+00 0.  1.
         24    2    1    2    0    0  0.76190114215E+02  0.53514943191E+02  0.15459425324E+03  0.19728288480E+03  0.79701761901E+02 0.  0.
         23    2    1    2    0    0 -0.81080607453E+02 -0.12394239374E+02  0.19341794696E+03  0.22925953893E+03  0.91770103572E+02 0.  0.
        -11    1    3    3    0    0  0.41056529575E+02  0.18515450172E+02  0.12437311957E+02  0.46724161250E+02  0.00000000000E+00 0.  1.
         12    1    3    3    0    0  0.35133584640E+02  0.34999493020E+02  0.14215694128E+03  0.15055872355E+03  0.00000000000E+00 0. -1.
        -13    1    4    4    0    0 -0.81462156282E+02  0.24860104331E+02  0.12327183094E+03  0.14983341415E+03  0.00000000000E+00 0.  1.
         13    1    4    4    0    0  0.38154882949E+00 -0.37254343705E+02  0.70146116019E+02  0.79426124776E+02  0.00000000000E+00 0. -1.
         -2    1    1    2    0  502  0.48904932379E+01 -0.41120703817E+02  0.41442282152E+02  0.58585765818E+02  0.00000000000E+00 0.  1.
<scales pt_clust_5="13000.00000" pt_clust_6="13000.00000" pt_clust_7="13000.00000" pt_clust_8="13000.00000" pt_clust_9="41.41052"></scales>
<clustering>
<clus scale="   41.411">  1  9  2 -1</clus>
<clus scale="   79.702">  5  6 -1 -1</clus>
<clus scale="   91.770">  7  8 -1 -1</clus>
<clus scale="  117.108">  2  5  1 -1</clus>
<clus scale="   41.411">  1  5  2 -1</clus>
</clustering>
</event>
<event>
 9    2  0.1654290E-004  0.1391819E+03  0.7546771E-02  0.1217471E+00
          2   -1    0    0  502    0 -0.00000000000E+00  0.00000000000E+00  0.12794416408E+04  0.12794416408E+04  0.00000000000E+00 0. -1.
         21   -1    0    0  501  502  0.00000000000E+00 -0.00000000000E+00 -0.26472322913E+02  0.26472322913E+02  0.00000000000E+00 0. -1.
         24    2    1    2    0    0 -0.92820788844E+02 -0.25245513846E+02  0.77894683049E+03  0.78907284580E+03  0.81392606837E+02 0.  0.
         23    2    1    2    0    0  0.10817386652E+03  0.41308068786E+02  0.47129402371E+03  0.49445435443E+03  0.94652574679E+02 0.  0.
        -11    1    3    3    0    0  0.13265241223E+01 -0.24716517396E+02  0.78046259001E+02  0.81877252289E+02  0.00000000000E+00 0.  1.
         12    1    3    3    0    0 -0.94147312967E+02 -0.52899644953E+00  0.70090057149E+03  0.70719559352E+03  0.00000000000E+00 0. -1.
        -11    1    4    4    0    0  0.72849673302E+02  0.31630985488E+02  0.43740032141E+03  0.44455217389E+03  0.00000000000E+00 0. -1.
         11    1    4    4    0    0  0.35324193214E+02  0.96770832986E+01  0.33893702296E+02  0.49902180540E+02  0.00000000000E+00 0.  1.
          1    1    1    2  501    0 -0.15353077672E+02 -0.16062554941E+02  0.27284637045E+01  0.22386763486E+02  0.00000000000E+00 0. -1.
<scales pt_clust_5="13000.00000" pt_clust_6="13000.00000" pt_clust_7="13000.00000" pt_clust_8="13000.00000" pt_clust_9="22.21987"></scales>
<clustering>
<clus scale="   22.220">  2  9  1 -1</clus>
<clus scale="   81.393">  5  6 -1 -1</clus>
<clus scale="   94.653">  7  8 -1 -1</clus>
<clus scale="  130.527">  1  5  2 -1</clus>
<clus scale="   22.220">  2  5  1 -1</clus>
</clustering>
</event>
<event>
 9    2  0.1654290E-004  0.1332936E+03  0.7546771E-02  0.1224469E+00
          2   -1    0    0  502    0 -0.00000000000E+00  0.00000000000E+00  0.59498945894E+03  0.59498945894E+03  0.00000000000E+00 0. -1.
         21   -1    0    0  501  502  0.00000000000E+00 -0.00000000000E+00 -0.95404313501E+02  0.95404313501E+02  0.00000000000E+00 0. -1.
         23    2    1    2    0    0 -0.28109100561E+02  0.99473268016E+02  0.48742677931E+03  0.50625529189E+03  0.89579589186E+02 0.  0.
         24    2    1    2    0    0 -0.88322319045E+01 -0.84133955015E+02  0.51000426421E+02  0.12838310220E+03  0.82003943370E+02 0.  0.
        -13    1    4    4    0    0  0.15276393683E+02 -0.91136349996E+02  0.43821800090E+02  0.10227195440E+03  0.00000000000E+00 0.  1.
         14    1    4    4    0    0 -0.24108625587E+02  0.70023949811E+01  0.71786263315E+01  0.26111147795E+02  0.00000000000E+00 0. -1.
        -11    1    3    3    0    0  0.19309307916E+02  0.75260124309E+02  0.21341468873E+03  0.22711839434E+03  0.00000000000E+00 0.  1.
         11    1    3    3    0    0 -0.47418408477E+02  0.24213143706E+02  0.27401209058E+03  0.27913689755E+03  0.00000000000E+00 0. -1.
          1    1    1    2  501    0  0.36941332465E+02 -0.15339313001E+02 -0.38842060288E+02  0.55755378351E+02  0.00000000000E+00 0. -1.
<scales pt_clust_5="13000.00000" pt_clust_6="13000.00000" pt_clust_7="13000.00000" pt_clust_8="13000.00000" pt_clust_9="39.99946"></scales>
<clustering>
<clus scale="   39.999">  2  9  1 -1</clus>
<clus scale="   82.004">  5  6 -1 -1</clus>
<clus scale="   89.580">  7  8 -1 -1</clus>
<clus scale="  128.325">  2  5  1 -1</clus>
<clus scale="   39.999">  2  5  1 -1</clus>
</clustering>
</event>
<event>
 9    2  0.1654290E-004  0.1657410E+03  0.7546771E-02  0.1195054E+00
         21   -1    0    0  501  502  0.00000000000E+00  0.00000000000E+00  0.97135419214E+02  0.97135419214E+02  0.00000000000E+00 0. -1.
          2   -1    0    0  502    0 -0.00000000000E+00 -0.00000000000E+00 -0.56431013680E+03  0.56431013680E+03  0.00000000000E+00 0. -1.
         24    2    1    2    0    0  0.94292051994E+02 -0.55500760301E+01 -0.14153037125E+03  0.18891918985E+03  0.82084224394E+02 0.  0.
         23    2    1    2    0    0  0.80612077182E+02  0.81661404914E+02 -0.10071248298E+03  0.17760479703E+03  0.90739008475E+02 0.  0.
        -11    1    3    3    0    0  0.68633331892E+01  0.26326825179E+02 -0.57172861248E+02  0.63316215378E+02  0.00000000000E+00 0.  1.
         12    1    3    3    0    0  0.87428718805E+02 -0.31876901209E+02 -0.84357509998E+02  0.12560297447E+03  0.00000000000E+00 0. -1.
        -13    1    4    4    0    0  0.16370240571E+02  0.33953201226E+02  0.11837399836E+02  0.39508590012E+02  0.00000000000E+00 0. -1.
         13    1    4    4    0    0  0.64241836611E+02  0.47708203689E+02 -0.11254988281E+03  0.13809620701E+03  0.00000000000E+00 0.  1.
          1    1    1    2  501    0 -0.17490412918E+03 -0.76111328884E+02 -0.22493186336E+03  0.29492156914E+03  0.00000000000E+00 0. -1.
<scales pt_clust_5="13000.00000" pt_clust_6="13000.00000" pt_clust_7="13000.00000" pt_clust_8="13000.00000" pt_clust_9="138.69576"></scales>
<clustering>
<clus scale="   82.084">  5  6 -1 -1</clus>
<clus scale="   90.739">  7  8 -1 -1</clus>
<clus scale="  125.138">  2  5  1 -1</clus>
<clus scale="  138.696">  1  9  2 -1</clus>
<clus scale="  138.696">  1  5  2 -1</clus>
</clustering>
</event>
<event>
 9    2  0.1654290E-004  0.9863440E+02  0.7546771E-02  0.1292947E+00
         21   -1    0    0  501  502  0.00000000000E+00  0.00000000000E+00  0.60247593582E+02  0.60247593582E+02  0.00000000000E+00 0.  1.
          2   -1    0    0  502    0 -0.00000000000E+00 -0.00000000000E+00 -0.35703080747E+03  0.35703080747E+03  0.00000000000E+00 0. -1.
         23    2    1    2    0    0  0.28815983733E+02  0.26581953930E+01 -0.11427986532E+03  0.15325085043E+03  0.97920930453E+02 0.  0.
         24    2    1    2    0    0  0.44645811512E+02  0.33153833371E+02 -0.55587698871E+02  0.11307484642E+03  0.81261943584E+02 0.  0.
        -13    1    4    4    0    0  0.67756577698E+02  0.16177795718E+02 -0.41999027791E+02  0.81342444216E+02  0.00000000000E+00 0.  1.
         14    1    4    4    0    0 -0.23110766186E+02  0.16976037653E+02 -0.13588671080E+02  0.31732402207E+02  0.00000000000E+00 0. -1.
        -13    1    3    3    0    0  0.58445395985E+01 -0.40957726745E+02 -0.88337423185E+02  0.97545857719E+02  0.00000000000E+00 0. -1.
         13    1    3    3    0    0  0.22971444134E+02  0.43615922138E+02 -0.25942442131E+02  0.55704992714E+02  0.00000000000E+00 0.  1.
          1    1    1    2  501    0 -0.73461795244E+02 -0.35812028764E+02 -0.12691564970E+03  0.15095270420E+03  0.00000000000E+00 0. -1.
<scales pt_clust_5="13000.00000" pt_clust_6="13000.00000" pt_clust_7="13000.00000" pt_clust_8="13000.00000" pt_clust_9="81.72603"></scales>
<clustering>
<clus scale="   81.262">  5  6 -1 -1</clus>
<clus scale="   81.726">  1  9  2 -1</clus>
<clus scale="   82.120">  1  5  2 -1</clus>
<clus scale="   97.921">  7  8 -1 -1</clus>
<clus scale="   81.726">  1  5  2 -1</clus>
</clustering>
</event>
<event>
 9    2  0.1654290E-004  0.3057691E+03  0.7546771E-02  0.1124738E+00
          2   -1    0    0  502    0 -0.00000000000E+00  0.00000000000E+00  0.16181787506E+04  0.16181787506E+04  0.00000000000E+00 0. -1.
         21   -1    0    0  501  502  0.00000000000E+00 -0.00000000000E+00 -0.95449262274E+02  0.95449262274E+02  0.00000000000E+00 0. -1.
         23    2    1    2    0    0  0.48749532555E+02  0.15094810047E+01  0.36573954746E+02  0.10893032858E+03  0.90273843727E+02 0.  0.
         24    2    1    2    0    0  0.15093242952E+03 -0.23936813276E+03  0.68608852756E+03  0.74646878808E+03  0.80127914346E+02 0.  0.
        -11    1    4    4    0    0  0.73288035627E+02 -0.11604742448E+03  0.23188832900E+03  0.26946305502E+03  0.00000000000E+00 0.  1.
         12    1    4    4    0    0  0.77644393890E+02 -0.12332070828E+03  0.45420019856E+03  0.47700573305E+03  0.00000000000E+00 0. -1.
        -13    1    3    3    0    0  0.68516548608E+02  0.23834976651E+02  0.29296898110E+02  0.78236384016E+02  0.00000000000E+00 0.  1.
         13    1    3    3    0    0 -0.19767016053E+02 -0.22325495647E+02  0.72770566360E+01  0.30693944562E+02  0.00000000000E+00 0. -1.
          1    1    1    2  501    0 -0.19968196207E+03  0.23785865176E+03  0.80006700604E+03  0.85822889624E+03  0.00000000000E+00 0. -1.
<scales pt_clust_5="13000.00000" pt_clust_6="13000.00000" pt_clust_7="13000.00000" pt_clust_8="13000.00000" pt_clust_9="295.08366"></scales>
<clustering>
<clus scale="   80.128">  5  6 -1 -1</clus>
<clus scale="   90.274">  7  8 -1 -1</clus>
<clus scale="  102.607">  1  7  2 -1</clus>
<clus scale="  295.084">  2  9  1 -1</clus>
<clus scale="  295.084">  2  5  1 -1</clus>
</clustering>
</event>
<event>
 9    2  0.1654290E-004  0.1526022E+03  0.7546771E-02  0.1226083E+00
         21   -1    0    0  501  502  0.00000000000E+00  0.00000000000E+00  0.13780678305E+03  0.13780678305E+03  0.00000000000E+00 0. -1.
          2   -1    0    0  502    0 -0.00000000000E+00 -0.00000000000E+00 -0.54762049235E+03  0.54762049235E+03  0.00000000000E+00 0. -1.
         24    2    1    2    0    0 -0.14611444783E+02 -0.10823883774E+02 -0.27183329005E+03  0.28413271269E+03  0.80668519633E+02 0.  0.
         23    2    1    2    0    0 -0.87021059127E+02  0.77414912862E+02 -0.21181046812E+03  0.25911718363E+03  0.93339739547E+02 0.  0.
        -11    1    3    3    0    0  0.25855155550E+02 -0.26965717846E+02 -0.15505936787E+03  0.15949622746E+03  0.00000000000E+00 0.  1.
         12    1    3    3    0    0 -0.40466600333E+02  0.16141834072E+02 -0.11677392218E+03  0.12463648523E+03  0.00000000000E+00 0. -1.
        -13    1    4    4    0    0 -0.12849565895E+02  0.53054254970E+02 -0.14973909817E+03  0.15937899120E+03  0.00000000000E+00 0.  1.
         13    1    4    4    0    0 -0.74171493232E+02  0.24360657892E+02 -0.62071369953E+02  0.99738192429E+02  0.00000000000E+00 0. -1.
          1    1    1    2  501    0  0.10163250391E+03 -0.66591029088E+02  0.73830048876E+02  0.14217737908E+03  0.00000000000E+00 0. -1.
<scales pt_clust_5="13000.00000" pt_clust_6="13000.00000" pt_clust_7="13000.00000" pt_clust_8="13000.00000" pt_clust_9="120.72749"></scales>
<clustering>
<clus scale="   80.669">  5  6 -1 -1</clus>
<clus scale="   82.693">  2  5  1 -1</clus>
<clus scale="   93.340">  7  8 -1 -1</clus>
<clus scale="  120.727">  1  9  2 -1</clus>
<clus scale="  120.727">  1  5  2 -1</clus>
</clustering>
</event>
<event>
 9    2  0.4684690E-004  0.3459280E+03  0.7546771E-02  0.1113767E+00
          2   -1    0    0  502    0 -0.00000000000E+00  0.00000000000E+00  0.79563746284E+03  0.79563746284E+03  0.00000000000E+00 0. -1.
         21   -1    0    0  501  502  0.00000000000E+00 -0.00000000000E+00 -0.50796766270E+03  0.50796766270E+03  0.00000000000E+00 0. -1.
         24    2    1    2    0    0 -0.27040583664E+02  0.42787852864E+02  0.43858834187E+03  0.44839514752E+03  0.78335695426E+02 0.  0.
         23    2    1    2    0    0 -0.25095556204E+03  0.19020073693E+03 -0.31140334820E+03  0.45857297380E+03  0.11900467461E+03 0.  0.
        -11    1    3    3    0    0  0.16212550098E+02 -0.14063117029E+02  0.85432081866E+02  0.88086654228E+02  0.00000000000E+00 0.  1.
         12    1    3    3    0    0 -0.43253133762E+02  0.56850969893E+02  0.35315626001E+03  0.36030849330E+03  0.00000000000E+00 0. -1.
        -11    1    4    4    0    0 -0.12247908737E+03  0.21154044772E+02 -0.11631136230E+03  0.17022618322E+03  0.00000000000E+00 0.  1.
         11    1    4    4    0    0 -0.12847647467E+03  0.16904669216E+03 -0.19509198590E+03  0.28834679058E+03  0.00000000000E+00 0. -1.
          1    1    1    2  501    0  0.27799614571E+03 -0.23298858980E+03  0.16048480647E+03  0.39663700422E+03  0.00000000000E+00 0. -1.
<scales pt_clust_5="13000.00000" pt_clust_6="13000.00000" pt_clust_7="13000.00000" pt_clust_8="13000.00000" pt_clust_9="324.81406"></scales>
<clustering>
<clus scale="   78.336">  5  6 -1 -1</clus>
<clus scale="   93.266">  1  5  2 -1</clus>
<clus scale="  119.005">  7  8 -1 -1</clus>
<clus scale="  324.814">  2  9  1 -1</clus>
<clus scale="  324.814">  2  5  1 -1</clus>
</clustering>
</event>
<event>
 9    2  0.1654290E-004  0.1480002E+03  0.7546771E-02  0.1225816E+00
          2   -1    0    0  502    0 -0.00000000000E+00  0.00000000000E+00  0.44988404304E+03  0.44988404304E+03  0.00000000000E+00 0. -1.
         21   -1    0    0  501  502  0.00000000000E+00 -0.00000000000E+00 -0.11722060322E+03  0.11722060322E+03  0.00000000000E+00 0.  1.
         23    2    1    2    0    0  0.11254567457E+02 -0.52896185574E+01 -0.16749044842E+02  0.92679012636E+02  0.90300739349E+02 0.  0.
         24    2    1    2    0    0 -0.12406252764E+03 -0.22373404404E+02  0.58595628721E+02  0.16127180174E+03  0.81750023501E+02 0.  0.
        -11    1    4    4    0    0 -0.12360014765E+03  0.32949767681E+01  0.55087853172E+02  0.13536072155E+03  0.00000000000E+00 0.  1.
         12    1    4    4    0    0 -0.46237998644E+00 -0.25668381172E+02  0.35077755484E+01  0.25911080189E+02  0.00000000000E+00 0. -1.
        -11    1    3    3    0    0 -0.25301887717E+02  0.66987595759E+01 -0.39944212435E+02  0.47755617564E+02  0.00000000000E+00 0.  1.
         11    1    3    3    0    0  0.36556455174E+02 -0.11988378133E+02  0.23195167593E+02  0.44923395072E+02  0.00000000000E+00 0. -1.
          1    1    1    2  501    0  0.11280796018E+03  0.27663022962E+02  0.29081685595E+03  0.31315383188E+03  0.00000000000E+00 0. -1.
<scales pt_clust_5="13000.00000" pt_clust_6="13000.00000" pt_clust_7="13000.00000" pt_clust_8="13000.00000" pt_clust_9="123.37342"></scales>
<clustering>
<clus scale="   81.750">  5  6 -1 -1</clus>
<clus scale="   90.301">  7  8 -1 -1</clus>
<clus scale="   91.153">  1  7  2 -1</clus>
<clus scale="  123.373">  2  9  1 -1</clus>
<clus scale="  123.373">  2  5  1 -1</clus>
</clustering>
</event>
<event>
 9    2  0.1654290E-004  0.1006268E+03  0.7546771E-02  0.1281267E+00
         21   -1    0    0  501  502  0.00000000000E+00  0.00000000000E+00  0.19475954452E+02  0.19475954452E+02  0.00000000000E+00 0.  1.
          2   -1    0    0  502    0 -0.00000000000E+00 -0.00000000000E+00 -0.82762648825E+03  0.82762648825E+03  0.00000000000E+00 0. -1.
         24    2    1    2    0    0 -0.12302833283E+02  0.54721351849E+02 -0.29722407746E+03  0.31321616290E+03  0.81341418869E+02 0.  0.
         23    2    1    2    0    0 -0.25449285898E+02 -0.47323540021E+02 -0.24628901132E+03  0.26646726883E+03  0.86367497762E+02 0.  0.
        -11    1    3    3    0    0 -0.31083756560E+02  0.60512722034E+02 -0.15024527711E+03  0.16492917493E+03  0.00000000000E+00 0.  1.
         12    1    3    3    0    0  0.18780923277E+02 -0.57913701849E+01 -0.14697880035E+03  0.14828698797E+03  0.00000000000E+00 0. -1.
        -13    1    4    4    0    0 -0.18245851088E+02 -0.68581921553E+02 -0.13074924651E+03  0.14876745783E+03  0.00000000000E+00 0.  1.
         13    1    4    4    0    0 -0.72034348099E+01  0.21258381532E+02 -0.11553976480E+03  0.11769981100E+03  0.00000000000E+00 0. -1.
          1    1    1    2  501    0  0.37752119181E+02 -0.73978118281E+01 -0.26463744502E+03  0.26741901097E+03  0.00000000000E+00 0. -1.
<scales pt_clust_5="13000.00000" pt_clust_6="13000.00000" pt_clust_7="13000.00000" pt_clust_8="13000.00000" pt_clust_9="38.47014"></scales>
<clustering>
<clus scale="   38.470">  1  9  2 -1</clus>
<clus scale="   81.341">  5  6 -1 -1</clus>
<clus scale="   86.367">  7  8 -1 -1</clus>
<clus scale="   96.348">  2  5  1 -1</clus>
<clus scale="   38.470">  1  5  2 -1</clus>
</clustering>
</event>
<event>
 9    2  0.1654290E-004  0.1571837E+03  0.7546771E-02  0.1193661E+00
         21   -1    0    0  501  502  0.00000000000E+00  0.00000000000E+00  0.38036401803E+02  0.38036401803E+02  0.00000000000E+00 0. -1.
          2   -1    0    0  502    0 -0.00000000000E+00 -0.00000000000E+00 -0.10674040541E+04  0.10674040541E+04  0.00000000000E+00 0. -1.
         24    2    1    2    0    0  0.13433580128E+03  0.60672992390E+02 -0.66198736902E+03  0.68289065939E+03  0.79906548025E+02 0.  0.
         23    2    1    2    0    0 -0.83177165830E+02 -0.64251343730E+02 -0.33312964186E+03  0.36088037933E+03  0.90623472760E+02 0.  0.
        -11    1    3    3    0    0  0.56733195055E+02  0.15920297777E+02 -0.12155656890E+03  0.13508556823E+03  0.00000000000E+00 0.  1.
         12    1    3    3    0    0  0.77602606224E+02  0.44752694613E+02 -0.54043080013E+03  0.54780509115E+03  0.00000000000E+00 0. -1.
        -13    1    4    4    0    0 -0.52728517679E+02 -0.84828476371E+02 -0.26932257579E+03  0.28724696136E+03  0.00000000000E+00 0. -1.
         13    1    4    4    0    0 -0.30448648151E+02  0.20577132641E+02 -0.63807066064E+02  0.73633417968E+02  0.00000000000E+00 0.  1.
          1    1    1    2  501    0 -0.51158635449E+02  0.35783513394E+01 -0.34250641422E+02  0.61669417194E+02  0.00000000000E+00 0. -1.
<scales pt_clust_5="13000.00000" pt_clust_6="13000.00000" pt_clust_7="13000.00000" pt_clust_8="13000.00000" pt_clust_9="51.28363"></scales>
<clustering>
<clus scale="   51.284">  1  9  2 -1</clus>
<clus scale="   79.907">  5  6 -1 -1</clus>
<clus scale="   90.623">  7  8 -1 -1</clus>
<clus scale="  151.259">  2  5  1 -1</clus>
<clus scale="   51.284">  1  5  2 -1</clus>
</clustering>
</event>
<event>
 9    2  0.1654290E-004  0.1047024E+03  0.7546771E-02  0.1273920E+00
         21   -1    0    0  501  502  0.00000000000E+00  0.00000000000E+00  0.19023794622E+03  0.19023794622E+03  0.00000000000E+00 0.  1.
          2   -1    0    0  502    0 -0.00000000000E+00 -0.00000000000E+00 -0.11887104621E+03  0.11887104621E+03  0.00000000000E+00 0. -1.
         24    2    1    2    0    0  0.34524399919E+02  0.56838227631E+02 -0.21866845973E+02  0.10672557992E+03  0.80558501385E+02 0.  0.
         23    2    1    2    0    0 -0.47542087961E+02 -0.18545426958E+02  0.11873166448E+01  0.10184315221E+03  0.88127379080E+02 0.  0.
        -11    1    3    3    0    0  0.76328370725E+01  0.70318116898E+02 -0.21599492494E+01  0.70764137433E+02  0.00000000000E+00 0.  1.
         12    1    3    3    0    0  0.26891562846E+02 -0.13479889266E+02 -0.19706896724E+02  0.35961442483E+02  0.00000000000E+00 0. -1.
        -13    1    4    4    0    0  0.12046999303E+02 -0.37204916570E+02 -0.32622498627E+01  0.39242557044E+02  0.00000000000E+00 0. -1.
         13    1    4    4    0    0 -0.59589087264E+02  0.18659489612E+02  0.44495665076E+01  0.62600595170E+02  0.00000000000E+00 0.  1.
          1    1    1    2  501    0  0.13017688042E+02 -0.38292800674E+02  0.92046429346E+02  0.10054026030E+03  0.00000000000E+00 0. -1.
<scales pt_clust_5="13000.00000" pt_clust_6="13000.00000" pt_clust_7="13000.00000" pt_clust_8="13000.00000" pt_clust_9="40.44501"></scales>
<clustering>
<clus scale="   40.445">  1  9  2 -1</clus>
<clus scale="   80.559">  5  6 -1 -1</clus>
<clus scale="   88.127">  7  8 -1 -1</clus>
<clus scale="   98.417">  2  5  1 -1</clus>
<clus scale="   40.445">  1  5  2 -1</clus>
</clustering>
</event>
<event>
 9    2  0.1654290E-004  0.2328158E+03  0.7546771E-02  0.1144157E+00
         21   -1    0    0  501  502  0.00000000000E+00  0.00000000000E+00  0.92889226376E+02  0.92889226376E+02  0.00000000000E+00 0. -1.
          2   -1    0    0  502    0 -0.00000000000E+00 -0.00000000000E+00 -0.10959479610E+04  0.10959479610E+04  0.00000000000E+00 0. -1.
         24    2    1    2    0    0  0.90282304316E+02  0.80144394644E+02 -0.11085627990E+03  0.18238102147E+03  0.79998148318E+02 0.  0.
         23    2    1    2    0    0 -0.83009382505E+01  0.17404221854E+03 -0.41085637071E+03  0.45597834501E+03  0.93561179736E+02 0.  0.
        -13    1    3    3    0    0  0.33369141494E+02 -0.46341684615E+01 -0.29468237899E+01  0.33818026137E+02  0.00000000000E+00 0.  1.
         14    1    3    3    0    0  0.56913162822E+02  0.84778563106E+02 -0.10790945611E+03  0.14856299534E+03  0.00000000000E+00 0. -1.
        -13    1    4    4    0    0  0.20114482838E+02 -0.12180963171E+01 -0.45682251962E+02  0.49929393375E+02  0.00000000000E+00 0. -1.
         13    1    4    4    0    0 -0.28415421088E+02  0.17526031486E+03 -0.36517411875E+03  0.40604895164E+03  0.00000000000E+00 0.  1.
          1    1    1    2  501    0 -0.81981366066E+02 -0.25418661318E+03 -0.48134608402E+03  0.55047782090E+03  0.00000000000E+00 0. -1.
<scales pt_clust_5="13000.00000" pt_clust_6="13000.00000" pt_clust_7="13000.00000" pt_clust_8="13000.00000" pt_clust_9="213.18899"></scales>
<clustering>
<clus scale="   79.998">  5  6 -1 -1</clus>
<clus scale="   93.561">  7  8 -1 -1</clus>
<clus scale="  144.823">  2  5  1 -1</clus>
<clus scale="  213.189">  1  9  2 -1</clus>
<clus scale="  213.189">  1  5  2 -1</clus>
</clustering>
</event>
<event>
 9    2  0.1654290E-004  0.1871127E+03  0.7546771E-02  0.1171946E+00
         21   -1    0    0  501  502  0.00000000000E+00  0.00000000000E+00  0.81660828777E+02  0.81660828777E+02  0.00000000000E+00 0. -1.
          2   -1    0    0  502    0 -0.00000000000E+00 -0.00000000000E+00 -0.84409035466E+03  0.84409035466E+03  0.00000000000E+00 0. -1.
         23    2    1    2    0    0 -0.87890126710E+02  0.71034611936E+02 -0.15914644143E+03  0.21580325760E+03  0.92048170569E+02 0.  0.
         24    2    1    2    0    0 -0.27056190139E+02 -0.19051954009E+03 -0.33433693837E+03  0.39400278296E+03  0.80170269072E+02 0.  0.
        -13    1    4    4    0    0 -0.41723242987E+02 -0.42066842961E+02 -0.98503160490E+02  0.11494921013E+03  0.00000000000E+00 0.  1.
         14    1    4    4    0    0  0.14667052847E+02 -0.14845269713E+03 -0.23583377788E+03  0.27905357284E+03  0.00000000000E+00 0. -1.
        -13    1    3    3    0    0 -0.24515218970E+02  0.89206717616E-01  0.59804722304E+01  0.25234301399E+02  0.00000000000E+00 0.  1.
         13    1    3    3    0    0 -0.63374907740E+02  0.70945405219E+02 -0.16512691366E+03  0.19056895620E+03  0.00000000000E+00 0. -1.
          1    1    1    2  501    0  0.11494631685E+03  0.11948492815E+03 -0.26894614608E+03  0.31594514287E+03  0.00000000000E+00 0. -1.
<scales pt_clust_5="13000.00000" pt_clust_6="13000.00000" pt_clust_7="13000.00000" pt_clust_8="13000.00000" pt_clust_9="169.06774"></scales>
<clustering>
<clus scale="   80.170">  5  6 -1 -1</clus>
<clus scale="   92.048">  7  8 -1 -1</clus>
<clus scale="  145.751">  2  7  1 -1</clus>
<clus scale="  169.068">  1  9  2 -1</clus>
<clus scale="  169.068">  1  5  2 -1</clus>
</clustering>
</event>
<event>
 9    2  0.1654290E-004  0.1046514E+03  0.7546771E-02  0.1276702E+00
         21   -1    0    0  501  502  0.00000000000E+00  0.00000000000E+00  0.11843752821E+03  0.11843752821E+03  0.00000000000E+00 0. -1.
         -1   -1    0    0    0  501 -0.00000000000E+00 -0.00000000000E+00 -0.17035026364E+03  0.17035026364E+03  0.00000000000E+00 0.  1.
         24    2    1    2    0    0 -0.18073771095E+02  0.23950002739E+02 -0.28522606631E+02  0.87332262891E+02  0.76896821910E+02 0.  0.
         23    2    1    2    0    0  0.28032944858E+02 -0.85129470577E+02 -0.46383575257E+02  0.13534341958E+03  0.90186098766E+02 0.  0.
        -13    1    3    3    0    0 -0.35039938537E+02 -0.10438576400E+02  0.43563663477E+01  0.36820362541E+02  0.00000000000E+00 0.  1.
         14    1    3    3    0    0  0.16966167442E+02  0.34388579138E+02 -0.32878972979E+02  0.50511900350E+02  0.00000000000E+00 0. -1.
        -11    1    4    4    0    0  0.14457924314E+02 -0.10138629920E+03 -0.49820150338E+02  0.11388705204E+03  0.00000000000E+00 0. -1.
         11    1    4    4    0    0  0.13575020544E+02  0.16256828626E+02  0.34365750803E+01  0.21456367540E+02  0.00000000000E+00 0.  1.
         -2    1    1    2    0  502 -0.99591737628E+01  0.61179467839E+02  0.22993446461E+02  0.66112109384E+02  0.00000000000E+00 0.  1.
<scales pt_clust_5="13000.00000" pt_clust_6="13000.00000" pt_clust_7="13000.00000" pt_clust_8="13000.00000" pt_clust_9="61.98478"></scales>
<clustering>
<clus scale="   61.985">  1  9  2 -1</clus>
<clus scale="   76.897">  5  6 -1 -1</clus>
<clus scale="   90.186">  7  8 -1 -1</clus>
<clus scale="   93.442">  2  5  1 -1</clus>
<clus scale="   61.985">  1  5  2 -1</clus>
</clustering>
</event>
<event>
 9    2  0.1654290E-004  0.1203643E+03  0.7546771E-02  0.1245402E+00
         21   -1    0    0  501  502  0.00000000000E+00  0.00000000000E+00  0.33464347414E+03  0.33464347414E+03  0.00000000000E+00 0. -1.
          2   -1    0    0  502    0 -0.00000000000E+00 -0.00000000000E+00 -0.17786914839E+03  0.17786914839E+03  0.00000000000E+00 0. -1.
         24    2    1    2    0    0 -0.20866916914E+02  0.77623005331E+02 -0.46987157078E+02  0.12337835342E+03  0.80954715637E+02 0.  0.
         23    2    1    2    0    0  0.55620757980E+02 -0.59944126005E+02  0.27897307465E+03  0.30441617313E+03  0.90312031998E+02 0.  0.
        -13    1    3    3    0    0 -0.47970911213E+02  0.71811166664E+02 -0.35388460885E+02  0.93329497716E+02  0.00000000000E+00 0.  1.
         14    1    3    3    0    0  0.27103994299E+02  0.58118386672E+01 -0.11598696193E+02  0.30048855702E+02  0.00000000000E+00 0. -1.
        -11    1    4    4    0    0  0.19581292606E+02 -0.78298332353E+02  0.17018368675E+03  0.18835217840E+03  0.00000000000E+00 0. -1.
         11    1    4    4    0    0  0.36039465374E+02  0.18354206349E+02  0.10878938789E+03  0.11606399473E+03  0.00000000000E+00 0.  1.
          1    1    1    2  501    0 -0.34753841066E+02 -0.17678879326E+02 -0.75211591821E+02  0.84718095985E+02  0.00000000000E+00 0. -1.
<scales pt_clust_5="13000.00000" pt_clust_6="13000.00000" pt_clust_7="13000.00000" pt_clust_8="13000.00000" pt_clust_9="38.99197"></scales>
<clustering>
<clus scale="   38.992">  1  9  2 -1</clus>
<clus scale="   80.955">  5  6 -1 -1</clus>
<clus scale="   90.312">  7  8 -1 -1</clus>
<clus scale="  113.512">  2  5  1 -1</clus>
<clus scale="   38.992">  1  5  2 -1</clus>
</clustering>
</event>
<event>
 9    2  0.1654290E-004  0.9500097E+02  0.7546771E-02  0.1296156E+00
         -1   -1    0    0    0  501 -0.00000000000E+00  0.00000000000E+00  0.27683211779E+03  0.27683211779E+03  0.00000000000E+00 0.  1.
         21   -1    0    0  501  502  0.00000000000E+00 -0.00000000000E+00 -0.11659056026E+03  0.11659056026E+03  0.00000000000E+00 0. -1.
         23    2    1    2    0    0  0.14983523962E+02  0.18788282892E+02  0.81911257015E+02  0.12358311355E+03  0.89363450942E+02 0.  0.
         24    2    1    2    0    0 -0.48275973955E+02 -0.49021292631E+02 -0.61905315672E+02  0.12256957384E+03  0.80357796944E+02 0.  0.
        -11    1    4    4    0    0 -0.29621164214E+02  0.17509089830E+02 -0.32984008933E+02  0.47664729532E+02  0.00000000000E+00 0.  1.
         12    1    4    4    0    0 -0.18654809741E+02 -0.66530382461E+02 -0.28921306739E+02  0.74904844305E+02  0.00000000000E+00 0. -1.
        -13    1    3    3    0    0 -0.62260957911E+01 -0.31942723538E+02  0.51014477271E+02  0.60510980384E+02  0.00000000000E+00 0.  1.
         13    1    3    3    0    0  0.21209619753E+02  0.50731006430E+02  0.30896779744E+02  0.63072133165E+02  0.00000000000E+00 0. -1.
         -2    1    1    2    0  502  0.33292449993E+02  0.30233009739E+02  0.14023561618E+03  0.14726999067E+03  0.00000000000E+00 0.  1.
<scales pt_clust_5="13000.00000" pt_clust_6="13000.00000" pt_clust_7="13000.00000" pt_clust_8="13000.00000" pt_clust_9="44.97137"></scales>
<clustering>
<clus scale="   44.971">  2  9  1 -1</clus>
<clus scale="   80.358">  5  6 -1 -1</clus>
<clus scale="   86.584">  2  5  1 -1</clus>
<clus scale="   89.363">  7  8 -1 -1</clus>
<clus scale="   44.971">  2  5  1 -1</clus>
</clustering>
</event>
<event>
 9    2  0.1654290E-004  0.1930380E+03  0.7546771E-02  0.1181610E+00
         -3   -1    0    0    0  501 -0.00000000000E+00  0.00000000000E+00  0.20203187386E+03  0.20203187386E+03  0.00000000000E+00 0.  1.
         21   -1    0    0  501  502  0.00000000000E+00 -0.00000000000E+00 -0.44467525104E+03  0.44467525104E+03  0.00000000000E+00 0. -1.
         24    2    1    2    0    0  0.21081794070E+02 -0.66717864837E+02 -0.22949580293E+03  0.25308249347E+03  0.80540110546E+02 0.  0.
         23    2    1    2    0    0  0.10458064069E+03 -0.74616703829E+02  0.86691136002E+02  0.17976889531E+03  0.91086441151E+02 0.  0.
        -13    1    3    3    0    0  0.36829180517E+02 -0.15228084052E+02 -0.41538905645E+02  0.57565299996E+02  0.00000000000E+00 0.  1.
         14    1    3    3    0    0 -0.15747386447E+02 -0.51489780785E+02 -0.18795689729E+03  0.19551719347E+03  0.00000000000E+00 0. -1.
        -11    1    4    4    0    0  0.57541288641E+02 -0.75524010679E+02  0.18200152218E+02  0.96675341366E+02  0.00000000000E+00 0. -1.
         11    1    4    4    0    0  0.47039352045E+02  0.90730685060E+00  0.68490983784E+02  0.83093553939E+02  0.00000000000E+00 0.  1.
         -4    1    1    2    0  502 -0.12566243476E+03  0.14133456867E+03 -0.99838710249E+02  0.21385573612E+03  0.00000000000E+00 0.  1.
<scales pt_clust_5="13000.00000" pt_clust_6="13000.00000" pt_clust_7="13000.00000" pt_clust_8="13000.00000" pt_clust_9="170.19670"></scales>
<clustering>
<clus scale="   80.540">  5  6 -1 -1</clus>
<clus scale="   91.086">  7  8 -1 -1</clus>
<clus scale="  106.689">  1  5  2 -1</clus>
<clus scale="  170.197">  2  9  1 -1</clus>
<clus scale="  170.197">  2  5  1 -1</clus>
</clustering>
</event>
<event>
 9    2  0.1654290E-004  0.1255193E+03  0.7546771E-02  0.1239107E+00
         21   -1    0    0  501  502  0.00000000000E+00  0.00000000000E+00  0.29911319073E+02  0.29911319073E+02  0.00000000000E+00 0. -1.
          2   -1    0    0  502    0 -0.00000000000E+00 -0.00000000000E+00 -0.20501056939E+04  0.20501056939E+04  0.00000000000E+00 0. -1.
         24    2    1    2    0    0 -0.85135088895E+02  0.50983002273E+02 -0.13667517387E+04  0.13723223753E+04  0.73560428735E+02 0.  0.
         23    2    1    2    0    0  0.77939636652E+02  0.54964932505E+02 -0.52388613572E+03  0.54017859001E+03  0.90777173043E+02 0.  0.
        -13    1    3    3    0    0 -0.32452064473E+02  0.74265505540E+01 -0.14990469228E+03  0.15355685237E+03  0.00000000000E+00 0.  1.
         14    1    3    3    0    0 -0.52683024422E+02  0.43556451719E+02 -0.12168470464E+04  0.12187655230E+04  0.00000000000E+00 0. -1.
        -13    1    4    4    0    0  0.59979230585E+01  0.52652643968E+02 -0.31023364001E+03  0.31472716342E+03  0.00000000000E+00 0. -1.
         13    1    4    4    0    0  0.71941713594E+02  0.23122885369E+01 -0.21365249570E+03  0.22545142659E+03  0.00000000000E+00 0.  1.
          1    1    1    2  501    0  0.71954522431E+01 -0.10594793478E+03 -0.12955650038E+03  0.16751604761E+03  0.00000000000E+00 0. -1.
<scales pt_clust_5="13000.00000" pt_clust_6="13000.00000" pt_clust_7="13000.00000" pt_clust_8="13000.00000" pt_clust_9="106.19199"></scales>
<clustering>
<clus scale="   73.560">  5  6 -1 -1</clus>
<clus scale="   90.777">  7  8 -1 -1</clus>
<clus scale="  106.192">  1  9  2 -1</clus>
<clus scale="  113.691">  2  5  1 -1</clus>
<clus scale="  106.192">  1  5  2 -1</clus>
</clustering>
</event>
<event>
 9    2  0.1654290E-004  0.1150462E+03  0.7546771E-02  0.1255223E+00
         21   -1    0    0  501  502  0.00000000000E+00  0.00000000000E+00  0.29794802738E+03  0.29794802738E+03  0.00000000000E+00 0.  1.
          4   -1    0    0  502    0 -0.00000000000E+00 -0.00000000000E+00 -0.10405032280E+03  0.10405032280E+03  0.00000000000E+00 0. -1.
         23    2    1    2    0    0  0.28911143833E+02  0.67167051843E+02 -0.52108358108E+02  0.12783253425E+03  0.90986860241E+02 0.  0.
         24    2    1    2    0    0 -0.12773740624E+02 -0.53072134995E+02  0.21981834743E+03  0.24032975685E+03  0.80364582994E+02 0.  0.
        -11    1    4    4    0    0  0.18721610241E+01 -0.37193691118E+02  0.21499463612E+03  0.21819617138E+03  0.00000000000E+00 0.  1.
         12    1    4    4    0    0 -0.14645901649E+02 -0.15878443877E+02  0.48237113126E+01  0.22133585473E+02  0.00000000000E+00 0. -1.
        -11    1    3    3    0    0 -0.44726710336E+01  0.65592059567E+02  0.21692427088E+00  0.65744734547E+02  0.00000000000E+00 0. -1.
         11    1    3    3    0    0  0.33383814866E+02  0.15749922751E+01 -0.52325282378E+02  0.62087799701E+02  0.00000000000E+00 0.  1.
          3    1    1    2  501    0 -0.16137403208E+02 -0.14094916848E+02  0.26187715261E+02  0.33836059077E+02  0.00000000000E+00 0. -1.
<scales pt_clust_5="13000.00000" pt_clust_6="13000.00000" pt_clust_7="13000.00000" pt_clust_8="13000.00000" pt_clust_9="21.42621"></scales>
<clustering>
<clus scale="   21.426">  1  9  2 -1</clus>
<clus scale="   80.365">  5  6 -1 -1</clus>
<clus scale="   90.987">  7  8 -1 -1</clus>
<clus scale="  106.843">  1  5  2 -1</clus>
<clus scale="   21.426">  1  5  2 -1</clus>
</clustering>
</event>
<event>
 9    2  0.1654290E-004  0.2975525E+03  0.7546771E-02  0.1124316E+00
          2   -1    0    0  502    0 -0.00000000000E+00  0.00000000000E+00  0.16440339748E+04  0.16440339748E+04  0.00000000000E+00 0. -1.
         21   -1    0    0  501  502  0.00000000000E+00 -0.00000000000E+00 -0.76657575707E+02  0.76657575707E+02  0.00000000000E+00 0. -1.
         24    2    1    2    0    0 -0.39689154815E+02 -0.60316507608E+02  0.13895492722E+03  0.17879643543E+03  0.86292429692E+02 0.  0.
         23    2    1    2    0    0  0.88058598858E+02 -0.23881253072E+03  0.67670206146E+03  0.73140152678E+03  0.11061994272E+03 0.  0.
        -11    1    3    3    0    0 -0.25296580740E+02 -0.44671801137E+02  0.15645648370E+02  0.53668176109E+02  0.00000000000E+00 0.  1.
         12    1    3    3    0    0 -0.14392574075E+02 -0.15644706472E+02  0.12330927885E+03  0.12512825932E+03  0.00000000000E+00 0. -1.
        -13    1    4    4    0    0  0.82498643848E+02 -0.70042993648E+02  0.28476507214E+03  0.30463616578E+03  0.00000000000E+00 0.  1.
         13    1    4    4    0    0  0.55599550103E+01 -0.16876953708E+03  0.39193698933E+03  0.42676536100E+03  0.00000000000E+00 0. -1.
          1    1    1    2  501    0 -0.48369444043E+02  0.29912903833E+03  0.75171941045E+03  0.81049358834E+03  0.00000000000E+00 0. -1.
<scales pt_clust_5="13000.00000" pt_clust_6="13000.00000" pt_clust_7="13000.00000" pt_clust_8="13000.00000" pt_clust_9="276.22593"></scales>
<clustering>
<clus scale="   86.292">  5  6 -1 -1</clus>
<clus scale="  110.620">  7  8 -1 -1</clus>
<clus scale="  112.515">  1  5  2 -1</clus>
<clus scale="  276.226">  2  9  1 -1</clus>
<clus scale="  276.226">  2  5  1 -1</clus>
</clustering>
</event>
<event>
 9    2  0.1654290E-004  0.9524936E+02  0.7546771E-02  0.1292638E+00
         21   -1    0    0  501  502  0.00000000000E+00  0.00000000000E+00  0.15461754455E+02  0.15461754455E+02  0.00000000000E+00 0. -1.
          2   -1    0    0  502    0 -0.00000000000E+00 -0.00000000000E+00 -0.76623391955E+03  0.76623391955E+03  0.00000000000E+00 0. -1.
         23    2    1    2    0    0  0.16491943926E+02 -0.30468588706E+02 -0.31296257826E+03  0.32612064981E+03  0.84904556563E+02 0.  0.
         24    2    1    2    0    0 -0.33597338612E+02  0.42455887449E+02 -0.28120384359E+03  0.29758246528E+03  0.80922422414E+02 0.  0.
        -13    1    4    4    0    0 -0.31402023197E+02 -0.11664021224E+02 -0.17700180371E+03  0.18014376194E+03  0.00000000000E+00 0.  1.
         14    1    4    4    0    0 -0.21953154152E+01  0.54119908673E+02 -0.10420203988E+03  0.11743870333E+03  0.00000000000E+00 0. -1.
        -11    1    3    3    0    0 -0.19685128569E+02 -0.42438341903E+02 -0.10878206134E+03  0.11841475423E+03  0.00000000000E+00 0. -1.
         11    1    3    3    0    0  0.36177072495E+02  0.11969753197E+02 -0.20418051693E+03  0.20770589558E+03  0.00000000000E+00 0.  1.
          1    1    1    2  501    0  0.17105394686E+02 -0.11987298743E+02 -0.15660574324E+03  0.15799255892E+03  0.00000000000E+00 0. -1.
<scales pt_clust_5="13000.00000" pt_clust_6="13000.00000" pt_clust_7="13000.00000" pt_clust_8="13000.00000" pt_clust_9="20.88756"></scales>
<clustering>
<clus scale="   20.888">  1  9  2 -1</clus>
<clus scale="   80.922">  5  6 -1 -1</clus>
<clus scale="   84.905">  7  8 -1 -1</clus>
<clus scale="   91.717">  1  5  2 -1</clus>
<clus scale="   20.888">  1  5  2 -1</clus>
</clustering>
</event>
<event>
 9    2  0.1654290E-004  0.2416384E+03  0.7546771E-02  0.1162637E+00
         21   -1    0    0  501  502  0.00000000000E+00  0.00000000000E+00  0.24291158334E+03  0.24291158334E+03  0.00000000000E+00 0. -1.
          2   -1    0    0  502    0 -0.00000000000E+00 -0.00000000000E+00 -0.74468800299E+03  0.74468800299E+03  0.00000000000E+00 0. -1.
         23    2    1    2    0    0 -0.43446337436E+02 -0.31181957052E+01 -0.22382382846E+02  0.86755847183E+02  0.71612139875E+02 0.  0.
         24    2    1    2    0    0  0.99610806984E+02 -0.21603224105E+03 -0.59549211896E+03  0.64656018433E+03  0.82685949098E+02 0.  0.
        -11    1    4    4    0    0  0.29189571865E+02 -0.11642226128E+02 -0.42839123777E+02  0.53129681543E+02  0.00000000000E+00 0.  1.
         12    1    4    4    0    0  0.70421235119E+02 -0.20439001492E+03 -0.55265299518E+03  0.59343050278E+03  0.00000000000E+00 0. -1.
        -13    1    3    3    0    0 -0.26440127450E+02 -0.17031575908E+02  0.21213132452E+02  0.37936155655E+02  0.00000000000E+00 0.  1.
         13    1    3    3    0    0 -0.17006209986E+02  0.13913380203E+02 -0.43595515298E+02  0.48819691528E+02  0.00000000000E+00 0. -1.
          1    1    1    2  501    0 -0.56164469548E+02  0.21915043675E+03  0.11609808215E+03  0.25428355481E+03  0.00000000000E+00 0. -1.
<scales pt_clust_5="13000.00000" pt_clust_6="13000.00000" pt_clust_7="13000.00000" pt_clust_8="13000.00000" pt_clust_9="227.05098"></scales>
<clustering>
<clus scale="   71.612">  7  8 -1 -1</clus>
<clus scale="   82.686">  5  6 -1 -1</clus>
<clus scale="   83.819">  2  7  1 -1</clus>
<clus scale="  227.051">  1  9  2 -1</clus>
<clus scale="  227.051">  1  5  2 -1</clus>
</clustering>
</event>
<event>
 9    2  0.1654290E-004  0.2247088E+03  0.7546771E-02  0.1153421E+00
         -1   -1    0    0    0  501 -0.00000000000E+00  0.00000000000E+00  0.94126083956E+02  0.94126083956E+02  0.00000000000E+00 0.  1.
         21   -1    0    0  501  502  0.00000000000E+00 -0.00000000000E+00 -0.10789056464E+04  0.10789056464E+04  0.00000000000E+00 0. -1.
         24    2    1    2    0    0  0.62499485012E+02  0.80271495407E+02 -0.13751920221E+03  0.18873341381E+03  0.79743789156E+02 0.  0.
         23    2    1    2    0    0  0.11983768652E+03 -0.17715274504E+03 -0.68111418467E+03  0.71927497359E+03  0.87725645625E+02 0.  0.
        -11    1    3    3    0    0  0.53891292253E+02  0.55210029633E+02 -0.38489749911E+02  0.86219948973E+02  0.00000000000E+00 0.  1.
         12    1    3    3    0    0  0.86081927590E+01  0.25061465774E+02 -0.99029452302E+02  0.10251346484E+03  0.00000000000E+00 0. -1.
        -11    1    4    4    0    0  0.67054681161E+01 -0.44559843462E+02 -0.25399100723E+03  0.25795731179E+03  0.00000000000E+00 0.  1.
         11    1    4    4    0    0  0.11313221841E+03 -0.13259290158E+03 -0.42712317744E+03  0.46131766181E+03  0.00000000000E+00 0. -1.
         -2    1    1    2    0  502 -0.18233717154E+03  0.96881249632E+02 -0.16614617556E+03  0.26502334295E+03  0.00000000000E+00 0.  1.
<scales pt_clust_5="13000.00000" pt_clust_6="13000.00000" pt_clust_7="13000.00000" pt_clust_8="13000.00000" pt_clust_9="206.87749"></scales>
<clustering>
<clus scale="   79.744">  5  6 -1 -1</clus>
<clus scale="   87.726">  7  8 -1 -1</clus>
<clus scale="  129.262">  1  5  2 -1</clus>
<clus scale="  206.877">  2  9  1 -1</clus>
<clus scale="  206.877">  2  5  1 -1</clus>
</clustering>
</event>
<event>
 9    2  0.1654290E-004  0.2103107E+03  0.7546771E-02  0.1181622E+00
          2   -1    0    0  502    0 -0.00000000000E+00  0.00000000000E+00  0.12999256783E+04  0.12999256783E+04  0.00000000000E+00 0. -1.
         21   -1    0    0  501  502  0.00000000000E+00 -0.00000000000E+00 -0.54726490569E+02  0.54726490569E+02  0.00000000000E+00 0.  1.
         24    2    1    2    0    0 -0.20285396426E+02 -0.88970469836E+01  0.51777499940E+03  0.52430333939E+03  0.79450531373E+02 0.  0.
         23    2    1    2    0    0  0.20004911199E+03  0.14152036365E+02  0.38760410221E+03  0.44587477408E+03  0.91364362662E+02 0.  0.
        -11    1    3    3    0    0  0.13905789846E+02 -0.34526497937E+02  0.17786010488E+03  0.18171314471E+03  0.00000000000E+00 0.  1.
         12    1    3    3    0    0 -0.34191186272E+02  0.25629450954E+02  0.33991489452E+03  0.34259019468E+03  0.00000000000E+00 0. -1.
        -13    1    4    4    0    0  0.14308486359E+03 -0.19841531735E+02  0.19868414333E+03  0.24564680617E+03  0.00000000000E+00 0.  1.
         13    1    4    4    0    0  0.56964248398E+02  0.33993568100E+02  0.18891995889E+03  0.20022796791E+03  0.00000000000E+00 0. -1.
          1    1    1    2  501    0 -0.17976371556E+03 -0.52549893810E+01  0.33982008607E+03  0.38447405536E+03  0.00000000000E+00 0. -1.
<scales pt_clust_5="13000.00000" pt_clust_6="13000.00000" pt_clust_7="13000.00000" pt_clust_8="13000.00000" pt_clust_9="189.42847"></scales>
<clustering>
<clus scale="   79.451">  5  6 -1 -1</clus>
<clus scale="   82.481">  1  5  2 -1</clus>
<clus scale="   91.364">  7  8 -1 -1</clus>
<clus scale="  189.428">  2  9  1 -1</clus>
<clus scale="  189.428">  2  5  1 -1</clus>
</clustering>
</event>
<event>
 9    2  0.1654290E-004  0.1734966E+03  0.7546771E-02  0.1199819E+00
          2   -1    0    0  502    0 -0.00000000000E+00  0.00000000000E+00  0.10143356961E+04  0.10143356961E+04  0.00000000000E+00 0. -1.
         21   -1    0    0  501  502  0.00000000000E+00 -0.00000000000E+00 -0.69050571327E+02  0.69050571327E+02  0.00000000000E+00 0. -1.
         24    2    1    2    0    0  0.64523954133E+01  0.56403686303E+02  0.40659149769E+03  0.41831116867E+03  0.80278132802E+02 0.  0.
         23    2    1    2    0    0  0.44302336664E+02  0.91137503271E+02  0.47798748572E+03  0.49765442781E+03  0.94441259427E+02 0.  0.
        -11    1    3    3    0    0 -0.34490892484E+02  0.40314690763E+02  0.18833388413E+03  0.19566437557E+03  0.00000000000E+00 0.  1.
         12    1    3    3    0    0  0.40943287898E+02  0.16088995541E+02  0.21825761357E+03  0.22264679311E+03  0.00000000000E+00 0. -1.
        -11    1    4    4    0    0  0.46949222914E+02  0.84813637695E+01  0.10097735344E+03  0.11168074575E+03  0.00000000000E+00 0.  1.
         11    1    4    4    0    0 -0.26468862506E+01  0.82656139502E+02  0.37701013228E+03  0.38597368207E+03  0.00000000000E+00 0. -1.
          1    1    1    2  501    0 -0.50754732077E+02 -0.14754118957E+03  0.60706141316E+02  0.16742067089E+03  0.00000000000E+00 0. -1.
<scales pt_clust_5="13000.00000" pt_clust_6="13000.00000" pt_clust_7="13000.00000" pt_clust_8="13000.00000" pt_clust_9="145.54006"></scales>
<clustering>
<clus scale="   80.278">  5  6 -1 -1</clus>
<clus scale="   94.441">  7  8 -1 -1</clus>
<clus scale="   98.324">  1  5  2 -1</clus>
<clus scale="  145.540">  2  9  1 -1</clus>
<clus scale="  145.540">  2  5  1 -1</clus>
</clustering>
</event>
<event>
 9    2  0.1654290E-004  0.1492347E+03  0.7546771E-02  0.1211032E+00
         -1   -1    0    0    0  501 -0.00000000000E+00  0.00000000000E+00  0.99450131517E+03  0.99450131517E+03  0.00000000000E+00 0.  1.
         21   -1    0    0  501  502  0.00000000000E+00 -0.00000000000E+00 -0.74223346366E+02  0.74223346366E+02  0.00000000000E+00 0.  1.
         23    2    1    2    0    0 -0.81582312639E+02  0.46131733493E+01  0.38759030676E+02  0.12741293751E+03  0.89748755323E+02 0.  0.
         24    2    1    2    0    0 -0.48873850672E+02 -0.10003160856E+03  0.22750405871E+03  0.26762117873E+03  0.86417721469E+02 0.  0.
        -13    1    4    4    0    0 -0.61459015869E+02 -0.10490004308E+03  0.17284536229E+03  0.21132143511E+03  0.00000000000E+00 0.  1.
         14    1    4    4    0    0  0.12585165197E+02  0.48684345199E+01  0.54658696420E+02  0.56299743623E+02  0.00000000000E+00 0. -1.
        -13    1    3    3    0    0 -0.32344914971E+02  0.45643527666E+02  0.86727943890E+01  0.56610445192E+02  0.00000000000E+00 0.  1.
         13    1    3    3    0    0 -0.49237397668E+02 -0.41030354317E+02  0.30086236287E+02  0.70802492318E+02  0.00000000000E+00 0. -1.
         -2    1    1    2    0  502  0.13045616331E+03  0.95418435210E+02  0.65401487942E+03  0.67369054530E+03  0.00000000000E+00 0.  1.
<scales pt_clust_5="13000.00000" pt_clust_6="13000.00000" pt_clust_7="13000.00000" pt_clust_8="13000.00000" pt_clust_9="121.66754"></scales>
<clustering>
<clus scale="   86.418">  5  6 -1 -1</clus>
<clus scale="   89.749">  7  8 -1 -1</clus>
<clus scale="  121.375">  1  7  2 -1</clus>
<clus scale="  121.668">  2  9  1 -1</clus>
<clus scale="  121.668">  2  5  1 -1</clus>
</clustering>
</event>
<event>
 9    2  0.1654290E-004  0.1725306E+03  0.7546771E-02  0.1196854E+00
          2   -1    0    0  502    0 -0.00000000000E+00  0.00000000000E+00  0.80375112439E+03  0.80375112439E+03  0.00000000000E+00 0. -1.
         21   -1    0    0  501  502  0.00000000000E+00 -0.00000000000E+00 -0.16508260363E+03  0.16508260363E+03  0.00000000000E+00 0.  1.
         23    2    1    2    0    0  0.30547452487E+02 -0.45756123937E+02  0.58006383870E+03  0.58978740386E+03  0.91369333251E+02 0.  0.
         24    2    1    2    0    0 -0.32483793680E+02  0.17640948756E+03  0.11599118756E+03  0.23633240802E+03  0.10111155886E+03 0.  0.
        -11    1    4    4    0    0 -0.17650277435E+02  0.18578851797E+03  0.11395293436E+03  0.21866453062E+03  0.00000000000E+00 0.  1.
         12    1    4    4    0    0 -0.14833516245E+02 -0.93790304083E+01  0.20382532014E+01  0.17667877397E+02  0.00000000000E+00 0. -1.
        -13    1    3    3    0    0  0.33126606420E+02  0.21406452902E+02  0.21571468921E+03  0.21929075543E+03  0.00000000000E+00 0.  1.
         13    1    3    3    0    0 -0.25791539327E+01 -0.67162576840E+02  0.36434914949E+03  0.37049664843E+03  0.00000000000E+00 0. -1.
          1    1    1    2  501    0  0.19363411930E+01 -0.13065336363E+03 -0.57386505502E+02  0.14271391613E+03  0.00000000000E+00 0. -1.
<scales pt_clust_5="13000.00000" pt_clust_6="13000.00000" pt_clust_7="13000.00000" pt_clust_8="13000.00000" pt_clust_9="139.79723"></scales>
<clustering>
<clus scale="   91.369">  7  8 -1 -1</clus>
<clus scale="  101.112">  5  6 -1 -1</clus>
<clus scale="  106.654">  1  7  2 -1</clus>
<clus scale="  139.797">  2  9  1 -1</clus>
<clus scale="  139.797">  2  5  1 -1</clus>
</clustering>
</event>
<event>
 9    2  0.1654290E-004  0.1171531E+03  0.7546771E-02  0.1251178E+00
          4   -1    0    0  502    0 -0.00000000000E+00  0.00000000000E+00  0.35921487095E+02  0.35921487095E+02  0.00000000000E+00 0. -1.
         21   -1    0    0  501  502  0.00000000000E+00 -0.00000000000E+00 -0.49457510135E+03  0.49457510135E+03  0.00000000000E+00 0. -1.
         23    2    1    2    0    0 -0.62525457166E+02  0.21926369509E+02 -0.17228333618E+03  0.20520110267E+03  0.89642323357E+02 0.  0.
         24    2    1    2    0    0  0.75927630392E+02 -0.47914950521E+02 -0.25809402081E+03  0.28461906368E+03  0.79590453507E+02 0.  0.
        -13    1    4    4    0    0  0.52927718548E+02 -0.51373892315E+01 -0.57883875799E+02  0.78602030739E+02  0.00000000000E+00 0.  1.
         14    1    4    4    0    0  0.22999911844E+02 -0.42777561290E+02 -0.20021014501E+03  0.20601703294E+03  0.00000000000E+00 0. -1.
        -13    1    3    3    0    0  0.15029536408E+02  0.16616082266E+02 -0.86853810461E+02  0.89697076575E+02  0.00000000000E+00 0.  1.
         13    1    3    3    0    0 -0.77554993574E+02  0.53102872429E+01 -0.85429525717E+02  0.11550402609E+03  0.00000000000E+00 0. -1.
          3    1    1    2  501    0 -0.13402173226E+02  0.25988581013E+02 -0.28276257272E+02  0.40676422109E+02  0.00000000000E+00 0. -1.
<scales pt_clust_5="13000.00000" pt_clust_6="13000.00000" pt_clust_7="13000.00000" pt_clust_8="13000.00000" pt_clust_9="29.24082"></scales>
<clustering>
<clus scale="   29.241">  2  9  1 -1</clus>
<clus scale="   79.590">  5  6 -1 -1</clus>
<clus scale="   89.642">  7  8 -1 -1</clus>
<clus scale="  109.653">  2  5  1 -1</clus>
<clus scale="   29.241">  2  5  1 -1</clus>
</clustering>
</event>
<event>
 9    2  0.1654290E-004  0.1052268E+03  0.7546771E-02  0.1274661E+00
         -3   -1    0    0    0  501 -0.00000000000E+00  0.00000000000E+00  0.15773085287E+03  0.15773085287E+03  0.00000000000E+00 0.  1.
         21   -1    0    0  501  502  0.00000000000E+00 -0.00000000000E+00 -0.21061930960E+03  0.21061930960E+03  0.00000000000E+00 0.  1.
         24    2    1    2    0    0 -0.55522824734E+02  0.56644389839E-01  0.11150841646E+03  0.14798944049E+03  0.79899688866E+02 0.  0.
         23    2    1    2    0    0  0.37154798383E+02  0.85227243817E+01 -0.63614911156E+02  0.11755997378E+03  0.91216087618E+02 0.  0.
        -11    1    3    3    0    0 -0.18054958517E+02  0.30192115696E+02  0.11480175175E+02  0.37004591598E+02  0.00000000000E+00 0.  1.
         12    1    3    3    0    0 -0.37467866218E+02 -0.30135471306E+02  0.10002824128E+03  0.11098484889E+03  0.00000000000E+00 0. -1.
        -11    1    4    4    0    0  0.22272758234E+02  0.50018589815E+02 -0.33958436867E+02  0.64429112371E+02  0.00000000000E+00 0.  1.
         11    1    4    4    0    0  0.14882040149E+02 -0.41495865433E+02 -0.29656474289E+02  0.53130861411E+02  0.00000000000E+00 0. -1.
         -4    1    1    2    0  502  0.18368026351E+02 -0.85793687715E+01 -0.10078196203E+03  0.10280074820E+03  0.00000000000E+00 0.  1.
<scales pt_clust_5="13000.00000" pt_clust_6="13000.00000" pt_clust_7="13000.00000" pt_clust_8="13000.00000" pt_clust_9="20.27289"></scales>
<clustering>
<clus scale="   20.273">  2  9  1 -1</clus>
<clus scale="   79.900">  5  6 -1 -1</clus>
<clus scale="   91.216">  7  8 -1 -1</clus>
<clus scale="   95.584">  1  5  2 -1</clus>
<clus scale="   20.273">  2  5  1 -1</clus>
</clustering>
</event>
<event>
 9    2  0.1654290E-004  0.2209746E+03  0.7546771E-02  0.1134040E+00
          2   -1    0    0  502    0 -0.00000000000E+00  0.00000000000E+00  0.13524394573E+04  0.13524394573E+04  0.00000000000E+00 0. -1.
         21   -1    0    0  501  502  0.00000000000E+00 -0.00000000000E+00 -0.51134685934E+02  0.51134685934E+02  0.00000000000E+00 0. -1.
         23    2    1    2    0    0  0.13005407375E+03 -0.18405292745E+03  0.84138876969E+03  0.87570605882E+03  0.90202535986E+02 0.  0.
         24    2    1    2    0    0 -0.91671051178E+02  0.13277387595E+03  0.24454895208E+03  0.30317771169E+03  0.77974682688E+02 0.  0.
        -13    1    4    4    0    0 -0.88112457451E+02  0.13238627188E+03  0.25021532110E+03  0.29647535657E+03  0.00000000000E+00 0.  1.
         14    1    4    4    0    0 -0.35585937262E+01  0.38760406441E+00 -0.56663690181E+01  0.67023551135E+01  0.00000000000E+00 0. -1.
        -13    1    3    3    0    0 -0.64147732530E+01 -0.52446906008E+02  0.20258991767E+03  0.20936690762E+03  0.00000000000E+00 0. -1.
         13    1    3    3    0    0  0.13646884700E+03 -0.13160602144E+03  0.63879885202E+03  0.66633915120E+03  0.00000000000E+00 0.  1.
          1    1    1    2  501    0 -0.38383022573E+02  0.51279051502E+02  0.21536704964E+03  0.22469037276E+03  0.00000000000E+00 0. -1.
<scales pt_clust_5="13000.00000" pt_clust_6="13000.00000" pt_clust_7="13000.00000" pt_clust_8="13000.00000" pt_clust_9="64.05312"></scales>
<clustering>
<clus scale="   64.053">  2  9  1 -1</clus>
<clus scale="   77.975">  5  6 -1 -1</clus>
<clus scale="   90.203">  7  8 -1 -1</clus>
<clus scale="  216.271">  2  5  1 -1</clus>
<clus scale="   64.053">  2  5  1 -1</clus>
</clustering>
</event>
<event>
 9    2  0.1654290E-004  0.2283932E+03  0.7546771E-02  0.1128478E+00
         21   -1    0    0  501  502  0.00000000000E+00  0.00000000000E+00  0.15894096762E+03  0.15894096762E+03  0.00000000000E+00 0. -1.
          2   -1    0    0  502    0 -0.00000000000E+00 -0.00000000000E+00 -0.94894047172E+03  0.94894047172E+03  0.00000000000E+00 0. -1.
         23    2    1    2    0    0 -0.71386898426E+01  0.20501780812E+03 -0.75091523890E+03  0.78375262139E+03  0.91165854265E+02 0.  0.
         24    2    1    2    0    0 -0.42298009161E+02 -0.24166536965E+03 -0.17489041498E+02  0.25891083989E+03  0.80855945801E+02 0.  0.
        -11    1    4    4    0    0  0.53951721715E+01 -0.24436950283E+02  0.21650112107E+02  0.33090780833E+02  0.00000000000E+00 0.  1.
         12    1    4    4    0    0 -0.47693181333E+02 -0.21722841937E+03 -0.39139153605E+02  0.22582005906E+03  0.00000000000E+00 0. -1.
        -11    1    3    3    0    0  0.25361055757E+02  0.18916775018E+02 -0.16910956429E+03  0.17204380913E+03  0.00000000000E+00 0.  1.
         11    1    3    3    0    0 -0.32499745599E+02  0.18610103310E+03 -0.58180567461E+03  0.61170881226E+03  0.00000000000E+00 0. -1.
          1    1    1    2  501    0  0.49436699004E+02  0.36647561532E+02 -0.21595223701E+02  0.65217978053E+02  0.00000000000E+00 0. -1.
<scales pt_clust_5="13000.00000" pt_clust_6="13000.00000" pt_clust_7="13000.00000" pt_clust_8="13000.00000" pt_clust_9="61.53886"></scales>
<clustering>
<clus scale="   61.539">  1  9  2 -1</clus>
<clus scale="   80.856">  5  6 -1 -1</clus>
<clus scale="   91.166">  7  8 -1 -1</clus>
<clus scale="  224.477">  1  5  2 -1</clus>
<clus scale="   61.539">  1  5  2 -1</clus>
</clustering>
</event>
<event>
 9    2  0.1654290E-004  0.1810321E+03  0.7546771E-02  0.1170418E+00
          2   -1    0    0  502    0 -0.00000000000E+00  0.00000000000E+00  0.28243076332E+03  0.28243076332E+03  0.00000000000E+00 0. -1.
         21   -1    0    0  501  502  0.00000000000E+00 -0.00000000000E+00 -0.47617235915E+03  0.47617235915E+03  0.00000000000E+00 0. -1.
         23    2    1    2    0    0  0.39602103890E+02  0.13395340107E+03 -0.32756388940E+02  0.16983735074E+03  0.90884016197E+02 0.  0.
         24    2    1    2    0    0  0.12601174667E+03 -0.11143730771E+03  0.14750841125E+03  0.23790506662E+03  0.80887919275E+02 0.  0.
        -13    1    4    4    0    0  0.73949571003E+02 -0.20033064550E+02  0.36136986916E+02  0.84709766557E+02  0.00000000000E+00 0.  1.
         14    1    4    4    0    0  0.52062175671E+02 -0.91404243162E+02  0.11137142433E+03  0.15319530006E+03  0.00000000000E+00 0. -1.
        -11    1    3    3    0    0  0.65369427012E+02  0.73901103689E+02 -0.34346086028E+02  0.10447099473E+03  0.00000000000E+00 0. -1.
         11    1    3    3    0    0 -0.25767323122E+02  0.60052297378E+02  0.15896970884E+01  0.65366356010E+02  0.00000000000E+00 0.  1.
          1    1    1    2  501    0 -0.16561385056E+03 -0.22516093355E+02 -0.30849361814E+03  0.35086070511E+03  0.00000000000E+00 0. -1.
<scales pt_clust_5="13000.00000" pt_clust_6="13000.00000" pt_clust_7="13000.00000" pt_clust_8="13000.00000" pt_clust_9="161.95602"></scales>
<clustering>
<clus scale="   80.888">  5  6 -1 -1</clus>
<clus scale="   90.884">  7  8 -1 -1</clus>
<clus scale="  166.649">  1  7  2 -1</clus>
<clus scale="  161.956">  2  9  1 -1</clus>
<clus scale="  161.956">  2  5  1 -1</clus>
</clustering>
</event>
<event>
 9    2  0.1654290E-004  0.1457107E+03  0.7546771E-02  0.1207880E+00
         21   -1    0    0  501  502  0.00000000000E+00  0.00000000000E+00  0.42143283716E+02  0.42143283716E+02  0.00000000000E+00 0. -1.
          2   -1    0    0  502    0 -0.00000000000E+00 -0.00000000000E+00 -0.12156020575E+04  0.12156020575E+04  0.00000000000E+00 0. -1.
         24    2    1    2    0    0 -0.10990897244E+03  0.50247768066E+02 -0.10062728561E+04  0.10166366141E+04  0.79750384045E+02 0.  0.
         23    2    1    2    0    0  0.69798831130E+02 -0.28818370688E+02 -0.78444727582E+02  0.14139392718E+03  0.90201397120E+02 0.  0.
        -13    1    3    3    0    0 -0.53901518496E+02 -0.92578473808E+01 -0.24719124296E+03  0.25316909770E+03  0.00000000000E+00 0.  1.
         14    1    3    3    0    0 -0.56007453945E+02  0.59505615447E+02 -0.75908161311E+03  0.76346751636E+03  0.00000000000E+00 0. -1.
        -11    1    4    4    0    0  0.21816025224E+02  0.19681986762E+02 -0.65724639275E+02  0.71993386969E+02  0.00000000000E+00 0.  1.
         11    1    4    4    0    0  0.47982805907E+02 -0.48500357450E+02 -0.12720088308E+02  0.69400540214E+02  0.00000000000E+00 0. -1.
          1    1    1    2  501    0  0.40110141310E+02 -0.21429397379E+02 -0.88741190097E+02  0.99714799943E+02  0.00000000000E+00 0. -1.
<scales pt_clust_5="13000.00000" pt_clust_6="13000.00000" pt_clust_7="13000.00000" pt_clust_8="13000.00000" pt_clust_9="45.47574"></scales>
<clustering>
<clus scale="   45.476">  1  9  2 -1</clus>
<clus scale="   79.750">  5  6 -1 -1</clus>
<clus scale="   90.201">  7  8 -1 -1</clus>
<clus scale="  139.483">  2  5  1 -1</clus>
<clus scale="   45.476">  1  5  2 -1</clus>
</clustering>
</event>
<event>
 9    2  0.1654290E-004  0.1212337E+03  0.7546771E-02  0.1244725E+00
         21   -1    0    0  501  502  0.00000000000E+00  0.00000000000E+00  0.68722640738E+02  0.68722640738E+02  0.00000000000E+00 0.  1.
          2   -1    0    0  502    0 -0.00000000000E+00 -0.00000000000E+00 -0.28920072726E+03  0.28920072726E+03  0.00000000000E+00 0. -1.
         23    2    1    2    0    0 -0.78782582875E+02  0.11575597338E+02 -0.13368921513E+03  0.18071458191E+03  0.91892676837E+02 0.  0.
         24    2    1    2    0    0  0.69355052201E+02 -0.44563460416E+02 -0.84724108234E+02  0.14283814902E+03  0.80178158064E+02 0.  0.
        -13    1    4    4    0    0 -0.93130138674E+01 -0.23487757216E+02  0.70753345842E-01  0.25266815636E+02  0.00000000000E+00 0.  1.
         14    1    4    4    0    0  0.78668066068E+02 -0.21075703200E+02 -0.84794861580E+02  0.11757133339E+03  0.00000000000E+00 0. -1.
        -11    1    3    3    0    0 -0.22483564882E+02 -0.39460216399E+02 -0.45190402027E+02  0.64068649147E+02  0.00000000000E+00 0.  1.
         11    1    3    3    0    0 -0.56299017992E+02  0.51035813737E+02 -0.88498813102E+02  0.11664593277E+03  0.00000000000E+00 0. -1.
          1    1    1    2  501    0  0.94275306741E+01  0.32987863078E+02 -0.20647631587E+01  0.34370637061E+02  0.00000000000E+00 0. -1.
<scales pt_clust_5="13000.00000" pt_clust_6="13000.00000" pt_clust_7="13000.00000" pt_clust_8="13000.00000" pt_clust_9="34.30856"></scales>
<clustering>
<clus scale="   34.309">  1  9  2 -1</clus>
<clus scale="   80.178">  5  6 -1 -1</clus>
<clus scale="   91.893">  7  8 -1 -1</clus>
<clus scale="  112.614">  1  5  2 -1</clus>
<clus scale="   34.309">  1  5  2 -1</clus>
</clustering>
</event>
<event>
 9    2  0.1654290E-004  0.2558980E+03  0.7546771E-02  0.1143690E+00
         21   -1    0    0  501  502  0.00000000000E+00  0.00000000000E+00  0.63210845814E+03  0.63210845814E+03  0.00000000000E+00 0. -1.
          2   -1    0    0  502    0 -0.00000000000E+00 -0.00000000000E+00 -0.40702999175E+03  0.40702999175E+03  0.00000000000E+00 0. -1.
         24    2    1    2    0    0  0.73424872654E+02  0.17835689855E+02 -0.49519059793E+02  0.12089486421E+03  0.80337457964E+02 0.  0.
         23    2    1    2    0    0  0.10444990723E+03 -0.21294913057E+03  0.50652955089E+03  0.56681627293E+03  0.91931420081E+02 0.  0.
        -13    1    3    3    0    0  0.59393196638E+02 -0.21305372294E+02 -0.48010530938E+02  0.79287336797E+02  0.00000000000E+00 0.  1.
         14    1    3    3    0    0  0.14031676016E+02  0.39141062149E+02 -0.15085288558E+01  0.41607527411E+02  0.00000000000E+00 0. -1.
        -13    1    4    4    0    0  0.66634073287E+02 -0.81633944182E+02  0.13706503652E+03  0.17289021025E+03  0.00000000000E+00 0.  1.
         13    1    4    4    0    0  0.37815833941E+02 -0.13131518639E+03  0.36946451438E+03  0.39392606268E+03  0.00000000000E+00 0. -1.
          1    1    1    2  501    0 -0.17787477988E+03  0.19511344071E+03 -0.23193202471E+03  0.35142731276E+03  0.00000000000E+00 0. -1.
<scales pt_clust_5="13000.00000" pt_clust_6="13000.00000" pt_clust_7="13000.00000" pt_clust_8="13000.00000" pt_clust_9="238.81464"></scales>
<clustering>
<clus scale="   80.337">  5  6 -1 -1</clus>
<clus scale="   91.931">  7  8 -1 -1</clus>
<clus scale="  110.288">  2  5  1 -1</clus>
<clus scale="  238.815">  1  9  2 -1</clus>
<clus scale="  238.815">  1  5  2 -1</clus>
</clustering>
</event>
<event>
 9    2  0.1654290E-004  0.1257565E+03  0.7546771E-02  0.1237759E+00
          2   -1    0    0  502    0 -0.00000000000E+00  0.00000000000E+00  0.37803682215E+03  0.37803682215E+03  0.00000000000E+00 0. -1.
         21   -1    0    0  501  502  0.00000000000E+00 -0.00000000000E+00 -0.16817211051E+03  0.16817211051E+03  0.00000000000E+00 0. -1.
         23    2    1    2    0    0 -0.82831190355E+02 -0.16198649921E+02  0.29658932600E+03  0.32208674441E+03  0.93012043703E+02 0.  0.
         24    2    1    2    0    0  0.93988985125E+02 -0.50036432210E+02 -0.30200635983E+02  0.13633527226E+03  0.79609384961E+02 0.  0.
        -13    1    4    4    0    0  0.10872496968E+02 -0.29822074317E+02  0.19647844339E+02  0.37331020533E+02  0.00000000000E+00 0.  1.
         14    1    4    4    0    0  0.83116488158E+02 -0.20214357894E+02 -0.49848480322E+02  0.99004251722E+02  0.00000000000E+00 0. -1.
        -13    1    3    3    0    0 -0.95798392602E+01 -0.44816589518E+02  0.89138423089E+02  0.10022952902E+03  0.00000000000E+00 0. -1.
         13    1    3    3    0    0 -0.73251351095E+02  0.28617939597E+02  0.20745090291E+03  0.22185721539E+03  0.00000000000E+00 0.  1.
          1    1    1    2  501    0 -0.11157794770E+02  0.66235082132E+02 -0.56523978373E+02  0.87786915997E+02  0.00000000000E+00 0. -1.
<scales pt_clust_5="13000.00000" pt_clust_6="13000.00000" pt_clust_7="13000.00000" pt_clust_8="13000.00000" pt_clust_9="67.16831"></scales>
<clustering>
<clus scale="   67.168">  2  9  1 -1</clus>
<clus scale="   79.609">  5  6 -1 -1</clus>
<clus scale="   93.012">  7  8 -1 -1</clus>
<clus scale="  116.194">  2  5  1 -1</clus>
<clus scale="   67.168">  2  5  1 -1</clus>
</clustering>
</event>
<event>
 9    2  0.1654290E-004  0.1002279E+03  0.7546771E-02  0.1285389E+00
         -3   -1    0    0    0  501 -0.00000000000E+00  0.00000000000E+00  0.29934242663E+03  0.29934242663E+03  0.00000000000E+00 0.  1.
         21   -1    0    0  501  502  0.00000000000E+00 -0.00000000000E+00 -0.70886850420E+02  0.70886850420E+02  0.00000000000E+00 0.  1.
         24    2    1    2    0    0 -0.17650110698E+02 -0.50447950548E+02  0.17166360253E+03  0.19701093977E+03  0.80550579349E+02 0.  0.
         23    2    1    2    0    0 -0.64502954489E+01 -0.37209178501E+01  0.12320503710E+01  0.91965639120E+02  0.91655383309E+02 0.  0.
        -11    1    3    3    0    0 -0.35423127711E+02 -0.46782049438E+02  0.60155981156E+02  0.84036302842E+02  0.00000000000E+00 0.  1.
         12    1    3    3    0    0  0.17773017013E+02 -0.36659011104E+01  0.11150762138E+03  0.11297463693E+03  0.00000000000E+00 0. -1.
        -11    1    4    4    0    0 -0.10334322845E+00 -0.25039636699E+02 -0.38794554819E+02  0.46173710804E+02  0.00000000000E+00 0.  1.
         11    1    4    4    0    0 -0.63469522205E+01  0.21318718849E+02  0.40026605190E+02  0.45791928316E+02  0.00000000000E+00 0. -1.
         -4    1    1    2    0  502  0.24100406147E+02  0.54168868398E+02  0.55559923305E+02  0.81252698156E+02  0.00000000000E+00 0.  1.
<scales pt_clust_5="13000.00000" pt_clust_6="13000.00000" pt_clust_7="13000.00000" pt_clust_8="13000.00000" pt_clust_9="59.28827"></scales>
<clustering>
<clus scale="   59.288">  2  9  1 -1</clus>
<clus scale="   80.551">  5  6 -1 -1</clus>
<clus scale="   90.185">  1  5  2 -1</clus>
<clus scale="   91.655">  7  8 -1 -1</clus>
<clus scale="   59.288">  2  5  1 -1</clus>
</clustering>
</event>
<event>
 9    2  0.1654290E-004  0.1025758E+03  0.7546771E-02  0.1279032E+00
         21   -1    0    0  501  502  0.00000000000E+00  0.00000000000E+00  0.92180604873E+02  0.92180604873E+02  0.00000000000E+00 0. -1.
          2   -1    0    0  502    0 -0.00000000000E+00 -0.00000000000E+00 -0.41113021764E+03  0.41113021764E+03  0.00000000000E+00 0. -1.
         23    2    1    2    0    0  0.46421279330E+02  0.29139632872E+02 -0.30594343068E+03  0.32337568655E+03  0.89254683321E+02 0.  0.
         24    2    1    2    0    0 -0.45533879905E+01 -0.16741693967E+02  0.55164556646E+02  0.98979105718E+02  0.80328808031E+02 0.  0.
        -11    1    4    4    0    0  0.11651901202E+02  0.17897114656E+02 -0.98760096041E+01  0.23528898834E+02  0.00000000000E+00 0.  1.
         12    1    4    4    0    0 -0.16205289193E+02 -0.34638808623E+02  0.65040566250E+02  0.75450206883E+02  0.00000000000E+00 0. -1.
        -13    1    3    3    0    0  0.42208215638E+02  0.54710368788E+02 -0.27217225432E+03  0.28080686234E+03  0.00000000000E+00 0. -1.
         13    1    3    3    0    0  0.42130636923E+01 -0.25570735916E+02 -0.33771176363E+02  0.42568824201E+02  0.00000000000E+00 0.  1.
          1    1    1    2  501    0 -0.41867891339E+02 -0.12397938905E+02 -0.68170738735E+02  0.80956030250E+02  0.00000000000E+00 0. -1.
<scales pt_clust_5="13000.00000" pt_clust_6="13000.00000" pt_clust_7="13000.00000" pt_clust_8="13000.00000" pt_clust_9="43.66499"></scales>
<clustering>
<clus scale="   43.665">  1  9  2 -1</clus>
<clus scale="   80.329">  5  6 -1 -1</clus>
<clus scale="   89.255">  7  8 -1 -1</clus>
<clus scale="   94.911">  1  5  2 -1</clus>
<clus scale="   43.665">  1  5  2 -1</clus>
</clustering>
</event>
<event>
 9    2  0.1654290E-004  0.1094131E+03  0.7546771E-02  0.1266375E+00
         21   -1    0    0  501  502  0.00000000000E+00  0.00000000000E+00  0.10879635599E+03  0.10879635599E+03  0.00000000000E+00 0. -1.
          2   -1    0    0  502    0 -0.00000000000E+00 -0.00000000000E+00 -0.34703019726E+03  0.34703019726E+03  0.00000000000E+00 0. -1.
         23    2    1    2    0    0 -0.58950865766E+02 -0.21741487631E+02 -0.27702301634E+03  0.29915334542E+03  0.93824706968E+02 0.  0.
         24    2    1    2    0    0  0.21841726100E+02  0.32631139437E+02 -0.12827357965E+02  0.92175616814E+02  0.82401158746E+02 0.  0.
        -11    1    4    4    0    0  0.44804993608E+02  0.40918142409E+02 -0.24096627516E+02  0.65287282743E+02  0.00000000000E+00 0.  1.
         12    1    4    4    0    0 -0.22963267508E+02 -0.82870029713E+01  0.11269269551E+02  0.26888334071E+02  0.00000000000E+00 0. -1.
        -13    1    3    3    0    0  0.60671603236E+01  0.29298758918E+02 -0.63742434564E+02  0.70415379518E+02  0.00000000000E+00 0.  1.
         13    1    3    3    0    0 -0.65018026089E+02 -0.51040246549E+02 -0.21328058177E+03  0.22873796591E+03  0.00000000000E+00 0. -1.
          1    1    1    2  501    0  0.37109139666E+02 -0.10889651806E+02  0.51616533035E+02  0.64497591007E+02  0.00000000000E+00 0. -1.
<scales pt_clust_5="13000.00000" pt_clust_6="13000.00000" pt_clust_7="13000.00000" pt_clust_8="13000.00000" pt_clust_9="38.67393"></scales>
<clustering>
<clus scale="   38.674">  1  9  2 -1</clus>
<clus scale="   82.401">  5  6 -1 -1</clus>
<clus scale="   93.825">  7  8 -1 -1</clus>
<clus scale="   99.790">  1  5  2 -1</clus>
<clus scale="   38.674">  1  5  2 -1</clus>
</clustering>
</event>
<event>
 9    2  0.1666190E-004  0.2653317E+03  0.7546771E-02  0.1104563E+00
          2   -1    0    0  502    0 -0.00000000000E+00  0.00000000000E+00  0.13352427918E+04  0.13352427918E+04  0.00000000000E+00 0. -1.
         21   -1    0    0  501  502  0.00000000000E+00 -0.00000000000E+00 -0.45921355708E+03  0.45921355708E+03  0.00000000000E+00 0.  1.
         23    2    1    2    0    0 -0.19544755602E+03 -0.15213150396E+03  0.12485226822E+04  0.12761506428E+04  0.91694239017E+02 0.  0.
         24    2    1    2    0    0  0.21680800574E+03  0.17130609546E+03 -0.21714449646E+03  0.36032713055E+03  0.79576497617E+02 0.  0.
        -13    1    4    4    0    0  0.22160789643E+03  0.15484601189E+03 -0.20583831748E+03  0.33978928780E+03  0.00000000000E+00 0.  1.
         14    1    4    4    0    0 -0.47998906905E+01  0.16460083573E+02 -0.11306178979E+02  0.20537842754E+02  0.00000000000E+00 0. -1.
        -11    1    3    3    0    0 -0.80335054329E+02 -0.11272798263E+03  0.77382266241E+03  0.78610611999E+03  0.00000000000E+00 0. -1.
         11    1    3    3    0    0 -0.11511250169E+03 -0.39403521331E+02  0.47470001978E+03  0.49004452279E+03  0.00000000000E+00 0.  1.
          1    1    1    2  501    0 -0.21360449728E+02 -0.19174591504E+02 -0.15534895099E+03  0.15797857559E+03  0.00000000000E+00 0. -1.
<scales pt_clust_5="13000.00000" pt_clust_6="13000.00000" pt_clust_7="13000.00000" pt_clust_8="13000.00000" pt_clust_9="28.70425"></scales>
<clustering>
<clus scale="   28.704">  2  9  1 -1</clus>
<clus scale="   79.576">  5  6 -1 -1</clus>
<clus scale="   91.694">  7  8 -1 -1</clus>
<clus scale="  261.391">  2  5  1 -1</clus>
<clus scale="   28.704">  2  5  1 -1</clus>
</clustering>
</event>
<event>
 9    2  0.1654290E-004  0.1570689E+03  0.7546771E-02  0.1194160E+00
         21   -1    0    0  501  502  0.00000000000E+00  0.00000000000E+00  0.24308129373E+03  0.24308129373E+03  0.00000000000E+00 0. -1.
         -3   -1    0    0    0  501 -0.00000000000E+00 -0.00000000000E+00 -0.14368516909E+03  0.14368516909E+03  0.00000000000E+00 0.  1.
         23    2    1    2    0    0 -0.13516080960E+03 -0.82777596010E+01 -0.19833306652E+02  0.16564058374E+03  0.93308505366E+02 0.  0.
         24    2    1    2    0    0  0.11364325097E+03  0.97574707288E+01  0.49682922062E+02  0.14831165093E+03  0.80733861124E+02 0.  0.
        -11    1    4    4    0    0  0.70575061068E+02  0.45176214059E+02  0.26080528332E+02  0.87760603459E+02  0.00000000000E+00 0.  1.
         12    1    4    4    0    0  0.43068189898E+02 -0.35418743330E+02  0.23602393729E+02  0.60551047472E+02  0.00000000000E+00 0. -1.
        -13    1    3    3    0    0 -0.28048716484E+00  0.20304321530E+02  0.12737034699E+02  0.23970319121E+02  0.00000000000E+00 0.  1.
         13    1    3    3    0    0 -0.13488032243E+03 -0.28582081131E+02 -0.32570341351E+02  0.14167026462E+03  0.00000000000E+00 0. -1.
         -4    1    1    2    0  502  0.21517558634E+02 -0.14797111278E+01  0.69546509236E+02  0.72814228153E+02  0.00000000000E+00 0.  1.
<scales pt_clust_5="13000.00000" pt_clust_6="13000.00000" pt_clust_7="13000.00000" pt_clust_8="13000.00000" pt_clust_9="21.56838"></scales>
<clustering>
<clus scale="   21.568">  1  9  2 -1</clus>
<clus scale="   80.734">  5  6 -1 -1</clus>
<clus scale="   93.309">  7  8 -1 -1</clus>
<clus scale="  149.940">  1  5  2 -1</clus>
<clus scale="   21.568">  1  5  2 -1</clus>
</clustering>
</event>
<event>
 9    2  0.1654290E-004  0.1282581E+03  0.7546771E-02  0.1248473E+00
         21   -1    0    0  501  502  0.00000000000E+00  0.00000000000E+00  0.51712302392E+02  0.51712302392E+02  0.00000000000E+00 0.  1.
          2   -1    0    0  502    0 -0.00000000000E+00 -0.00000000000E+00 -0.86854118479E+03  0.86854118479E+03  0.00000000000E+00 0. -1.
         24    2    1    2    0    0  0.27398845734E+02  0.22132516265E+02 -0.19322157495E+03  0.21240299992E+03  0.80869724403E+02 0.  0.
         23    2    1    2    0    0  0.28155252411E+02  0.91072885769E+02 -0.75805334641E+02  0.14572174553E+03  0.80008684528E+02 0.  0.
        -13    1    3    3    0    0  0.38302029252E+02 -0.21023660692E+02 -0.94971319659E+02  0.10453990296E+03  0.00000000000E+00 0.  1.
         14    1    3    3    0    0 -0.10903183518E+02  0.43156176958E+02 -0.98250255295E+02  0.10786309696E+03  0.00000000000E+00 0. -1.
        -13    1    4    4    0    0  0.35366847801E+02  0.68518969799E+02 -0.12476621663E+02  0.78111005843E+02  0.00000000000E+00 0.  1.
         13    1    4    4    0    0 -0.72115953899E+01  0.22553915970E+02 -0.63328712978E+02  0.67610739687E+02  0.00000000000E+00 0. -1.
          1    1    1    2  501    0 -0.55554098145E+02 -0.11320540203E+03 -0.54780197280E+03  0.56212874173E+03  0.00000000000E+00 0. -1.
<scales pt_clust_5="13000.00000" pt_clust_6="13000.00000" pt_clust_7="13000.00000" pt_clust_8="13000.00000" pt_clust_9="100.24355"></scales>
<clustering>
<clus scale="   80.009">  7  8 -1 -1</clus>
<clus scale="   80.870">  5  6 -1 -1</clus>
<clus scale="   88.207">  2  5  1 -1</clus>
<clus scale="  100.244">  1  9  2 -1</clus>
<clus scale="  100.244">  1  5  2 -1</clus>
</clustering>
</event>
<event>
 9    2  0.1654290E-004  0.1179828E+03  0.7546771E-02  0.1250381E+00
         21   -1    0    0  501  502  0.00000000000E+00  0.00000000000E+00  0.19651962153E+03  0.19651962153E+03  0.00000000000E+00 0.  1.
         -1   -1    0    0    0  501 -0.00000000000E+00 -0.00000000000E+00 -0.20420030303E+03  0.20420030303E+03  0.00000000000E+00 0.  1.
         24    2    1    2    0    0 -0.83773237929E+00  0.72991230526E+02  0.52982970740E+01  0.10920559757E+03  0.81051644401E+02 0.  0.
         23    2    1    2    0    0  0.47145730972E+02  0.44364777728E+02  0.77707178702E+02  0.13614109078E+03  0.91131978610E+02 0.  0.
        -13    1    3    3    0    0 -0.16260571036E+02  0.24911222820E+02 -0.34032767019E+02  0.45201818810E+02  0.00000000000E+00 0.  1.
         14    1    3    3    0    0  0.15422838657E+02  0.48080007706E+02  0.39331064093E+02  0.64003778763E+02  0.00000000000E+00 0. -1.
        -11    1    4    4    0    0  0.31186732989E+02 -0.25382919639E+02  0.26594922351E+02  0.48209903742E+02  0.00000000000E+00 0. -1.
         11    1    4    4    0    0  0.15958997983E+02  0.69747697368E+02  0.51112256351E+02  0.87931187039E+02  0.00000000000E+00 0.  1.
         -2    1    1    2    0  502 -0.46307998593E+02 -0.11735600825E+03 -0.90686157273E+02  0.15537323620E+03  0.00000000000E+00 0.  1.
<scales pt_clust_5="13000.00000" pt_clust_6="13000.00000" pt_clust_7="13000.00000" pt_clust_8="13000.00000" pt_clust_9="74.93267"></scales>
<clustering>
<clus scale="   81.052">  5  6 -1 -1</clus>
<clus scale="   91.132">  7  8 -1 -1</clus>
<clus scale="  109.077">  2  5  1 -1</clus>
<clus scale="   74.933">  1  9  2 -1</clus>
<clus scale="   74.933">  1  5  2 -1</clus>
</clustering>
</event>
<event>
 9    2  0.1654290E-004  0.1099824E+03  0.7546771E-02  0.1266994E+00
         21   -1    0    0  501  502  0.00000000000E+00  0.00000000000E+00  0.46615576042E+02  0.46615576042E+02  0.00000000000E+00 0.  1.
          4   -1    0    0  502    0 -0.00000000000E+00 -0.00000000000E+00 -0.40133145200E+03  0.40133145200E+03  0.00000000000E+00 0. -1.
         24    2    1    2    0    0 -0.52549119051E+02 -0.38049161591E+02 -0.24255551868E+03  0.26343579645E+03  0.79725093930E+02 0.  0.
         23    2    1    2    0    0  0.32262458356E+02  0.20337049760E+02 -0.11873983618E+03  0.15678837008E+03  0.95020958136E+02 0.  0.
        -11    1    3    3    0    0 -0.21700233468E+02 -0.60408121861E+02 -0.16446312653E+03  0.17654506877E+03  0.00000000000E+00 0.  1.
         12    1    3    3    0    0 -0.30848885584E+02  0.22358960270E+02 -0.78092392151E+02  0.86890727687E+02  0.00000000000E+00 0. -1.
        -11    1    4    4    0    0  0.25178686128E+02 -0.52250165825E+01  0.82902405309E+01  0.27018421891E+02  0.00000000000E+00 0.  1.
         11    1    4    4    0    0  0.70837722283E+01  0.25562066343E+02 -0.12703007671E+03  0.12976994819E+03  0.00000000000E+00 0. -1.
          3    1    1    2  501    0  0.20286660695E+02  0.17712111831E+02  0.65794788948E+01  0.27722861508E+02  0.00000000000E+00 0. -1.
<scales pt_clust_5="13000.00000" pt_clust_6="13000.00000" pt_clust_7="13000.00000" pt_clust_8="13000.00000" pt_clust_9="26.93079"></scales>
<clustering>
<clus scale="   26.931">  1  9  2 -1</clus>
<clus scale="   79.725">  5  6 -1 -1</clus>
<clus scale="   95.021">  7  8 -1 -1</clus>
<clus scale="   97.073">  2  5  1 -1</clus>
<clus scale="   26.931">  1  5  2 -1</clus>
</clustering>
</event>
<event>
 9    2  0.1654290E-004  0.8464938E+02  0.7546771E-02  0.1317259E+00
          2   -1    0    0  502    0 -0.00000000000E+00  0.00000000000E+00  0.65705321233E+03  0.65705321233E+03  0.00000000000E+00 0. -1.
         21   -1    0    0  501  502  0.00000000000E+00 -0.00000000000E+00 -0.30006135199E+02  0.30006135199E+02  0.00000000000E+00 0.  1.
         24    2    1    2    0    0 -0.85730251210E+01 -0.22386964453E+02  0.47842368484E+03  0.48569405109E+03  0.80217305521E+02 0.  0.
         23    2    1    2    0    0  0.28182383959E+02  0.39764832944E+02  0.63516437226E+02  0.11231637131E+03  0.78772715845E+02 0.  0.
        -11    1    3    3    0    0  0.34533603628E+02  0.10754831340E+01  0.18640988272E+03  0.18958473255E+03  0.00000000000E+00 0.  1.
         12    1    3    3    0    0 -0.43106628750E+02 -0.23462447587E+02  0.29201380213E+03  0.29610931853E+03  0.00000000000E+00 0. -1.
        -11    1    4    4    0    0 -0.21473135514E+02  0.34224622517E+02  0.16284260299E+02  0.43561421794E+02  0.00000000000E+00 0.  1.
         11    1    4    4    0    0  0.49655519473E+02  0.55402104273E+01  0.47232176927E+02  0.68754949516E+02  0.00000000000E+00 0. -1.
          1    1    1    2  501    0 -0.19609358838E+02 -0.17377868491E+02  0.85106955066E+02  0.89048925137E+02  0.00000000000E+00 0. -1.
<scales pt_clust_5="13000.00000" pt_clust_6="13000.00000" pt_clust_7="13000.00000" pt_clust_8="13000.00000" pt_clust_9="26.20149"></scales>
<clustering>
<clus scale="   26.201">  2  9  1 -1</clus>
<clus scale="   78.773">  7  8 -1 -1</clus>
<clus scale="   80.217">  5  6 -1 -1</clus>
<clus scale="   83.282">  2  7  1 -1</clus>
<clus scale="   26.201">  2  5  1 -1</clus>
</clustering>
</event>
<event>
 9    2  0.1654290E-004  0.1774861E+03  0.7546771E-02  0.1187034E+00
         -1   -1    0    0    0  501 -0.00000000000E+00  0.00000000000E+00  0.15018711681E+03  0.15018711681E+03  0.00000000000E+00 0.  1.
         21   -1    0    0  501  502  0.00000000000E+00 -0.00000000000E+00 -0.43112158730E+03  0.43112158730E+03  0.00000000000E+00 0.  1.
         24    2    1    2    0    0 -0.15949920066E+02  0.89541438887E+02 -0.15264186418E+03  0.19516824611E+03  0.80740549654E+02 0.  0.
         23    2    1    2    0    0 -0.43558355026E+02  0.88961194952E+02  0.40882232247E+02  0.13310972649E+03  0.78964662185E+02 0.  0.
        -13    1    3    3    0    0  0.21225604701E+02  0.74222091995E+02 -0.74473139528E+02  0.10726459689E+03  0.00000000000E+00 0.  1.
         14    1    3    3    0    0 -0.37175524767E+02  0.15319346891E+02 -0.78168724656E+02  0.87903649215E+02  0.00000000000E+00 0. -1.
        -11    1    4    4    0    0  0.16123901113E+02  0.23883415301E+02  0.33958788295E+02  0.44537591044E+02  0.00000000000E+00 0. -1.
         11    1    4    4    0    0 -0.59682256138E+02  0.65077779651E+02  0.69234439522E+01  0.88572135450E+02  0.00000000000E+00 0.  1.
         -2    1    1    2    0  502  0.59508275092E+02 -0.17850263384E+03 -0.16917483855E+03  0.25303073151E+03  0.00000000000E+00 0.  1.
<scales pt_clust_5="13000.00000" pt_clust_6="13000.00000" pt_clust_7="13000.00000" pt_clust_8="13000.00000" pt_clust_9="158.95251"></scales>
<clustering>
<clus scale="   78.965">  7  8 -1 -1</clus>
<clus scale="   80.741">  5  6 -1 -1</clus>
<clus scale="  121.619">  1  5  2 -1</clus>
<clus scale="  158.953">  2  9  1 -1</clus>
<clus scale="  158.953">  2  5  1 -1</clus>
</clustering>
</event>
<event>
 9    2  0.1654290E-004  0.1424374E+03  0.7546771E-02  0.1212742E+00
          2   -1    0    0  502    0 -0.00000000000E+00  0.00000000000E+00  0.52248518751E+03  0.52248518751E+03  0.00000000000E+00 0. -1.
         21   -1    0    0  501  502  0.00000000000E+00 -0.00000000000E+00 -0.63530932057E+02  0.63530932057E+02  0.00000000000E+00 0.  1.
         23    2    1    2    0    0 -0.95339145200E+02 -0.88015077237E+01  0.26318364859E+03  0.29483168501E+03  0.92157856186E+02 0.  0.
         24    2    1    2    0    0  0.14196369643E+03 -0.42835392444E+01  0.12408710172E+03  0.20467667686E+03  0.79516623591E+02 0.  0.
        -13    1    4    4    0    0  0.10796903996E+03  0.28487305804E+02  0.10644432569E+03  0.15427000568E+03  0.00000000000E+00 0.  1.
         14    1    4    4    0    0  0.33994656468E+02 -0.32770845049E+02  0.17642776029E+02  0.50406671181E+02  0.00000000000E+00 0. -1.
        -13    1    3    3    0    0 -0.31934411241E+02  0.27769064213E+02  0.34129597125E+02  0.54366873631E+02  0.00000000000E+00 0.  1.
         13    1    3    3    0    0 -0.63404733959E+02 -0.36570571936E+02  0.22905405147E+03  0.24046481138E+03  0.00000000000E+00 0. -1.
          1    1    1    2  501    0 -0.46624551226E+02  0.13085046968E+02  0.71683505148E+02  0.86507757696E+02  0.00000000000E+00 0. -1.
<scales pt_clust_5="13000.00000" pt_clust_6="13000.00000" pt_clust_7="13000.00000" pt_clust_8="13000.00000" pt_clust_9="48.42592"></scales>
<clustering>
<clus scale="   48.426">  2  9  1 -1</clus>
<clus scale="   79.517">  5  6 -1 -1</clus>
<clus scale="   92.158">  7  8 -1 -1</clus>
<clus scale="  134.604">  2  5  1 -1</clus>
<clus scale="   48.426">  2  5  1 -1</clus>
</clustering>
</event>
<event>
 9    2  0.1654290E-004  0.1645469E+03  0.7546771E-02  0.1192190E+00
         -1   -1    0    0    0  501 -0.00000000000E+00  0.00000000000E+00  0.27653085633E+03  0.27653085633E+03  0.00000000000E+00 0.  1.
         21   -1    0    0  501  502  0.00000000000E+00 -0.00000000000E+00 -0.27267688230E+03  0.27267688230E+03  0.00000000000E+00 0.  1.
         23    2    1    2    0    0 -0.62528057295E+02  0.79336067018E+02  0.14029280284E+03  0.19551781225E+03  0.91330032849E+02 0.  0.
         24    2    1    2    0    0 -0.11289263710E+03 -0.55368461260E+02 -0.54819000456E+02  0.15873182183E+03  0.79876494887E+02 0.  0.
        -11    1    4    4    0    0 -0.10685011104E+03 -0.15535437336E+02 -0.46665253510E+02  0.11762628077E+03  0.00000000000E+00 0.  1.
         12    1    4    4    0    0 -0.60425260585E+01 -0.39833023924E+02 -0.81537469455E+01  0.41105541054E+02  0.00000000000E+00 0. -1.
        -13    1    3    3    0    0  0.22990095419E+02  0.66340512405E+01  0.23878908358E+02  0.33804694757E+02  0.00000000000E+00 0. -1.
         13    1    3    3    0    0 -0.85518152713E+02  0.72702015778E+02  0.11641389448E+03  0.16171311750E+03  0.00000000000E+00 0.  1.
         -2    1    1    2    0  502  0.17542069440E+03 -0.23967605758E+02 -0.81619828358E+02  0.19495810455E+03  0.00000000000E+00 0.  1.
<scales pt_clust_5="13000.00000" pt_clust_6="13000.00000" pt_clust_7="13000.00000" pt_clust_8="13000.00000" pt_clust_9="143.85912"></scales>
<clustering>
<clus scale="   79.876">  5  6 -1 -1</clus>
<clus scale="   91.330">  7  8 -1 -1</clus>
<clus scale="  136.181">  1  7  2 -1</clus>
<clus scale="  143.859">  2  9  1 -1</clus>
<clus scale="  143.859">  2  5  1 -1</clus>
</clustering>
</event>
<event>
 9    2  0.1654290E-004  0.1252240E+03  0.7546771E-02  0.1238700E+00
          2   -1    0    0  502    0 -0.00000000000E+00  0.00000000000E+00  0.14076828080E+03  0.14076828080E+03  0.00000000000E+00 0. -1.
         21   -1    0    0  501  502  0.00000000000E+00 -0.00000000000E+00 -0.14364638453E+03  0.14364638453E+03  0.00000000000E+00 0.  1.
         24    2    1    2    0    0 -0.28476155368E+02 -0.67648825436E+02 -0.20700933253E+01  0.10946360959E+03  0.81183382115E+02 0.  0.
         23    2    1    2    0    0  0.56477585194E+01  0.96410793078E+02 -0.14094462860E+02  0.13590087899E+03  0.94569851581E+02 0.  0.
        -13    1    3    3    0    0 -0.48430995319E+02 -0.36908299035E+02  0.22966610239E+02  0.65078790947E+02  0.00000000000E+00 0.  1.
         14    1    3    3    0    0  0.19954839952E+02 -0.30740526401E+02 -0.25036703565E+02  0.44384818647E+02  0.00000000000E+00 0. -1.
        -13    1    4    4    0    0  0.24319696757E+02  0.52997865304E+01  0.24758258813E+02  0.35107075741E+02  0.00000000000E+00 0. -1.
         13    1    4    4    0    0 -0.18671938238E+02  0.91111006548E+02 -0.38852721673E+02  0.10079380325E+03  0.00000000000E+00 0.  1.
          1    1    1    2  501    0  0.22828396848E+02 -0.28761967642E+02  0.13286452461E+02  0.39050176751E+02  0.00000000000E+00 0. -1.
<scales pt_clust_5="13000.00000" pt_clust_6="13000.00000" pt_clust_7="13000.00000" pt_clust_8="13000.00000" pt_clust_9="36.72040"></scales>
<clustering>
<clus scale="   36.720">  2  9  1 -1</clus>
<clus scale="   81.183">  5  6 -1 -1</clus>
<clus scale="   94.570">  7  8 -1 -1</clus>
<clus scale="  115.448">  1  5  2 -1</clus>
<clus scale="   36.720">  2  5  1 -1</clus>
</clustering>
</event>
<event>
 9    2  0.1654290E-004  0.9282847E+02  0.7546771E-02  0.1300481E+00
         21   -1    0    0  501  502  0.00000000000E+00  0.00000000000E+00  0.15668703106E+03  0.15668703106E+03  0.00000000000E+00 0. -1.
         -1   -1    0    0    0  501 -0.00000000000E+00 -0.00000000000E+00 -0.20595398482E+03  0.20595398482E+03  0.00000000000E+00 0.  1.
         24    2    1    2    0    0 -0.22367608100E+02  0.36458117982E+01 -0.13666395735E+03  0.16213258994E+03  0.84239762852E+02 0.  0.
         23    2    1    2    0    0 -0.32234966923E+02  0.45310641101E+02  0.54094953246E+02  0.11996525717E+03  0.91505473449E+02 0.  0.
        -13    1    3    3    0    0 -0.32921462739E+02  0.29729561804E+02 -0.34588069106E+02  0.56249480695E+02  0.00000000000E+00 0.  1.
         14    1    3    3    0    0  0.10553854639E+02 -0.26083750006E+02 -0.10207588824E+03  0.10588310924E+03  0.00000000000E+00 0. -1.
        -13    1    4    4    0    0 -0.56474567210E+02  0.32998114524E+02  0.63534238451E+02  0.91185808980E+02  0.00000000000E+00 0. -1.
         13    1    4    4    0    0  0.24239600287E+02  0.12312526577E+02 -0.94392852056E+01  0.28779448188E+02  0.00000000000E+00 0.  1.
         -2    1    1    2    0  502  0.54602575024E+02 -0.48956452899E+02  0.33302050340E+02  0.80543168776E+02  0.00000000000E+00 0.  1.
<scales pt_clust_5="13000.00000" pt_clust_6="13000.00000" pt_clust_7="13000.00000" pt_clust_8="13000.00000" pt_clust_9="73.33604"></scales>
<clustering>
<clus scale="   73.336">  1  9  2 -1</clus>
<clus scale="   84.240">  5  6 -1 -1</clus>
<clus scale="   85.675">  2  5  1 -1</clus>
<clus scale="   91.505">  7  8 -1 -1</clus>
<clus scale="   73.336">  1  5  2 -1</clus>
</clustering>
</event>
<event>
 9    2  0.1654290E-004  0.1797145E+03  0.7546771E-02  0.1169541E+00
         21   -1    0    0  501  502  0.00000000000E+00  0.00000000000E+00  0.67537738105E+03  0.67537738105E+03  0.00000000000E+00 0.  1.
          2   -1    0    0  502    0 -0.00000000000E+00 -0.00000000000E+00 -0.65365216849E+02  0.65365216849E+02  0.00000000000E+00 0. -1.
         23    2    1    2    0    0 -0.42263410273E+02  0.15531349704E+03  0.17850307116E+03  0.25719582930E+03  0.91530705147E+02 0.  0.
         24    2    1    2    0    0  0.10805578586E+02 -0.14360532256E+03  0.41451842549E+03  0.44592550722E+03  0.79276627845E+02 0.  0.
        -13    1    4    4    0    0  0.20169880104E+02 -0.50366002638E+02  0.25680118406E+03  0.26246982002E+03  0.00000000000E+00 0.  1.
         14    1    4    4    0    0 -0.93643015178E+01 -0.93239319924E+02  0.15771724142E+03  0.18345568720E+03  0.00000000000E+00 0. -1.
        -13    1    3    3    0    0  0.27380547064E+01  0.13525112317E+03  0.13985109608E+03  0.19457310281E+03  0.00000000000E+00 0. -1.
         13    1    3    3    0    0 -0.45001464979E+02  0.20062373874E+02  0.38651975081E+02  0.62622726493E+02  0.00000000000E+00 0.  1.
          1    1    1    2  501    0  0.31457831687E+02 -0.11708174478E+02  0.16990667554E+02  0.37621261382E+02  0.00000000000E+00 0. -1.
<scales pt_clust_5="13000.00000" pt_clust_6="13000.00000" pt_clust_7="13000.00000" pt_clust_8="13000.00000" pt_clust_9="33.56602"></scales>
<clustering>
<clus scale="   33.566">  1  9  2 -1</clus>
<clus scale="   79.277">  5  6 -1 -1</clus>
<clus scale="   91.531">  7  8 -1 -1</clus>
<clus scale="  173.794">  1  5  2 -1</clus>
<clus scale="   33.566">  1  5  2 -1</clus>
</clustering>
</event>
<event>
 9    2  0.1654290E-004  0.1424693E+03  0.7546771E-02  0.1212131E+00
          2   -1    0    0  502    0 -0.00000000000E+00  0.00000000000E+00  0.66974404210E+03  0.66974404210E+03  0.00000000000E+00 0. -1.
         21   -1    0    0  501  502  0.00000000000E+00 -0.00000000000E+00 -0.89909489397E+02  0.89909489397E+02  0.00000000000E+00 0.  1.
         24    2    1    2    0    0  0.10951540384E+03 -0.33948119207E+02  0.44473064887E+03  0.46679859728E+03  0.83483422931E+02 0.  0.
         23    2    1    2    0    0 -0.78723238851E+02 -0.43068698807E+02 -0.55819753199E+01  0.12953847983E+03  0.93256625259E+02 0.  0.
        -13    1    3    3    0    0  0.20580085054E+02  0.26381640024E+02  0.12950323185E+03  0.13375581442E+03  0.00000000000E+00 0.  1.
         14    1    3    3    0    0  0.88935318783E+02 -0.60329759231E+02  0.31522741703E+03  0.33304278287E+03  0.00000000000E+00 0. -1.
        -11    1    4    4    0    0 -0.21907455064E+02  0.29413929114E+02 -0.74418110926E+01  0.37423206244E+02  0.00000000000E+00 0. -1.
         11    1    4    4    0    0 -0.56815783788E+02 -0.72482627921E+02  0.18598357727E+01  0.92115273581E+02  0.00000000000E+00 0.  1.
          1    1    1    2  501    0 -0.30792164985E+02  0.77016818014E+02  0.14068587915E+03  0.16331645438E+03  0.00000000000E+00 0. -1.
<scales pt_clust_5="13000.00000" pt_clust_6="13000.00000" pt_clust_7="13000.00000" pt_clust_8="13000.00000" pt_clust_9="82.94429"></scales>
<clustering>
<clus scale="   82.944">  2  9  1 -1</clus>
<clus scale="   83.483">  5  6 -1 -1</clus>
<clus scale="   93.257">  7  8 -1 -1</clus>
<clus scale="  136.272">  1  5  2 -1</clus>
<clus scale="   82.944">  2  5  1 -1</clus>
</clustering>
</event>
<event>
 9    2  0.1654290E-004  0.9677905E+02  0.7546771E-02  0.1290714E+00
          2   -1    0    0  502    0 -0.00000000000E+00  0.00000000000E+00  0.26210731464E+03  0.26210731464E+03  0.00000000000E+00 0. -1.
         21   -1    0    0  501  502  0.00000000000E+00 -0.00000000000E+00 -0.10750908850E+03  0.10750908850E+03  0.00000000000E+00 0. -1.
         23    2    1    2    0    0  0.42933609602E+02  0.32096157723E+02  0.13662702793E+03  0.17059995799E+03  0.86970930370E+02 0.  0.
         24    2    1    2    0    0 -0.41005871512E+02  0.43706819954E+02  0.55522709528E+02  0.11440011338E+03  0.80080253868E+02 0.  0.
        -11    1    4    4    0    0 -0.43119825080E+02 -0.43121514797E+01  0.49769099850E+02  0.65991493885E+02  0.00000000000E+00 0.  1.
         12    1    4    4    0    0  0.21139535681E+01  0.48018971434E+02  0.57536096780E+01  0.48408619497E+02  0.00000000000E+00 0. -1.
        -11    1    3    3    0    0  0.64247411533E+02  0.12862345461E+02  0.60277469810E+02  0.89031136049E+02  0.00000000000E+00 0. -1.
         11    1    3    3    0    0 -0.21313801931E+02  0.19233812262E+02  0.76349558123E+02  0.81568821938E+02  0.00000000000E+00 0.  1.
          1    1    1    2  501    0 -0.19277380898E+01 -0.75802977677E+02 -0.37551511323E+02  0.84616331766E+02  0.00000000000E+00 0. -1.
<scales pt_clust_5="13000.00000" pt_clust_6="13000.00000" pt_clust_7="13000.00000" pt_clust_8="13000.00000" pt_clust_9="75.82749"></scales>
<clustering>
<clus scale="   75.827">  2  9  1 -1</clus>
<clus scale="   80.080">  5  6 -1 -1</clus>
<clus scale="   86.971">  7  8 -1 -1</clus>
<clus scale="   90.637">  2  5  1 -1</clus>
<clus scale="   75.827">  2  5  1 -1</clus>
</clustering>
</event>
<event>
 9    2  0.1654290E-004  0.1137889E+03  0.7546771E-02  0.1270933E+00
         21   -1    0    0  501  502  0.00000000000E+00  0.00000000000E+00  0.38128710776E+02  0.38128710776E+02  0.00000000000E+00 0. -1.
          4   -1    0    0  502    0 -0.00000000000E+00 -0.00000000000E+00 -0.66508391343E+03  0.66508391343E+03  0.00000000000E+00 0. -1.
         24    2    1    2    0    0  0.79150923801E+01  0.12146755781E+02 -0.34389958960E+03  0.35353766875E+03  0.80695496375E+02 0.  0.
         23    2    1    2    0    0  0.12257671861E+02 -0.22673074061E+01 -0.30037140860E+03  0.32131334951E+03  0.11341910891E+03 0.  0.
        -11    1    3    3    0    0  0.21135022108E+02 -0.24909594564E+02 -0.75424923180E+02  0.82195474921E+02  0.00000000000E+00 0.  1.
         12    1    3    3    0    0 -0.13219929727E+02  0.37056350344E+02 -0.26847466642E+03  0.27134219383E+03  0.00000000000E+00 0. -1.
        -11    1    4    4    0    0  0.44155121830E+02  0.28204789933E+02 -0.24488825466E+03  0.25043051377E+03  0.00000000000E+00 0. -1.
         11    1    4    4    0    0 -0.31897449969E+02 -0.30472097339E+02 -0.55483153942E+02  0.70882835737E+02  0.00000000000E+00 0.  1.
          3    1    1    2  501    0 -0.20172764241E+02 -0.98794483744E+01  0.17315795536E+02  0.28361605955E+02  0.00000000000E+00 0. -1.
<scales pt_clust_5="13000.00000" pt_clust_6="13000.00000" pt_clust_7="13000.00000" pt_clust_8="13000.00000" pt_clust_9="22.46206"></scales>
<clustering>
<clus scale="   22.462">  1  9  2 -1</clus>
<clus scale="   80.695">  5  6 -1 -1</clus>
<clus scale="   81.214">  2  5  1 -1</clus>
<clus scale="  113.419">  7  8 -1 -1</clus>
<clus scale="   22.462">  1  5  2 -1</clus>
</clustering>
</event>
<event>
 9    2  0.1654290E-004  0.6700425E+03  0.7546771E-02  0.1035294E+00
          2   -1    0    0  502    0 -0.00000000000E+00  0.00000000000E+00  0.54215784561E+03  0.54215784561E+03  0.00000000000E+00 0. -1.
         21   -1    0    0  501  502  0.00000000000E+00 -0.00000000000E+00 -0.10416827350E+04  0.10416827350E+04  0.00000000000E+00 0. -1.
         23    2    1    2    0    0 -0.17833144624E+02  0.44937802719E+02 -0.22036644586E+02  0.11116374571E+03  0.97643932196E+02 0.  0.
         24    2    1    2    0    0  0.61181797531E+03  0.25902921622E+03 -0.30044440184E+02  0.66929654760E+03  0.75085487717E+02 0.  0.
        -13    1    4    4    0    0  0.99327662376E+02  0.13148544328E+02 -0.35192692183E+01  0.10025594240E+03  0.00000000000E+00 0.  1.
         14    1    4    4    0    0  0.51249031294E+03  0.24588067190E+03 -0.26525170966E+02  0.56904060520E+03  0.00000000000E+00 0. -1.
        -13    1    3    3    0    0  0.23350700392E+02  0.17851863300E+02  0.28235347151E+02  0.40757564461E+02  0.00000000000E+00 0. -1.
         13    1    3    3    0    0 -0.41183845016E+02  0.27085939418E+02 -0.50271991737E+02  0.70406181246E+02  0.00000000000E+00 0.  1.
          1    1    1    2  501    0 -0.59398483069E+03 -0.30396701894E+03 -0.44744380457E+03  0.80338028725E+03  0.00000000000E+00 0. -1.
<scales pt_clust_5="13000.00000" pt_clust_6="13000.00000" pt_clust_7="13000.00000" pt_clust_8="13000.00000" pt_clust_9="665.82210"></scales>
<clustering>
<clus scale="   75.085">  5  6 -1 -1</clus>
<clus scale="   97.644">  7  8 -1 -1</clus>
<clus scale="  108.958">  1  7  2 -1</clus>
<clus scale="  665.822">  2  9  1 -1</clus>
<clus scale="  665.822">  2  5  1 -1</clus>
</clustering>
</event>
<event>
 9    2  0.1654290E-004  0.9327380E+02  0.7546771E-02  0.1301897E+00
         21   -1    0    0  501  502  0.00000000000E+00  0.00000000000E+00  0.12013641794E+03  0.12013641794E+03  0.00000000000E+00 0.  1.
          2   -1    0    0  502    0 -0.00000000000E+00 -0.00000000000E+00 -0.22660172420E+03  0.22660172420E+03  0.00000000000E+00 0. -1.
         23    2    1    2    0    0 -0.20819941689E+02 -0.52253326692E+01 -0.18863070342E+03  0.21071170622E+03  0.91417212772E+02 0.  0.
         24    2    1    2    0    0 -0.47915137656E+01 -0.22270737876E+01  0.70584942412E+02  0.10694737225E+03  0.80172238799E+02 0.  0.
        -13    1    4    4    0    0 -0.29064331293E+02  0.26018590958E+02  0.52878310219E+02  0.65710106685E+02  0.00000000000E+00 0.  1.
         14    1    4    4    0    0  0.24272817528E+02 -0.28245664745E+02  0.17706632192E+02  0.41237265564E+02  0.00000000000E+00 0. -1.
        -13    1    3    3    0    0 -0.24921109941E+02  0.40701066815E+02 -0.99997818534E+02  0.11080253730E+03  0.00000000000E+00 0.  1.
         13    1    3    3    0    0  0.41011682524E+01 -0.45926399484E+02 -0.88632884886E+02  0.99909168917E+02  0.00000000000E+00 0. -1.
          1    1    1    2  501    0  0.25611455454E+02  0.74524064568E+01  0.11580454748E+02  0.29079063683E+02  0.00000000000E+00 0. -1.
<scales pt_clust_5="13000.00000" pt_clust_6="13000.00000" pt_clust_7="13000.00000" pt_clust_8="13000.00000" pt_clust_9="26.67368"></scales>
<clustering>
<clus scale="   26.674">  1  9  2 -1</clus>
<clus scale="   80.172">  5  6 -1 -1</clus>
<clus scale="   82.283">  1  5  2 -1</clus>
<clus scale="   91.417">  7  8 -1 -1</clus>
<clus scale="   26.674">  1  5  2 -1</clus>
</clustering>
</event>
<event>
 9    2  0.1654290E-004  0.2757516E+03  0.7546771E-02  0.1098500E+00
         21   -1    0    0  501  502  0.00000000000E+00  0.00000000000E+00  0.39964991898E+03  0.39964991898E+03  0.00000000000E+00 0.  1.
         -1   -1    0    0    0  501 -0.00000000000E+00 -0.00000000000E+00 -0.36240343671E+03  0.36240343671E+03  0.00000000000E+00 0.  1.
         23    2    1    2    0    0 -0.40534659086E+02 -0.27003764456E+03 -0.21693004918E+03  0.36035225363E+03  0.90728784816E+02 0.  0.
         24    2    1    2    0    0  0.40155667694E+02  0.20477060655E+03  0.25139759654E+03  0.33637383084E+03  0.80019519973E+02 0.  0.
        -11    1    4    4    0    0  0.37123675173E+01  0.62608713225E+02  0.13570404196E+03  0.14949655397E+03  0.00000000000E+00 0.  1.
         12    1    4    4    0    0  0.36443300177E+02  0.14216189332E+03  0.11569355458E+03  0.18687727687E+03  0.00000000000E+00 0. -1.
        -11    1    3    3    0    0  0.68776324867E+00 -0.16334208633E+03 -0.17271572281E+03  0.23772217207E+03  0.00000000000E+00 0.  1.
         11    1    3    3    0    0 -0.41222422335E+02 -0.10669555823E+03 -0.44214326366E+02  0.12263008156E+03  0.00000000000E+00 0. -1.
         -2    1    1    2    0  502  0.37899139199E+00  0.65267038010E+02  0.27789349066E+01  0.65327271215E+02  0.00000000000E+00 0.  1.
<scales pt_clust_5="13000.00000" pt_clust_6="13000.00000" pt_clust_7="13000.00000" pt_clust_8="13000.00000" pt_clust_9="65.26817"></scales>
<clustering>
<clus scale="   65.268">  1  9  2 -1</clus>
<clus scale="   80.020">  5  6 -1 -1</clus>
<clus scale="   90.729">  7  8 -1 -1</clus>
<clus scale="  272.416">  1  5  2 -1</clus>
<clus scale="   65.268">  1  5  2 -1</clus>
</clustering>
</event>
<event>
 9    2  0.1654290E-004  0.1239559E+03  0.7546771E-02  0.1237305E+00
          2   -1    0    0  502    0 -0.00000000000E+00  0.00000000000E+00  0.25827966780E+02  0.25827966780E+02  0.00000000000E+00 0. -1.
         21   -1    0    0  501  502  0.00000000000E+00 -0.00000000000E+00 -0.75753391022E+03  0.75753391022E+03  0.00000000000E+00 0. -1.
         24    2    1    2    0    0  0.20473601846E+02  0.77362848818E+02 -0.23945149716E+03  0.26775518918E+03  0.89171986036E+02 0.  0.
         23    2    1    2    0    0 -0.40037096657E+02 -0.88742353843E+02 -0.42760806602E+03  0.44711305348E+03  0.87081857994E+02 0.  0.
        -11    1    3    3    0    0  0.24649398187E+02  0.66693041416E+02 -0.24493953196E+03  0.25505083595E+03  0.00000000000E+00 0.  1.
         12    1    3    3    0    0 -0.41757963403E+01  0.10669807402E+02  0.54880347994E+01  0.12704353232E+02  0.00000000000E+00 0. -1.
        -11    1    4    4    0    0 -0.92582451331E+01 -0.94156143130E+02 -0.36601820301E+03  0.37804817064E+03  0.00000000000E+00 0. -1.
         11    1    4    4    0    0 -0.30778851524E+02  0.54137892871E+01 -0.61589863016E+02  0.69064882842E+02  0.00000000000E+00 0.  1.
          1    1    1    2  501    0  0.19563494811E+02  0.11379505025E+02 -0.64646380261E+02  0.68493634336E+02  0.00000000000E+00 0. -1.
<scales pt_clust_5="13000.00000" pt_clust_6="13000.00000" pt_clust_7="13000.00000" pt_clust_8="13000.00000" pt_clust_9="22.63235"></scales>
<clustering>
<clus scale="   22.632">  2  9  1 -1</clus>
<clus scale="   87.082">  7  8 -1 -1</clus>
<clus scale="   89.172">  5  6 -1 -1</clus>
<clus scale="  122.461">  2  7  1 -1</clus>
<clus scale="   22.632">  2  5  1 -1</clus>
</clustering>
</event>
<event>
 9    2  0.1654290E-004  0.9059657E+02  0.7546771E-02  0.1304296E+00
          2   -1    0    0  502    0 -0.00000000000E+00  0.00000000000E+00  0.45004265783E+03  0.45004265783E+03  0.00000000000E+00 0. -1.
         21   -1    0    0  501  502  0.00000000000E+00 -0.00000000000E+00 -0.54135660835E+02  0.54135660835E+02  0.00000000000E+00 0. -1.
         24    2    1    2    0    0 -0.17995351158E+02  0.12710102117E+02  0.24840788376E+03  0.26190001158E+03  0.79998499935E+02 0.  0.
         23    2    1    2    0    0  0.14752179804E+02 -0.84233964343E+02  0.94900667348E+02  0.15343700173E+03  0.84992877811E+02 0.  0.
        -13    1    3    3    0    0  0.19367354731E+02 -0.92651800076E+01  0.19756644690E+02  0.29176411693E+02  0.00000000000E+00 0.  1.
         14    1    3    3    0    0 -0.37362705889E+02  0.21975282125E+02  0.22865123907E+03  0.23272359989E+03  0.00000000000E+00 0. -1.
        -11    1    4    4    0    0 -0.24064831665E+02  0.33438128992E+01  0.24917270161E+02  0.34801832711E+02  0.00000000000E+00 0.  1.
         11    1    4    4    0    0  0.38817011469E+02 -0.87577777242E+02  0.69983397187E+02  0.11863516902E+03  0.00000000000E+00 0. -1.
          1    1    1    2  501    0  0.32431713536E+01  0.71523862226E+02  0.52598445892E+02  0.88841305362E+02  0.00000000000E+00 0. -1.
<scales pt_clust_5="13000.00000" pt_clust_6="13000.00000" pt_clust_7="13000.00000" pt_clust_8="13000.00000" pt_clust_9="71.59735"></scales>
<clustering>
<clus scale="   71.597">  2  9  1 -1</clus>
<clus scale="   79.998">  5  6 -1 -1</clus>
<clus scale="   84.993">  7  8 -1 -1</clus>
<clus scale="   85.929">  1  5  2 -1</clus>
<clus scale="   71.597">  2  5  1 -1</clus>
</clustering>
</event>
<event>
 9    2  0.1654290E-004  0.1030233E+03  0.7546771E-02  0.1286865E+00
         21   -1    0    0  501  502  0.00000000000E+00  0.00000000000E+00  0.24671075049E+02  0.24671075049E+02  0.00000000000E+00 0. -1.
          2   -1    0    0  502    0 -0.00000000000E+00 -0.00000000000E+00 -0.83133577305E+03  0.83133577305E+03  0.00000000000E+00 0. -1.
         24    2    1    2    0    0  0.22367713462E+01 -0.44196599830E+01 -0.54856938254E+03  0.55449235873E+03  0.80677579823E+02 0.  0.
         23    2    1    2    0    0 -0.72051775637E+00 -0.40279689325E+02 -0.19526632819E+03  0.22439242706E+03  0.10295654365E+03 0.  0.
        -13    1    3    3    0    0  0.39467537638E+02 -0.53420255387E+01 -0.19911770787E+03  0.20306177718E+03  0.00000000000E+00 0.  1.
         14    1    3    3    0    0 -0.37230766292E+02  0.92236555571E+00 -0.34945167467E+03  0.35143058155E+03  0.00000000000E+00 0. -1.
        -13    1    4    4    0    0 -0.26079987383E+02  0.13798219102E+02 -0.12375434428E+02  0.31995436700E+02  0.00000000000E+00 0.  1.
         13    1    4    4    0    0  0.25359469627E+02 -0.54077908427E+02 -0.18289089376E+03  0.19239699036E+03  0.00000000000E+00 0. -1.
          1    1    1    2  501    0 -0.15162535899E+01  0.44699349308E+02 -0.62828987271E+02  0.77122062310E+02  0.00000000000E+00 0. -1.
<scales pt_clust_5="13000.00000" pt_clust_6="13000.00000" pt_clust_7="13000.00000" pt_clust_8="13000.00000" pt_clust_9="44.72506"></scales>
<clustering>
<clus scale="   44.725">  1  9  2 -1</clus>
<clus scale="   80.678">  5  6 -1 -1</clus>
<clus scale="   80.763">  2  5  1 -1</clus>
<clus scale="  102.957">  7  8 -1 -1</clus>
<clus scale="   44.725">  1  5  2 -1</clus>
</clustering>
</event>
<event>
 9    2  0.1654290E-004  0.9447687E+02  0.7546771E-02  0.1298348E+00
         21   -1    0    0  501  502  0.00000000000E+00  0.00000000000E+00  0.15925479213E+03  0.15925479213E+03  0.00000000000E+00 0.  1.
         -3   -1    0    0    0  501 -0.00000000000E+00 -0.00000000000E+00 -0.11715778541E+03  0.11715778541E+03  0.00000000000E+00 0.  1.
         23    2    1    2    0    0 -0.10219656319E+02  0.26408132755E+02 -0.28996343455E+02  0.10071674962E+03  0.92202195576E+02 0.  0.
         24    2    1    2    0    0 -0.12629253412E+02 -0.14830517671E+02 -0.15250533893E+02  0.85632626989E+02  0.81981252276E+02 0.  0.
        -11    1    4    4    0    0 -0.23305453545E+02  0.16579946815E+02  0.21753908414E+02  0.35934264047E+02  0.00000000000E+00 0.  1.
         12    1    4    4    0    0  0.10676200133E+02 -0.31410464487E+02 -0.37004442307E+02  0.49698362941E+02  0.00000000000E+00 0. -1.
        -11    1    3    3    0    0 -0.74547041282E+01 -0.22467025962E+02 -0.43617260875E+02  0.49626659322E+02  0.00000000000E+00 0.  1.
         11    1    3    3    0    0 -0.27649521908E+01  0.48875158718E+02  0.14620917420E+02  0.51090090296E+02  0.00000000000E+00 0. -1.
         -4    1    1    2    0  502  0.22848909731E+02 -0.11577615084E+02  0.86343884070E+02  0.90063200939E+02  0.00000000000E+00 0.  1.
<scales pt_clust_5="13000.00000" pt_clust_6="13000.00000" pt_clust_7="13000.00000" pt_clust_8="13000.00000" pt_clust_9="25.61472"></scales>
<clustering>
<clus scale="   25.615">  1  9  2 -1</clus>
<clus scale="   81.981">  5  6 -1 -1</clus>
<clus scale="   84.531">  1  5  2 -1</clus>
<clus scale="   92.202">  7  8 -1 -1</clus>
<clus scale="   25.615">  1  5  2 -1</clus>
</clustering>
</event>
<event>
 9    2  0.1758900E-004  0.9103547E+02  0.7546771E-02  0.1306484E+00
         21   -1    0    0  501  502  0.00000000000E+00  0.00000000000E+00  0.72008667260E+02  0.72008667260E+02  0.00000000000E+00 0. -1.
         -1   -1    0    0    0  501 -0.00000000000E+00 -0.00000000000E+00 -0.33266268633E+03  0.33266268633E+03  0.00000000000E+00 0.  1.
         23    2    1    2    0    0  0.16247603301E+02  0.90408019072E+01 -0.25374045417E+03  0.26983324143E+03  0.89889039300E+02 0.  0.
         24    2    1    2    0    0  0.90732104692E+01  0.15277064802E+02  0.26664235700E+02  0.86258580005E+02  0.80086511360E+02 0.  0.
        -11    1    4    4    0    0 -0.18855150432E+02  0.18018839501E+02 -0.19272211727E+02  0.32428589541E+02  0.00000000000E+00 0.  1.
         12    1    4    4    0    0  0.27928360901E+02 -0.27417746996E+01  0.45936447426E+02  0.53829990463E+02  0.00000000000E+00 0. -1.
        -13    1    3    3    0    0 -0.25414976923E+02  0.30447074956E+02 -0.16252584334E+03  0.16729493470E+03  0.00000000000E+00 0.  1.
         13    1    3    3    0    0  0.41662580224E+02 -0.21406273049E+02 -0.91214610835E+02  0.10253830673E+03  0.00000000000E+00 0. -1.
         -2    1    1    2    0  502 -0.25320813770E+02 -0.24317866709E+02 -0.33577800596E+02  0.48579532152E+02  0.00000000000E+00 0.  1.
<scales pt_clust_5="13000.00000" pt_clust_6="13000.00000" pt_clust_7="13000.00000" pt_clust_8="13000.00000" pt_clust_9="35.10703"></scales>
<clustering>
<clus scale="   35.107">  1  9  2 -1</clus>
<clus scale="   80.087">  5  6 -1 -1</clus>
<clus scale="   81.371">  1  5  2 -1</clus>
<clus scale="   89.889">  7  8 -1 -1</clus>
<clus scale="   35.107">  1  5  2 -1</clus>
</clustering>
</event>
<event>
 9    2  0.1654290E-004  0.9858501E+02  0.7546771E-02  0.1288940E+00
         21   -1    0    0  501  502  0.00000000000E+00  0.00000000000E+00  0.26387747096E+02  0.26387747096E+02  0.00000000000E+00 0. -1.
          2   -1    0    0  502    0 -0.00000000000E+00 -0.00000000000E+00 -0.98508220921E+03  0.98508220921E+03  0.00000000000E+00 0. -1.
         24    2    1    2    0    0 -0.19610948258E+02 -0.21584958839E+02 -0.46309470930E+03  0.47108343981E+03  0.81316651031E+02 0.  0.
         23    2    1    2    0    0 -0.39800229652E+02  0.63957022676E+02 -0.41477430034E+03  0.43149283614E+03  0.92053182408E+02 0.  0.
        -11    1    3    3    0    0 -0.47622224899E+02 -0.23791201456E+02 -0.21901747457E+03  0.22539421407E+03  0.00000000000E+00 0.  1.
         12    1    3    3    0    0  0.28011276641E+02  0.22062426165E+01 -0.24407723474E+03  0.24568922574E+03  0.00000000000E+00 0. -1.
        -13    1    4    4    0    0  0.19442009569E+02  0.12232841928E+02 -0.25359918118E+02  0.34216364574E+02  0.00000000000E+00 0.  1.
         13    1    4    4    0    0 -0.59242239221E+02  0.51724180748E+02 -0.38941438222E+03  0.39727647157E+03  0.00000000000E+00 0. -1.
          1    1    1    2  501    0  0.59411177910E+02 -0.42372063837E+02 -0.80825452473E+02  0.10889368036E+03  0.00000000000E+00 0. -1.
<scales pt_clust_5="13000.00000" pt_clust_6="13000.00000" pt_clust_7="13000.00000" pt_clust_8="13000.00000" pt_clust_9="72.97314"></scales>
<clustering>
<clus scale="   72.973">  1  9  2 -1</clus>
<clus scale="   81.317">  5  6 -1 -1</clus>
<clus scale="   88.643">  2  5  1 -1</clus>
<clus scale="   92.053">  7  8 -1 -1</clus>
<clus scale="   72.973">  1  5  2 -1</clus>
</clustering>
</event>
<event>
 9    2  0.1654290E-004  0.9178878E+02  0.7546771E-02  0.1305336E+00
          2   -1    0    0  502    0 -0.00000000000E+00  0.00000000000E+00  0.23926482091E+03  0.23926482091E+03  0.00000000000E+00 0. -1.
         21   -1    0    0  501  502  0.00000000000E+00 -0.00000000000E+00 -0.10678863388E+03  0.10678863388E+03  0.00000000000E+00 0.  1.
         23    2    1    2    0    0 -0.19367235232E+01  0.17891537171E+01  0.19268507885E+03  0.21338783583E+03  0.91650842322E+02 0.  0.
         24    2    1    2    0    0  0.24996405279E+02  0.19320758089E+02 -0.41916108522E+02  0.96444033962E+02  0.80909700056E+02 0.  0.
        -11    1    4    4    0    0  0.23448872824E+02 -0.15293572378E+02  0.13505423881E+02  0.31082784094E+02  0.00000000000E+00 0.  1.
         12    1    4    4    0    0  0.15475324549E+01  0.34614330467E+02 -0.55421532403E+02  0.65361249868E+02  0.00000000000E+00 0. -1.
        -11    1    3    3    0    0 -0.14532264561E+02 -0.40825661876E+02  0.64385808114E+02  0.77610912038E+02  0.00000000000E+00 0.  1.
         11    1    3    3    0    0  0.12595541037E+02  0.42614815593E+02  0.12829927074E+03  0.13577692379E+03  0.00000000000E+00 0. -1.
          1    1    1    2  501    0 -0.23059681756E+02 -0.21109911806E+02 -0.18292783301E+02  0.36221585002E+02  0.00000000000E+00 0. -1.
<scales pt_clust_5="13000.00000" pt_clust_6="13000.00000" pt_clust_7="13000.00000" pt_clust_8="13000.00000" pt_clust_9="31.26303"></scales>
<clustering>
<clus scale="   31.263">  2  9  1 -1</clus>
<clus scale="   80.910">  5  6 -1 -1</clus>
<clus scale="   81.066">  2  5  1 -1</clus>
<clus scale="   91.651">  7  8 -1 -1</clus>
<clus scale="   31.263">  2  5  1 -1</clus>
</clustering>
</event>
<event>
 9    2  0.1654290E-004  0.9364681E+02  0.7546771E-02  0.1294373E+00
          2   -1    0    0  502    0 -0.00000000000E+00  0.00000000000E+00  0.56354523700E+03  0.56354523700E+03  0.00000000000E+00 0. -1.
         21   -1    0    0  501  502  0.00000000000E+00 -0.00000000000E+00 -0.37706759969E+02  0.37706759969E+02  0.00000000000E+00 0.  1.
         23    2    1    2    0    0  0.30220367243E+02  0.25738227141E+02  0.11342870395E+03  0.14509694021E+03  0.81310050088E+02 0.  0.
         24    2    1    2    0    0 -0.64450231472E+02  0.19896296549E+02  0.12801826672E+03  0.16609864458E+03  0.81549912100E+02 0.  0.
        -11    1    4    4    0    0 -0.52407608381E+02 -0.13232030817E+02  0.29747660152E+02  0.61697385198E+02  0.00000000000E+00 0.  1.
         12    1    4    4    0    0 -0.12042623091E+02  0.33128327365E+02  0.98270606568E+02  0.10440125938E+03  0.00000000000E+00 0. -1.
        -11    1    3    3    0    0 -0.19922455031E+02  0.31536854864E+02  0.66115278128E+02  0.75912498517E+02  0.00000000000E+00 0.  1.
         11    1    3    3    0    0  0.50142822274E+02 -0.57986277231E+01  0.47313425820E+02  0.69184441690E+02  0.00000000000E+00 0. -1.
          1    1    1    2  501    0  0.34229864229E+02 -0.45634523689E+02  0.28439150636E+03  0.29005641218E+03  0.00000000000E+00 0. -1.
<scales pt_clust_5="13000.00000" pt_clust_6="13000.00000" pt_clust_7="13000.00000" pt_clust_8="13000.00000" pt_clust_9="57.04557"></scales>
<clustering>
<clus scale="   57.046">  2  9  1 -1</clus>
<clus scale="   81.310">  7  8 -1 -1</clus>
<clus scale="   81.550">  5  6 -1 -1</clus>
<clus scale="   93.438">  1  7  2 -1</clus>
<clus scale="   57.046">  2  5  1 -1</clus>
</clustering>
</event>
<event>
 9    2  0.1654290E-004  0.9335892E+02  0.7546771E-02  0.1296754E+00
         21   -1    0    0  501  502  0.00000000000E+00  0.00000000000E+00  0.74397305556E+02  0.74397305556E+02  0.00000000000E+00 0. -1.
          2   -1    0    0  502    0 -0.00000000000E+00 -0.00000000000E+00 -0.74319874844E+03  0.74319874844E+03  0.00000000000E+00 0. -1.
         24    2    1    2    0    0  0.40496754149E+02  0.27658036737E+02 -0.67506142723E+03  0.68159615676E+03  0.80376839253E+02 0.  0.
         23    2    1    2    0    0 -0.61108550586E+01 -0.43575470774E+02 -0.19004010722E+02  0.90458441297E+02  0.76716445274E+02 0.  0.
        -11    1    3    3    0    0 -0.13734664951E+02  0.30088780186E+02 -0.14313302630E+03  0.14690486354E+03  0.00000000000E+00 0.  1.
         12    1    3    3    0    0  0.54231419100E+02 -0.24307434491E+01 -0.53192840093E+03  0.53469129322E+03  0.00000000000E+00 0. -1.
        -11    1    4    4    0    0 -0.16894816640E+01 -0.20989428738E+02 -0.48600793985E+02  0.52966476596E+02  0.00000000000E+00 0. -1.
         11    1    4    4    0    0 -0.44213733946E+01 -0.22586042037E+02  0.29596783263E+02  0.37491964700E+02  0.00000000000E+00 0.  1.
          1    1    1    2  501    0 -0.34385899091E+02  0.15917434037E+02  0.25263995064E+02  0.45541455941E+02  0.00000000000E+00 0. -1.
<scales pt_clust_5="13000.00000" pt_clust_6="13000.00000" pt_clust_7="13000.00000" pt_clust_8="13000.00000" pt_clust_9="37.89135"></scales>
<clustering>
<clus scale="   37.891">  1  9  2 -1</clus>
<clus scale="   76.716">  7  8 -1 -1</clus>
<clus scale="   80.377">  5  6 -1 -1</clus>
<clus scale="   90.227">  1  7  2 -1</clus>
<clus scale="   37.891">  1  5  2 -1</clus>
</clustering>
</event>
<event>
 9    2  0.1654290E-004  0.1006273E+03  0.7546771E-02  0.1279123E+00
         21   -1    0    0  501  502  0.00000000000E+00  0.00000000000E+00  0.44107577502E+02  0.44107577502E+02  0.00000000000E+00 0.  1.
          2   -1    0    0  502    0 -0.00000000000E+00 -0.00000000000E+00 -0.40739998504E+03  0.40739998504E+03  0.00000000000E+00 0. -1.
         23    2    1    2    0    0  0.49224205066E+01 -0.52049053943E+02 -0.25039438683E+03  0.27123222508E+03  0.90201090502E+02 0.  0.
         24    2    1    2    0    0  0.46859079676E+01  0.32841608037E+02 -0.12350662986E+03  0.15632145380E+03  0.89899835081E+02 0.  0.
        -13    1    4    4    0    0  0.60604770257E+01  0.33260665583E+02 -0.10172059755E+01  0.33823600707E+02  0.00000000000E+00 0.  1.
         14    1    4    4    0    0 -0.13745690580E+01 -0.41905754633E+00 -0.12248942389E+03  0.12249785310E+03  0.00000000000E+00 0. -1.
        -11    1    3    3    0    0 -0.29158686367E+02 -0.26502162769E+01 -0.26692983821E+02  0.39620298109E+02  0.00000000000E+00 0. -1.
         11    1    3    3    0    0  0.34081106874E+02 -0.49398837666E+02 -0.22370140301E+03  0.23161192698E+03  0.00000000000E+00 0.  1.
          1    1    1    2  501    0 -0.96083284743E+01  0.19207445906E+02  0.10608609149E+02  0.23953883660E+02  0.00000000000E+00 0. -1.
<scales pt_clust_5="13000.00000" pt_clust_6="13000.00000" pt_clust_7="13000.00000" pt_clust_8="13000.00000" pt_clust_9="21.47664"></scales>
<clustering>
<clus scale="   21.477">  1  9  2 -1</clus>
<clus scale="   89.900">  5  6 -1 -1</clus>
<clus scale="   90.201">  7  8 -1 -1</clus>
<clus scale="  100.357">  1  5  2 -1</clus>
<clus scale="   21.477">  1  5  2 -1</clus>
</clustering>
</event>
<event>
 9    2  0.1654290E-004  0.8413732E+02  0.7546771E-02  0.1321275E+00
          2   -1    0    0  502    0 -0.00000000000E+00  0.00000000000E+00  0.37121638901E+03  0.37121638901E+03  0.00000000000E+00 0. -1.
         21   -1    0    0  501  502  0.00000000000E+00 -0.00000000000E+00 -0.47883476015E+02  0.47883476015E+02  0.00000000000E+00 0.  1.
         23    2    1    2    0    0  0.11525217502E+01  0.21556836929E+02  0.20324928116E+03  0.21774733422E+03  0.75083991260E+02 0.  0.
         24    2    1    2    0    0 -0.54482154195E+02 -0.22488609156E+02  0.45562186453E+02  0.10970994399E+03  0.80537670121E+02 0.  0.
        -11    1    4    4    0    0 -0.59070120801E+02  0.29592243877E+01  0.21537784289E+01  0.59183400898E+02  0.00000000000E+00 0.  1.
         12    1    4    4    0    0  0.45879666057E+01 -0.25447833543E+02  0.43408408024E+02  0.50526543092E+02  0.00000000000E+00 0. -1.
        -13    1    3    3    0    0  0.36187453017E+02  0.21136487195E+02  0.91646692439E+02  0.10077400003E+03  0.00000000000E+00 0. -1.
         13    1    3    3    0    0 -0.35034931267E+02  0.42034973332E+00  0.11160258872E+03  0.11697333419E+03  0.00000000000E+00 0.  1.
          1    1    1    2  501    0  0.53329632445E+02  0.93177222716E+00  0.74521445381E+02  0.91642586813E+02  0.00000000000E+00 0. -1.
<scales pt_clust_5="13000.00000" pt_clust_6="13000.00000" pt_clust_7="13000.00000" pt_clust_8="13000.00000" pt_clust_9="53.33780"></scales>
<clustering>
<clus scale="   53.338">  2  9  1 -1</clus>
<clus scale="   75.084">  7  8 -1 -1</clus>
<clus scale="   78.933">  1  7  2 -1</clus>
<clus scale="   80.538">  5  6 -1 -1</clus>
<clus scale="   53.338">  2  5  1 -1</clus>
</clustering>
</event>
<event>
 9    2  0.1654290E-004  0.1205869E+03  0.7546771E-02  0.1245180E+00
         -1   -1    0    0    0  501 -0.00000000000E+00  0.00000000000E+00  0.44886380807E+03  0.44886380807E+03  0.00000000000E+00 0.  1.
         21   -1    0    0  501  502  0.00000000000E+00 -0.00000000000E+00 -0.73097176429E+02  0.73097176429E+02  0.00000000000E+00 0.  1.
         23    2    1    2    0    0  0.53541681533E+02 -0.58651449636E+02  0.85749783667E+02  0.14792752216E+03  0.90679778379E+02 0.  0.
         24    2    1    2    0    0 -0.94433227211E+02  0.28259570870E+01  0.68531040873E+02  0.14198914142E+03  0.80862799123E+02 0.  0.
        -11    1    4    4    0    0 -0.87827025740E+02  0.30106927668E+02  0.65780485995E+02  0.11378526215E+03  0.00000000000E+00 0.  1.
         12    1    4    4    0    0 -0.66062014715E+01 -0.27280970581E+02  0.27505548776E+01  0.28203879270E+02  0.00000000000E+00 0. -1.
        -13    1    3    3    0    0  0.51037891196E+02  0.88344982354E+01  0.26972941240E+02  0.58399094650E+02  0.00000000000E+00 0.  1.
         13    1    3    3    0    0  0.25037903369E+01 -0.67485947872E+02  0.58776842428E+02  0.89528427508E+02  0.00000000000E+00 0. -1.
         -2    1    1    2    0  502  0.40891545679E+02  0.55825492549E+02  0.22148580710E+03  0.23204432092E+03  0.00000000000E+00 0.  1.
<scales pt_clust_5="13000.00000" pt_clust_6="13000.00000" pt_clust_7="13000.00000" pt_clust_8="13000.00000" pt_clust_9="69.19978"></scales>
<clustering>
<clus scale="   69.200">  2  9  1 -1</clus>
<clus scale="   80.863">  5  6 -1 -1</clus>
<clus scale="   90.680">  7  8 -1 -1</clus>
<clus scale="  113.390">  2  5  1 -1</clus>
<clus scale="   69.200">  2  5  1 -1</clus>
</clustering>
</event>
<event>
 9    2  0.1654290E-004  0.1353348E+03  0.7546771E-02  0.1235827E+00
         21   -1    0    0  501  502  0.00000000000E+00  0.00000000000E+00  0.27406783746E+03  0.27406783746E+03  0.00000000000E+00 0.  1.
         -1   -1    0    0    0  501 -0.00000000000E+00 -0.00000000000E+00 -0.11340841674E+03  0.11340841674E+03  0.00000000000E+00 0.  1.
         24    2    1    2    0    0  0.50068883524E+02 -0.17083089402E+02  0.68985422605E+02  0.11901304892E+03  0.81279716043E+02 0.  0.
         23    2    1    2    0    0 -0.43924337814E+02 -0.90554484341E+02  0.85977522581E+02  0.16050000527E+03  0.90767038164E+02 0.  0.
        -11    1    3    3    0    0  0.32165221933E+02  0.31401866408E+02  0.27117506944E+02  0.52497979949E+02  0.00000000000E+00 0.  1.
         12    1    3    3    0    0  0.17903661591E+02 -0.48484955809E+02  0.41867915660E+02  0.66515068969E+02  0.00000000000E+00 0. -1.
        -13    1    4    4    0    0 -0.71699996423E+02 -0.57473699826E+02  0.52341460761E+02  0.10575322299E+03  0.00000000000E+00 0.  1.
         13    1    4    4    0    0  0.27775658610E+02 -0.33080784515E+02  0.33636061821E+02  0.54746782281E+02  0.00000000000E+00 0. -1.
         -2    1    1    2    0  502 -0.61445457103E+01  0.10763757374E+03  0.56964755307E+01  0.10796320001E+03  0.00000000000E+00 0.  1.
<scales pt_clust_5="13000.00000" pt_clust_6="13000.00000" pt_clust_7="13000.00000" pt_clust_8="13000.00000" pt_clust_9="100.38353"></scales>
<clustering>
<clus scale="   81.280">  5  6 -1 -1</clus>
<clus scale="   90.767">  7  8 -1 -1</clus>
<clus scale="   96.980">  2  5  1 -1</clus>
<clus scale="  100.384">  1  9  2 -1</clus>
<clus scale="  100.384">  1  5  2 -1</clus>
</clustering>
</event>
<event>
 9    2  0.1654290E-004  0.3263902E+03  0.7546771E-02  0.1072745E+00
          2   -1    0    0  502    0 -0.00000000000E+00  0.00000000000E+00  0.10973647355E+04  0.10973647355E+04  0.00000000000E+00 0. -1.
         21   -1    0    0  501  502  0.00000000000E+00 -0.00000000000E+00 -0.77402233619E+02  0.77402233619E+02  0.00000000000E+00 0. -1.
         24    2    1    2    0    0  0.11792114823E+03 -0.12394402861E+03  0.19362646350E+03  0.27057593821E+03  0.80328149118E+02 0.  0.
         23    2    1    2    0    0  0.79748414077E+02 -0.18913642158E+02  0.26670324696E+03  0.29372364341E+03  0.91790093980E+02 0.  0.
        -11    1    3    3    0    0  0.27883789239E+02 -0.30032652697E+02  0.47887906291E+01  0.41260131435E+02  0.00000000000E+00 0.  1.
         12    1    3    3    0    0  0.90037358995E+02 -0.93911375914E+02  0.18883767287E+03  0.22931580677E+03  0.00000000000E+00 0. -1.
        -11    1    4    4    0    0  0.33289822239E+02 -0.12829245030E+02  0.16742995270E+02  0.39409766345E+02  0.00000000000E+00 0.  1.
         11    1    4    4    0    0  0.46458591838E+02 -0.60843971284E+01  0.24996025169E+03  0.25431387706E+03  0.00000000000E+00 0. -1.
          1    1    1    2  501    0 -0.19766956231E+03  0.14285767077E+03  0.55963279139E+03  0.61046738747E+03  0.00000000000E+00 0. -1.
<scales pt_clust_5="13000.00000" pt_clust_6="13000.00000" pt_clust_7="13000.00000" pt_clust_8="13000.00000" pt_clust_9="243.88856"></scales>
<clustering>
<clus scale="   80.328">  5  6 -1 -1</clus>
<clus scale="   91.790">  7  8 -1 -1</clus>
<clus scale="  120.796">  5  7 -1 -1</clus>
<clus scale="  243.889">  2  9  1 -1</clus>
<clus scale="  243.889">  2  5  1 -1</clus>
</clustering>
</event>
<event>
 9    2  0.1654290E-004  0.1169117E+03  0.7546771E-02  0.1250168E+00
         -1   -1    0    0    0  501 -0.00000000000E+00  0.00000000000E+00  0.50102474944E+03  0.50102474944E+03  0.00000000000E+00 0.  1.
         21   -1    0    0  501  502  0.00000000000E+00 -0.00000000000E+00 -0.11810718196E+03  0.11810718196E+03  0.00000000000E+00 0.  1.
         24    2    1    2    0    0  0.31524950425E+02 -0.79603032428E+02  0.39532808428E+03  0.41265267816E+03  0.81654597541E+02 0.  0.
         23    2    1    2    0    0  0.43698378675E+02  0.53649180522E+02  0.31041378728E+02  0.11581383042E+03  0.87529956323E+02 0.  0.
        -13    1    3    3    0    0  0.55062425645E+02 -0.74085365248E+02  0.33928776233E+03  0.35162010428E+03  0.00000000000E+00 0.  1.
         14    1    3    3    0    0 -0.23537475220E+02 -0.55176671804E+01  0.56040321948E+02  0.61032573884E+02  0.00000000000E+00 0. -1.
        -13    1    4    4    0    0 -0.68588634886E+01 -0.20146379153E+02  0.48986755853E+00  0.21287568474E+02  0.00000000000E+00 0.  1.
         13    1    4    4    0    0  0.50557242164E+02  0.73795559675E+02  0.30551511170E+02  0.94526261947E+02  0.00000000000E+00 0. -1.
         -2    1    1    2    0  502 -0.75223329100E+02  0.25953851906E+02 -0.43451895528E+02  0.90665422818E+02  0.00000000000E+00 0.  1.
<scales pt_clust_5="13000.00000" pt_clust_6="13000.00000" pt_clust_7="13000.00000" pt_clust_8="13000.00000" pt_clust_9="79.57482"></scales>
<clustering>
<clus scale="   79.575">  2  9  1 -1</clus>
<clus scale="   81.655">  5  6 -1 -1</clus>
<clus scale="   87.530">  7  8 -1 -1</clus>
<clus scale="  112.580">  1  5  2 -1</clus>
<clus scale="   79.575">  2  5  1 -1</clus>
</clustering>
</event>
<event>
 9    2  0.1654290E-004  0.1215201E+03  0.7546771E-02  0.1248178E+00
         21   -1    0    0  501  502  0.00000000000E+00  0.00000000000E+00  0.18553074683E+03  0.18553074683E+03  0.00000000000E+00 0. -1.
          4   -1    0    0  502    0 -0.00000000000E+00 -0.00000000000E+00 -0.16088897767E+03  0.16088897767E+03  0.00000000000E+00 0. -1.
         24    2    1    2    0    0  0.33581161318E+02 -0.55573997656E+02 -0.97273481465E+02  0.14421183123E+03  0.84372735285E+02 0.  0.
         23    2    1    2    0    0 -0.52208734781E+02  0.16882575066E+02  0.89794944010E+02  0.14858209004E+03  0.10489390918E+03 0.  0.
        -11    1    3    3    0    0  0.37373774028E+02  0.10408049596E+02 -0.48310168118E+02  0.61959654818E+02  0.00000000000E+00 0.  1.
         12    1    3    3    0    0 -0.37926127107E+01 -0.65982047251E+02 -0.48963313346E+02  0.82252176412E+02  0.00000000000E+00 0. -1.
        -11    1    4    4    0    0 -0.53054013413E+02  0.45178765556E+02  0.96938753255E+02  0.11938580770E+03  0.00000000000E+00 0. -1.
         11    1    4    4    0    0  0.84527863181E+00 -0.28296190490E+02 -0.71438092456E+01  0.29196282344E+02  0.00000000000E+00 0.  1.
          3    1    1    2  501    0  0.18627573464E+02  0.38691422589E+02  0.32120306620E+02  0.53625803234E+02  0.00000000000E+00 0. -1.
<scales pt_clust_5="13000.00000" pt_clust_6="13000.00000" pt_clust_7="13000.00000" pt_clust_8="13000.00000" pt_clust_9="42.94197"></scales>
<clustering>
<clus scale="   42.942">  1  9  2 -1</clus>
<clus scale="   84.373">  5  6 -1 -1</clus>
<clus scale="  104.322">  2  5  1 -1</clus>
<clus scale="  104.894">  7  8 -1 -1</clus>
<clus scale="   42.942">  1  5  2 -1</clus>
</clustering>
</event>
<event>
 9    2  0.1654290E-004  0.1064514E+03  0.7546771E-02  0.1271312E+00
         -3   -1    0    0    0  501 -0.00000000000E+00  0.00000000000E+00  0.10449313277E+03  0.10449313277E+03  0.00000000000E+00 0.  1.
         21   -1    0    0  501  502  0.00000000000E+00 -0.00000000000E+00 -0.32477877603E+03  0.32477877603E+03  0.00000000000E+00 0. -1.
         23    2    1    2    0    0 -0.56476770982E+02 -0.13861004841E+02  0.38664391770E+02  0.11370611833E+03  0.89735127116E+02 0.  0.
         24    2    1    2    0    0  0.43673017173E+02  0.32555252939E+02 -0.27247152435E+03  0.28917939820E+03  0.80105030034E+02 0.  0.
        -11    1    4    4    0    0  0.50455083132E+02 -0.65150585938E+00 -0.86475721542E+02  0.10012087839E+03  0.00000000000E+00 0.  1.
         12    1    4    4    0    0 -0.67820659586E+01  0.33206758798E+02 -0.18599580281E+03  0.18905851980E+03  0.00000000000E+00 0. -1.
        -13    1    3    3    0    0  0.91288801171E+00  0.26339443615E+02 -0.10222728228E+02  0.28268424556E+02  0.00000000000E+00 0. -1.
         13    1    3    3    0    0 -0.57389658994E+02 -0.40200448455E+02  0.48887119998E+02  0.85437693772E+02  0.00000000000E+00 0.  1.
         -4    1    1    2    0  502  0.12803753809E+02 -0.18694248098E+02  0.13521489322E+02  0.26386392271E+02  0.00000000000E+00 0.  1.
<scales pt_clust_5="13000.00000" pt_clust_6="13000.00000" pt_clust_7="13000.00000" pt_clust_8="13000.00000" pt_clust_9="22.65859"></scales>
<clustering>
<clus scale="   22.659">  2  9  1 -1</clus>
<clus scale="   80.105">  5  6 -1 -1</clus>
<clus scale="   89.735">  7  8 -1 -1</clus>
<clus scale="   98.470">  2  5  1 -1</clus>
<clus scale="   22.659">  2  5  1 -1</clus>
</clustering>
</event>
<event>
 9    2  0.1654290E-004  0.1461961E+03  0.7546771E-02  0.1220211E+00
          2   -1    0    0  502    0 -0.00000000000E+00  0.00000000000E+00  0.72760574512E+03  0.72760574512E+03  0.00000000000E+00 0. -1.
         21   -1    0    0  501  502  0.00000000000E+00 -0.00000000000E+00 -0.94875908196E+02  0.94875908196E+02  0.00000000000E+00 0. -1.
         23    2    1    2    0    0  0.31490954755E+00  0.47920883933E+02 -0.20565464823E+02  0.10828930087E+03  0.94905869448E+02 0.  0.
         24    2    1    2    0    0 -0.10453907140E+03 -0.10516137446E+03  0.44262273835E+03  0.47227898233E+03  0.71730164664E+02 0.  0.
        -13    1    4    4    0    0 -0.34074041706E+02 -0.67545009314E+02  0.13820693815E+03  0.15755800949E+03  0.00000000000E+00 0.  1.
         14    1    4    4    0    0 -0.70465029691E+02 -0.37616365142E+02  0.30441580020E+03  0.31472097285E+03  0.00000000000E+00 0. -1.
        -11    1    3    3    0    0 -0.40477037997E+02  0.49437587608E+02 -0.33336696250E+01  0.63981083350E+02  0.00000000000E+00 0. -1.
         11    1    3    3    0    0  0.40791947544E+02 -0.15167036747E+01 -0.17231795198E+02  0.44308217525E+02  0.00000000000E+00 0.  1.
          1    1    1    2  501    0  0.10422416185E+03  0.57240490523E+02  0.21067256340E+03  0.24191337011E+03  0.00000000000E+00 0. -1.
<scales pt_clust_5="13000.00000" pt_clust_6="13000.00000" pt_clust_7="13000.00000" pt_clust_8="13000.00000" pt_clust_9="127.38952"></scales>
<clustering>
<clus scale="   71.730">  5  6 -1 -1</clus>
<clus scale="   94.906">  7  8 -1 -1</clus>
<clus scale="  106.319">  1  7  2 -1</clus>
<clus scale="  127.390">  2  9  1 -1</clus>
<clus scale="  127.390">  2  5  1 -1</clus>
</clustering>
</event>
<event>
 9    2  0.1654290E-004  0.1266766E+03  0.7546771E-02  0.1235129E+00
         -1   -1    0    0    0  501 -0.00000000000E+00  0.00000000000E+00  0.65210884780E+03  0.65210884780E+03  0.00000000000E+00 0.  1.
         21   -1    0    0  501  502  0.00000000000E+00 -0.00000000000E+00 -0.54494408277E+02  0.54494408277E+02  0.00000000000E+00 0.  1.
         23    2    1    2    0    0 -0.61380995350E+02  0.49913391054E+02  0.20907882806E+03  0.24140474122E+03  0.91122552319E+02 0.  0.
         24    2    1    2    0    0  0.10835671275E+03 -0.32560351430E+02  0.98159048381E+02  0.17053532681E+03  0.81521440289E+02 0.  0.
        -11    1    4    4    0    0  0.10868478134E+03 -0.20845898861E+01  0.72162736756E+02  0.13047677105E+03  0.00000000000E+00 0.  1.
         12    1    4    4    0    0 -0.32806858755E+00 -0.30475761544E+02  0.25996311625E+02  0.40058555750E+02  0.00000000000E+00 0. -1.
        -11    1    3    3    0    0 -0.65601260826E+02  0.20317314620E+02  0.66044368088E+02  0.95279469202E+02  0.00000000000E+00 0.  1.
         11    1    3    3    0    0  0.42202654762E+01  0.29596076434E+02  0.14303445998E+03  0.14612527202E+03  0.00000000000E+00 0. -1.
         -2    1    1    2    0  502 -0.46975717398E+02 -0.17353039624E+02  0.29037656308E+03  0.29466318805E+03  0.00000000000E+00 0.  1.
<scales pt_clust_5="13000.00000" pt_clust_6="13000.00000" pt_clust_7="13000.00000" pt_clust_8="13000.00000" pt_clust_9="50.07842"></scales>
<clustering>
<clus scale="   50.078">  2  9  1 -1</clus>
<clus scale="   81.521">  5  6 -1 -1</clus>
<clus scale="   91.123">  7  8 -1 -1</clus>
<clus scale="  119.956">  2  5  1 -1</clus>
<clus scale="   50.078">  2  5  1 -1</clus>
</clustering>
</event>
<event>
 9    2  0.1654290E-004  0.1127737E+03  0.7546771E-02  0.1259992E+00
          2   -1    0    0  502    0 -0.00000000000E+00  0.00000000000E+00  0.31688599961E+03  0.31688599961E+03  0.00000000000E+00 0. -1.
         21   -1    0    0  501  502  0.00000000000E+00 -0.00000000000E+00 -0.12531932628E+03  0.12531932628E+03  0.00000000000E+00 0. -1.
         24    2    1    2    0    0 -0.42438015031E+02  0.88964947450E+01  0.44930425080E+01  0.91386867180E+02  0.80319607341E+02 0.  0.
         23    2    1    2    0    0  0.98849841773E+02  0.51408150151E+02 -0.18235837226E+01  0.14466050457E+03  0.92245579859E+02 0.  0.
        -13    1    3    3    0    0 -0.37725103037E+02  0.39454135520E+02 -0.12648890281E+02  0.56033977497E+02  0.00000000000E+00 0.  1.
         14    1    3    3    0    0 -0.47129119941E+01 -0.30557640775E+02  0.17141932789E+02  0.35352889683E+02  0.00000000000E+00 0. -1.
        -11    1    4    4    0    0  0.71455434192E+02 -0.48943239518E+01  0.25929700344E+02  0.76172060774E+02  0.00000000000E+00 0.  1.
         11    1    4    4    0    0  0.27394407581E+02  0.56302474102E+02 -0.27753284066E+02  0.68488443793E+02  0.00000000000E+00 0. -1.
          1    1    1    2  501    0 -0.56411826742E+02 -0.60304644896E+02  0.18889721454E+03  0.20615795414E+03  0.00000000000E+00 0. -1.
<scales pt_clust_5="13000.00000" pt_clust_6="13000.00000" pt_clust_7="13000.00000" pt_clust_8="13000.00000" pt_clust_9="82.57694"></scales>
<clustering>
<clus scale="   80.320">  5  6 -1 -1</clus>
<clus scale="   82.577">  2  9  1 -1</clus>
<clus scale="   92.246">  7  8 -1 -1</clus>
<clus scale="  103.247">  1  5  2 -1</clus>
<clus scale="   82.577">  2  5  1 -1</clus>
</clustering>
</event>
<event>
 9    2  0.1654290E-004  0.1380684E+03  0.7546771E-02  0.1219284E+00
         21   -1    0    0  501  502  0.00000000000E+00  0.00000000000E+00  0.53541823695E+03  0.53541823695E+03  0.00000000000E+00 0. -1.
          2   -1    0    0  502    0 -0.00000000000E+00 -0.00000000000E+00 -0.16194836792E+03  0.16194836792E+03  0.00000000000E+00 0. -1.
         24    2    1    2    0    0  0.19125520015E+02 -0.99231386031E+02 -0.75627296080E+02  0.15128139938E+03  0.83390169665E+02 0.  0.
         23    2    1    2    0    0  0.94783505514E+01  0.62079233110E+02  0.47745898010E+03  0.49128688044E+03  0.97221658590E+02 0.  0.
        -11    1    3    3    0    0  0.47829627442E+02 -0.31685629503E+02 -0.37895339290E+02  0.68758338535E+02  0.00000000000E+00 0.  1.
         12    1    3    3    0    0 -0.28704107427E+02 -0.67545756528E+02 -0.37731956790E+02  0.82523060846E+02  0.00000000000E+00 0. -1.
        -11    1    4    4    0    0 -0.29377353133E+02  0.62718231076E+02  0.38188573169E+03  0.38811508275E+03  0.00000000000E+00 0. -1.
         11    1    4    4    0    0  0.38855703684E+02 -0.63899796632E+00  0.95573248410E+02  0.10317179769E+03  0.00000000000E+00 0.  1.
          1    1    1    2  501    0 -0.28603870567E+02  0.37152152921E+02 -0.28361814999E+02  0.54798325048E+02  0.00000000000E+00 0. -1.
<scales pt_clust_5="13000.00000" pt_clust_6="13000.00000" pt_clust_7="13000.00000" pt_clust_8="13000.00000" pt_clust_9="46.88780"></scales>
<clustering>
<clus scale="   46.888">  1  9  2 -1</clus>
<clus scale="   83.390">  5  6 -1 -1</clus>
<clus scale="   97.222">  7  8 -1 -1</clus>
<clus scale="  128.704">  2  5  1 -1</clus>
<clus scale="   46.888">  1  5  2 -1</clus>
</clustering>
</event>
<event>
 9    2  0.1654290E-004  0.1711419E+03  0.7546771E-02  0.1178164E+00
         21   -1    0    0  501  502  0.00000000000E+00  0.00000000000E+00  0.44246482073E+03  0.44246482073E+03  0.00000000000E+00 0.  1.
         -3   -1    0    0    0  501 -0.00000000000E+00 -0.00000000000E+00 -0.20519348778E+03  0.20519348778E+03  0.00000000000E+00 0.  1.
         23    2    1    2    0    0  0.69043894678E+00 -0.15811885547E+03 -0.13487688922E+03  0.22738206189E+03  0.92243035855E+02 0.  0.
         24    2    1    2    0    0 -0.66158428893E+01  0.83230912981E+02  0.18479253588E+03  0.21842118097E+03  0.81168816219E+02 0.  0.
        -11    1    4    4    0    0  0.27597732842E+02  0.54348631726E+02  0.14937261862E+03  0.16133067849E+03  0.00000000000E+00 0.  1.
         12    1    4    4    0    0 -0.34213575731E+02  0.28882281254E+02  0.35419917262E+02  0.57090502481E+02  0.00000000000E+00 0. -1.
        -13    1    3    3    0    0  0.25347168164E+01 -0.13779964424E+03 -0.14869175428E+03  0.20274221201E+03  0.00000000000E+00 0.  1.
         13    1    3    3    0    0 -0.18442778696E+01 -0.20319211229E+02  0.13814865051E+02  0.24639849882E+02  0.00000000000E+00 0. -1.
         -4    1    1    2    0  502  0.59254039425E+01  0.74887942485E+02  0.18735568630E+03  0.20185506565E+03  0.00000000000E+00 0.  1.
<scales pt_clust_5="13000.00000" pt_clust_6="13000.00000" pt_clust_7="13000.00000" pt_clust_8="13000.00000" pt_clust_9="75.12200"></scales>
<clustering>
<clus scale="   75.122">  1  9  2 -1</clus>
<clus scale="   81.169">  5  6 -1 -1</clus>
<clus scale="   92.243">  7  8 -1 -1</clus>
<clus scale="  165.436">  1  5  2 -1</clus>
<clus scale="   75.122">  1  5  2 -1</clus>
</clustering>
</event>
<event>
 9    2  0.1654290E-004  0.2244178E+03  0.7546771E-02  0.1144233E+00
         21   -1    0    0  501  502  0.00000000000E+00  0.00000000000E+00  0.54346870998E+02  0.54346870998E+02  0.00000000000E+00 0.  1.
          2   -1    0    0  502    0 -0.00000000000E+00 -0.00000000000E+00 -0.20370686794E+04  0.20370686794E+04  0.00000000000E+00 0. -1.
         23    2    1    2    0    0 -0.11852460136E+03  0.86617383797E+02 -0.52262700520E+03  0.54698297050E+03  0.67087488837E+02 0.  0.
         24    2    1    2    0    0  0.28707219519E+03 -0.12549039618E+03 -0.10704171962E+04  0.11180899479E+04  0.78573995868E+02 0.  0.
        -11    1    4    4    0    0  0.22935162326E+03 -0.63059149132E+02 -0.77511777407E+03  0.81079355391E+03  0.00000000000E+00 0.  1.
         12    1    4    4    0    0  0.57720571926E+02 -0.62431247048E+02 -0.29529942217E+03  0.30729639400E+03  0.00000000000E+00 0. -1.
        -11    1    3    3    0    0 -0.33124351048E+02  0.58554546324E+02 -0.16401641233E+03  0.17727729985E+03  0.00000000000E+00 0. -1.
         11    1    3    3    0    0 -0.85400250311E+02  0.28062837474E+02 -0.35861059287E+03  0.36970567066E+03  0.00000000000E+00 0.  1.
          1    1    1    2  501    0 -0.16854759383E+03  0.38873012383E+02 -0.38967760697E+03  0.42634263198E+03  0.00000000000E+00 0. -1.
<scales pt_clust_5="13000.00000" pt_clust_6="13000.00000" pt_clust_7="13000.00000" pt_clust_8="13000.00000" pt_clust_9="210.21289"></scales>
<clustering>
<clus scale="   67.087">  7  8 -1 -1</clus>
<clus scale="   78.574">  5  6 -1 -1</clus>
<clus scale="  161.404">  2  7  1 -1</clus>
<clus scale="  210.213">  1  9  2 -1</clus>
<clus scale="  210.213">  1  5  2 -1</clus>
</clustering>
</event>
<event>
 9    2  0.1654290E-004  0.1355280E+03  0.7546771E-02  0.1236038E+00
         21   -1    0    0  501  502  0.00000000000E+00  0.00000000000E+00  0.34620802523E+03  0.34620802523E+03  0.00000000000E+00 0.  1.
         -1   -1    0    0    0  501 -0.00000000000E+00 -0.00000000000E+00 -0.51161880122E+03  0.51161880122E+03  0.00000000000E+00 0.  1.
         24    2    1    2    0    0  0.28582062650E+02 -0.42507258831E+02 -0.36042650906E+03  0.37303051564E+03  0.81367658230E+02 0.  0.
         23    2    1    2    0    0 -0.82670226247E+02 -0.44053517841E+02 -0.10537683051E+03  0.16753618134E+03  0.90493187086E+02 0.  0.
        -11    1    3    3    0    0  0.55221299350E+02 -0.31772795799E+02 -0.29110229712E+03  0.29799236541E+03  0.00000000000E+00 0.  1.
         12    1    3    3    0    0 -0.26639236700E+02 -0.10734463032E+02 -0.69324211948E+02  0.75038150235E+02  0.00000000000E+00 0. -1.
        -11    1    4    4    0    0 -0.30239627147E+02  0.18726212382E+02 -0.18771217191E+01  0.35617827925E+02  0.00000000000E+00 0. -1.
         11    1    4    4    0    0 -0.52430599100E+02 -0.62779730223E+02 -0.10349970879E+03  0.13191835342E+03  0.00000000000E+00 0.  1.
         -2    1    1    2    0  502  0.54088163597E+02  0.86560776671E+02  0.30039256357E+03  0.31726012947E+03  0.00000000000E+00 0.  1.
<scales pt_clust_5="13000.00000" pt_clust_6="13000.00000" pt_clust_7="13000.00000" pt_clust_8="13000.00000" pt_clust_9="100.89010"></scales>
<clustering>
<clus scale="   81.368">  5  6 -1 -1</clus>
<clus scale="   90.493">  7  8 -1 -1</clus>
<clus scale="   96.148">  2  5  1 -1</clus>
<clus scale="  100.890">  1  9  2 -1</clus>
<clus scale="  100.890">  1  5  2 -1</clus>
</clustering>
</event>
<event>
 9    2  0.1654290E-004  0.9349092E+02  0.7546771E-02  0.1300793E+00
          2   -1    0    0  502    0 -0.00000000000E+00  0.00000000000E+00  0.41879376195E+03  0.41879376195E+03  0.00000000000E+00 0. -1.
         21   -1    0    0  501  502  0.00000000000E+00 -0.00000000000E+00 -0.45192173284E+02  0.45192173284E+02  0.00000000000E+00 0.  1.
         24    2    1    2    0    0 -0.19153879583E+02 -0.20598600960E+01  0.31513639750E+03  0.32589485299E+03  0.80779898801E+02 0.  0.
         23    2    1    2    0    0  0.31074112039E+02 -0.15386269902E+02  0.28869441307E+02  0.10172670677E+03  0.91173134686E+02 0.  0.
        -11    1    3    3    0    0  0.15390997046E+02 -0.24773463547E+02  0.52789900113E+02  0.60310702534E+02  0.00000000000E+00 0.  1.
         12    1    3    3    0    0 -0.34544876629E+02  0.22713603451E+02  0.26234649739E+03  0.26558415046E+03  0.00000000000E+00 0. -1.
        -11    1    4    4    0    0  0.40972748983E+02 -0.45127666958E+02  0.34259465020E+02  0.69921265919E+02  0.00000000000E+00 0.  1.
         11    1    4    4    0    0 -0.98986369433E+01  0.29741397056E+02 -0.53900237129E+01  0.31805440852E+02  0.00000000000E+00 0. -1.
          1    1    1    2  501    0 -0.11920232457E+02  0.17446129998E+02  0.29595749855E+02  0.36364375468E+02  0.00000000000E+00 0. -1.
<scales pt_clust_5="13000.00000" pt_clust_6="13000.00000" pt_clust_7="13000.00000" pt_clust_8="13000.00000" pt_clust_9="21.12960"></scales>
<clustering>
<clus scale="   21.130">  2  9  1 -1</clus>
<clus scale="   80.780">  5  6 -1 -1</clus>
<clus scale="   83.387">  1  5  2 -1</clus>
<clus scale="   91.173">  7  8 -1 -1</clus>
<clus scale="   21.130">  2  5  1 -1</clus>
</clustering>
</event>
<event>
 9    2  0.1654290E-004  0.1222482E+03  0.7546771E-02  0.1254129E+00
         21   -1    0    0  501  502  0.00000000000E+00  0.00000000000E+00  0.13930140968E+03  0.13930140968E+03  0.00000000000E+00 0. -1.
         -1   -1    0    0    0  501 -0.00000000000E+00 -0.00000000000E+00 -0.29785859363E+03  0.29785859363E+03  0.00000000000E+00 0.  1.
         24    2    1    2    0    0 -0.54797804690E+02  0.21924281209E+01 -0.14748154015E+03  0.17289629666E+03  0.71656950644E+02 0.  0.
         23    2    1    2    0    0  0.65096243489E+02  0.70745380589E+02  0.64484410996E+02  0.15873975836E+03  0.10861695001E+03 0.  0.
        -11    1    3    3    0    0  0.52893658754E+01 -0.19503611238E+02 -0.67910944083E+02  0.70853825366E+02  0.00000000000E+00 0.  1.
         12    1    3    3    0    0 -0.60087170565E+02  0.21696039359E+02 -0.79570596065E+02  0.10204247130E+03  0.00000000000E+00 0. -1.
        -13    1    4    4    0    0  0.10438948902E+02  0.85411063024E+02  0.24559235782E+02  0.89482833008E+02  0.00000000000E+00 0.  1.
         13    1    4    4    0    0  0.54657294587E+02 -0.14665682435E+02  0.39925175214E+02  0.69256925348E+02  0.00000000000E+00 0. -1.
         -2    1    1    2    0  502 -0.10298438799E+02 -0.72937808710E+02 -0.75560054804E+02  0.10552394829E+03  0.00000000000E+00 0.  1.
<scales pt_clust_5="13000.00000" pt_clust_6="13000.00000" pt_clust_7="13000.00000" pt_clust_8="13000.00000" pt_clust_9="73.66130"></scales>
<clustering>
<clus scale="   71.657">  5  6 -1 -1</clus>
<clus scale="   73.661">  1  9  2 -1</clus>
<clus scale="   91.004">  2  5  1 -1</clus>
<clus scale="  108.617">  7  8 -1 -1</clus>
<clus scale="   73.661">  1  5  2 -1</clus>
</clustering>
</event>
<event>
 9    2  0.1654290E-004  0.1321985E+03  0.7546771E-02  0.1225011E+00
         21   -1    0    0  501  502  0.00000000000E+00  0.00000000000E+00  0.20452634197E+02  0.20452634197E+02  0.00000000000E+00 0. -1.
          2   -1    0    0  502    0 -0.00000000000E+00 -0.00000000000E+00 -0.19747296163E+04  0.19747296163E+04  0.00000000000E+00 0. -1.
         24    2    1    2    0    0  0.90608979358E+00  0.90792911421E+02 -0.11224249116E+04  0.11290857828E+04  0.82175719663E+02 0.  0.
         23    2    1    2    0    0 -0.25943683928E+02 -0.14422428494E+03 -0.47485747605E+03  0.50425819824E+03  0.85516015076E+02 0.  0.
        -11    1    3    3    0    0  0.21227607987E+02  0.67266513983E+02 -0.41301059801E+03  0.41899063153E+03  0.00000000000E+00 0.  1.
         12    1    3    3    0    0 -0.20321518193E+02  0.23526397438E+02 -0.70941431361E+03  0.71009515125E+03  0.00000000000E+00 0. -1.
        -13    1    4    4    0    0 -0.16766464188E+02 -0.64946521929E+02 -0.34784879950E+03  0.35425690162E+03  0.00000000000E+00 0.  1.
         13    1    4    4    0    0 -0.91772197397E+01 -0.79277763008E+02 -0.12700867655E+03  0.15000129662E+03  0.00000000000E+00 0. -1.
          1    1    1    2  501    0  0.25037594134E+02  0.53431373516E+02 -0.35699459442E+03  0.36183826946E+03  0.00000000000E+00 0. -1.
<scales pt_clust_5="13000.00000" pt_clust_6="13000.00000" pt_clust_7="13000.00000" pt_clust_8="13000.00000" pt_clust_9="59.00675"></scales>
<clustering>
<clus scale="   59.007">  1  9  2 -1</clus>
<clus scale="   82.176">  5  6 -1 -1</clus>
<clus scale="   85.516">  7  8 -1 -1</clus>
<clus scale="  130.063">  2  5  1 -1</clus>
<clus scale="   59.007">  1  5  2 -1</clus>
</clustering>
</event>
<event>
 9    2  0.1654290E-004  0.1230898E+03  0.7546771E-02  0.1243904E+00
         21   -1    0    0  501  502  0.00000000000E+00  0.00000000000E+00  0.13605746286E+03  0.13605746286E+03  0.00000000000E+00 0.  1.
          2   -1    0    0  502    0 -0.00000000000E+00 -0.00000000000E+00 -0.17632935568E+03  0.17632935568E+03  0.00000000000E+00 0. -1.
         24    2    1    2    0    0  0.72128820320E+02  0.33675425373E+02 -0.10896579826E+03  0.15591511698E+03  0.78098511628E+02 0.  0.
         23    2    1    2    0    0 -0.65719815670E+02 -0.12613624533E+02  0.49742092071E+02  0.12742267361E+03  0.96353849583E+02 0.  0.
        -13    1    3    3    0    0  0.19849432929E+02  0.52252530269E+02 -0.58577603464E+02  0.80967045979E+02  0.00000000000E+00 0.  1.
         14    1    3    3    0    0  0.52279387390E+02 -0.18577104896E+02 -0.50388194798E+02  0.74948071004E+02  0.00000000000E+00 0. -1.
        -13    1    4    4    0    0  0.10780412795E+02 -0.23224897037E+02 -0.12253202870E+02  0.28385808479E+02  0.00000000000E+00 0. -1.
         13    1    4    4    0    0 -0.76500228465E+02  0.10611272504E+02  0.61995294941E+02  0.99036865127E+02  0.00000000000E+00 0.  1.
          1    1    1    2  501    0 -0.64090046492E+01 -0.21061800840E+02  0.18951813364E+02  0.29049027952E+02  0.00000000000E+00 0. -1.
<scales pt_clust_5="13000.00000" pt_clust_6="13000.00000" pt_clust_7="13000.00000" pt_clust_8="13000.00000" pt_clust_9="22.01533"></scales>
<clustering>
<clus scale="   22.015">  1  9  2 -1</clus>
<clus scale="   78.099">  5  6 -1 -1</clus>
<clus scale="   96.354">  7  8 -1 -1</clus>
<clus scale="  109.391">  2  5  1 -1</clus>
<clus scale="   22.015">  1  5  2 -1</clus>
</clustering>
</event>
<event>
 9    2  0.1654290E-004  0.1345487E+03  0.7546771E-02  0.1223851E+00
         21   -1    0    0  501  502  0.00000000000E+00  0.00000000000E+00  0.60770400702E+02  0.60770400702E+02  0.00000000000E+00 0.  1.
         -1   -1    0    0    0  501 -0.00000000000E+00 -0.00000000000E+00 -0.91037480738E+03  0.91037480738E+03  0.00000000000E+00 0.  1.
         24    2    1    2    0    0 -0.19057252299E+02  0.90481558438E+02 -0.62553018082E+03  0.63736930458E+03  0.80009574568E+02 0.  0.
         23    2    1    2    0    0  0.72985419990E+02 -0.12597772519E+03 -0.11574587268E+03  0.20766778629E+03  0.92366355599E+02 0.  0.
        -13    1    3    3    0    0  0.18772466391E+02  0.68191439796E+02 -0.26889603434E+03  0.27804236231E+03  0.00000000000E+00 0.  1.
         14    1    3    3    0    0 -0.37829718690E+02  0.22290118642E+02 -0.35663414648E+03  0.35932694226E+03  0.00000000000E+00 0. -1.
        -11    1    4    4    0    0  0.27340994804E+01 -0.37613958755E+02 -0.81334787674E+02  0.89652846464E+02  0.00000000000E+00 0. -1.
         11    1    4    4    0    0  0.70251320510E+02 -0.88363766431E+02 -0.34411085007E+02  0.11801493983E+03  0.00000000000E+00 0.  1.
         -2    1    1    2    0  502 -0.53928167691E+02  0.35496166748E+02 -0.10832835318E+03  0.12610811721E+03  0.00000000000E+00 0.  1.
<scales pt_clust_5="13000.00000" pt_clust_6="13000.00000" pt_clust_7="13000.00000" pt_clust_8="13000.00000" pt_clust_9="64.56179"></scales>
<clustering>
<clus scale="   64.562">  1  9  2 -1</clus>
<clus scale="   80.010">  5  6 -1 -1</clus>
<clus scale="   92.366">  7  8 -1 -1</clus>
<clus scale="  126.386">  2  5  1 -1</clus>
<clus scale="   64.562">  1  5  2 -1</clus>
</clustering>
</event>
<event>
 9    2  0.1654290E-004  0.9734095E+02  0.7546771E-02  0.1298222E+00
         21   -1    0    0  501  502  0.00000000000E+00  0.00000000000E+00  0.25718797997E+03  0.25718797997E+03  0.00000000000E+00 0.  1.
          4   -1    0    0  502    0 -0.00000000000E+00 -0.00000000000E+00 -0.55672364141E+02  0.55672364141E+02  0.00000000000E+00 0. -1.
         24    2    1    2    0    0  0.78736390984E+01  0.20832229756E+02  0.18233965580E+02  0.81033946211E+02  0.75749897349E+02 0.  0.
         23    2    1    2    0    0 -0.95248975565E+01  0.11511066431E+02  0.17199836048E+03  0.19753167395E+03  0.95979674317E+02 0.  0.
        -13    1    3    3    0    0  0.38274530217E+02  0.25925475410E+02  0.21812591876E+01  0.46279885806E+02  0.00000000000E+00 0.  1.
         14    1    3    3    0    0 -0.30400891119E+02 -0.50932456539E+01  0.16052706392E+02  0.34754060405E+02  0.00000000000E+00 0. -1.
        -13    1    4    4    0    0  0.25342610207E+02 -0.90228382735E+01  0.72135010019E+01  0.27851285416E+02  0.00000000000E+00 0. -1.
         13    1    4    4    0    0 -0.34867507764E+02  0.20533904704E+02  0.16478485948E+03  0.16968038853E+03  0.00000000000E+00 0.  1.
          3    1    1    2  501    0  0.16512584581E+01 -0.32343296187E+02  0.11283289769E+02  0.34294723949E+02  0.00000000000E+00 0. -1.
<scales pt_clust_5="13000.00000" pt_clust_6="13000.00000" pt_clust_7="13000.00000" pt_clust_8="13000.00000" pt_clust_9="32.38544"></scales>
<clustering>
<clus scale="   32.385">  1  9  2 -1</clus>
<clus scale="   75.750">  5  6 -1 -1</clus>
<clus scale="   77.467">  2  5  1 -1</clus>
<clus scale="   95.980">  7  8 -1 -1</clus>
<clus scale="   32.385">  1  5  2 -1</clus>
</clustering>
</event>
<event>
 9    2  0.1654290E-004  0.8487206E+02  0.7546771E-02  0.1317019E+00
         21   -1    0    0  501  502  0.00000000000E+00  0.00000000000E+00  0.48000699717E+03  0.48000699717E+03  0.00000000000E+00 0.  1.
          2   -1    0    0  502    0 -0.00000000000E+00 -0.00000000000E+00 -0.24828188640E+02  0.24828188640E+02  0.00000000000E+00 0. -1.
         23    2    1    2    0    0 -0.11545833957E+01 -0.60066332873E+01  0.91513283146E+02  0.12432636651E+03  0.83934210615E+02 0.  0.
         24    2    1    2    0    0  0.15226538022E+02  0.25972297631E+02  0.27566679322E+03  0.28918289460E+03  0.82025349377E+02 0.  0.
        -13    1    4    4    0    0 -0.30871868001E+02  0.12825148733E+02  0.64557882121E+02  0.72699909338E+02  0.00000000000E+00 0.  1.
         14    1    4    4    0    0  0.46098406023E+02  0.13147148898E+02  0.21110891110E+03  0.21648298526E+03  0.00000000000E+00 0. -1.
        -13    1    3    3    0    0 -0.16726841113E+02  0.35337433113E+02  0.51976609245E+02  0.65039136689E+02  0.00000000000E+00 0.  1.
         13    1    3    3    0    0  0.15572257717E+02 -0.41344066400E+02  0.39536673900E+02  0.59287229822E+02  0.00000000000E+00 0. -1.
          1    1    1    2  501    0 -0.14071954626E+02 -0.19965664343E+02  0.87998732161E+02  0.91325924696E+02  0.00000000000E+00 0. -1.
<scales pt_clust_5="13000.00000" pt_clust_6="13000.00000" pt_clust_7="13000.00000" pt_clust_8="13000.00000" pt_clust_9="24.42637"></scales>
<clustering>
<clus scale="   24.426">  1  9  2 -1</clus>
<clus scale="   82.025">  5  6 -1 -1</clus>
<clus scale="   82.985">  1  5  2 -1</clus>
<clus scale="   83.934">  7  8 -1 -1</clus>
<clus scale="   24.426">  1  5  2 -1</clus>
</clustering>
</event>
<event>
 9    2  0.1654290E-004  0.2088295E+03  0.7546771E-02  0.1143407E+00
         21   -1    0    0  501  502  0.00000000000E+00  0.00000000000E+00  0.27422940814E+03  0.27422940814E+03  0.00000000000E+00 0.  1.
          2   -1    0    0  502    0 -0.00000000000E+00 -0.00000000000E+00 -0.22746988565E+03  0.22746988565E+03  0.00000000000E+00 0. -1.
         24    2    1    2    0    0  0.10165686872E+03  0.15046451086E+03 -0.73868026256E+02  0.21170115927E+03  0.79920007188E+02 0.  0.
         23    2    1    2    0    0 -0.10123126965E+03 -0.17530588254E+03  0.68440827600E+02  0.23219909694E+03  0.90842453328E+02 0.  0.
        -11    1    3    3    0    0  0.40207716587E+02  0.54293604160E+01 -0.19955997332E+02  0.45214823424E+02  0.00000000000E+00 0.  1.
         12    1    3    3    0    0  0.61449152129E+02  0.14503515045E+03 -0.53912028924E+02  0.16648633585E+03  0.00000000000E+00 0. -1.
        -11    1    4    4    0    0 -0.18737126438E+02 -0.50521873641E+02 -0.21091200792E+02  0.57865174105E+02  0.00000000000E+00 0. -1.
         11    1    4    4    0    0 -0.82494143209E+02 -0.12478400890E+03  0.89532028392E+02  0.17433392283E+03  0.00000000000E+00 0.  1.
          1    1    1    2  501    0 -0.42559907036E+00  0.24841371681E+02  0.52186721144E+02  0.57799037581E+02  0.00000000000E+00 0. -1.
<scales pt_clust_5="13000.00000" pt_clust_6="13000.00000" pt_clust_7="13000.00000" pt_clust_8="13000.00000" pt_clust_9="24.84502"></scales>
<clustering>
<clus scale="   24.845">  1  9  2 -1</clus>
<clus scale="   79.920">  5  6 -1 -1</clus>
<clus scale="   90.842">  7  8 -1 -1</clus>
<clus scale="  204.315">  2  5  1 -1</clus>
<clus scale="   24.845">  1  5  2 -1</clus>
</clustering>
</event>
<event>
 9    2  0.1654290E-004  0.1302490E+03  0.7546771E-02  0.1229984E+00
         -1   -1    0    0    0  501 -0.00000000000E+00  0.00000000000E+00  0.20801702819E+03  0.20801702819E+03  0.00000000000E+00 0.  1.
         21   -1    0    0  501  502  0.00000000000E+00 -0.00000000000E+00 -0.14392619153E+03  0.14392619153E+03  0.00000000000E+00 0.  1.
         23    2    1    2    0    0  0.74813785411E+02  0.34220219345E+01  0.13654606661E+02  0.12011336543E+03  0.92908339507E+02 0.  0.
         24    2    1    2    0    0 -0.10021621426E+03  0.69831391184E+02  0.19579695476E+02  0.14838243584E+03  0.81940649224E+02 0.  0.
        -11    1    4    4    0    0 -0.91558085777E+02  0.33832628128E+02  0.40702628646E+02  0.10575553780E+03  0.00000000000E+00 0.  1.
         12    1    4    4    0    0 -0.86581284805E+01  0.35998763056E+02 -0.21122933170E+02  0.42626898035E+02  0.00000000000E+00 0. -1.
        -11    1    3    3    0    0  0.37249600755E+02  0.19356561904E+02  0.50128334659E+02  0.65383936719E+02  0.00000000000E+00 0.  1.
         11    1    3    3    0    0  0.37564184655E+02 -0.15934539969E+02 -0.36473727998E+02  0.54729428710E+02  0.00000000000E+00 0. -1.
         -2    1    1    2    0  502  0.25402428847E+02 -0.73253413119E+02  0.30856534521E+02  0.83447418459E+02  0.00000000000E+00 0.  1.
<scales pt_clust_5="13000.00000" pt_clust_6="13000.00000" pt_clust_7="13000.00000" pt_clust_8="13000.00000" pt_clust_9="77.53291"></scales>
<clustering>
<clus scale="   77.533">  2  9  1 -1</clus>
<clus scale="   81.941">  5  6 -1 -1</clus>
<clus scale="   92.908">  7  8 -1 -1</clus>
<clus scale="  122.667">  2  5  1 -1</clus>
<clus scale="   77.533">  2  5  1 -1</clus>
</clustering>
</event>
<event>
 9    2  0.1654290E-004  0.9713300E+02  0.7546771E-02  0.1293149E+00
         21   -1    0    0  501  502  0.00000000000E+00  0.00000000000E+00  0.61232755950E+03  0.61232755950E+03  0.00000000000E+00 0. -1.
         -1   -1    0    0    0  501 -0.00000000000E+00 -0.00000000000E+00 -0.72428470894E+02  0.72428470894E+02  0.00000000000E+00 0.  1.
         23    2    1    2    0    0 -0.24373563598E+02 -0.17119054655E+02 -0.89631230147E+01  0.97712041653E+02  0.92629222576E+02 0.  0.
         24    2    1    2    0    0  0.56254562748E+02 -0.55570587051E+02  0.42660579663E+03  0.44128112267E+03  0.80522403930E+02 0.  0.
        -13    1    4    4    0    0  0.52694969064E+02 -0.43898872053E+02  0.15612630231E+03  0.17052651702E+03  0.00000000000E+00 0.  1.
         14    1    4    4    0    0  0.35595936839E+01 -0.11671714998E+02  0.27047949431E+03  0.27075460565E+03  0.00000000000E+00 0. -1.
        -11    1    3    3    0    0  0.24073853644E+02  0.85389476819E+01  0.22897527608E+02  0.34303947694E+02  0.00000000000E+00 0. -1.
         11    1    3    3    0    0 -0.48447417243E+02 -0.25658002336E+02 -0.31860650623E+02  0.63408093959E+02  0.00000000000E+00 0.  1.
         -2    1    1    2    0  502 -0.31880999150E+02  0.72689641705E+02  0.12225641500E+03  0.14576286607E+03  0.00000000000E+00 0.  1.
<scales pt_clust_5="13000.00000" pt_clust_6="13000.00000" pt_clust_7="13000.00000" pt_clust_8="13000.00000" pt_clust_9="79.37369"></scales>
<clustering>
<clus scale="   79.374">  1  9  2 -1</clus>
<clus scale="   80.522">  5  6 -1 -1</clus>
<clus scale="   85.665">  1  5  2 -1</clus>
<clus scale="   92.629">  7  8 -1 -1</clus>
<clus scale="   79.374">  1  5  2 -1</clus>
</clustering>
</event>
<event>
 9    2  0.1654290E-004  0.1438305E+03  0.7546771E-02  0.1212243E+00
          2   -1    0    0  502    0 -0.00000000000E+00  0.00000000000E+00  0.17574962509E+03  0.17574962509E+03  0.00000000000E+00 0. -1.
         21   -1    0    0  501  502  0.00000000000E+00 -0.00000000000E+00 -0.18854923537E+03  0.18854923537E+03  0.00000000000E+00 0.  1.
         24    2    1    2    0    0  0.63807112672E+02 -0.94596036537E+02  0.91315987964E+02  0.16706043905E+03  0.80937153905E+02 0.  0.
         23    2    1    2    0    0 -0.45051954203E+02  0.57457808968E+02 -0.93078428790E+02  0.15419399057E+03  0.98899516856E+02 0.  0.
        -11    1    3    3    0    0  0.18105672591E+02  0.13458311983E+02  0.15587892330E+02  0.27421231349E+02  0.00000000000E+00 0.  1.
         12    1    3    3    0    0  0.45701440082E+02 -0.10805434852E+03  0.75728095634E+02  0.13963920770E+03  0.00000000000E+00 0. -1.
        -11    1    4    4    0    0 -0.57733718965E+02  0.16260782628E+02 -0.10290049081E+02  0.60856227843E+02  0.00000000000E+00 0. -1.
         11    1    4    4    0    0  0.12681764762E+02  0.41197026340E+02 -0.82788379710E+02  0.93337762731E+02  0.00000000000E+00 0.  1.
          1    1    1    2  501    0 -0.18755158469E+02  0.37138227569E+02 -0.11037169458E+02  0.43044430834E+02  0.00000000000E+00 0. -1.
<scales pt_clust_5="13000.00000" pt_clust_6="13000.00000" pt_clust_7="13000.00000" pt_clust_8="13000.00000" pt_clust_9="41.60534"></scales>
<clustering>
<clus scale="   41.605">  2  9  1 -1</clus>
<clus scale="   80.937">  5  6 -1 -1</clus>
<clus scale="   98.900">  7  8 -1 -1</clus>
<clus scale="  132.125">  1  5  2 -1</clus>
<clus scale="   41.605">  2  5  1 -1</clus>
</clustering>
</event>
<event>
 9    2  0.1654290E-004  0.1030006E+03  0.7546771E-02  0.1279710E+00
         -1   -1    0    0    0  501 -0.00000000000E+00  0.00000000000E+00  0.32176274198E+03  0.32176274198E+03  0.00000000000E+00 0.  1.
         21   -1    0    0  501  502  0.00000000000E+00 -0.00000000000E+00 -0.10866167788E+03  0.10866167788E+03  0.00000000000E+00 0. -1.
         23    2    1    2    0    0  0.93172964452E+01 -0.34402499256E+02  0.53488084939E+02  0.11139746119E+03  0.90983928036E+02 0.  0.
         24    2    1    2    0    0 -0.86404792740E+02  0.41964651210E+02 -0.17648200557E+02  0.12558137444E+03  0.78945566453E+02 0.  0.
        -13    1    4    4    0    0 -0.24118352064E+02 -0.22522359653E+02  0.42995414307E+01  0.33278185755E+02  0.00000000000E+00 0.  1.
         14    1    4    4    0    0 -0.62286440676E+02  0.64487010863E+02 -0.21947741987E+02  0.92303188680E+02  0.00000000000E+00 0. -1.
        -11    1    3    3    0    0  0.47771778685E+02 -0.24586186148E+02  0.14243930926E+02  0.55583387412E+02  0.00000000000E+00 0. -1.
         11    1    3    3    0    0 -0.38454482239E+02 -0.98163131078E+01  0.39244154014E+02  0.55814073777E+02  0.00000000000E+00 0.  1.
         -2    1    1    2    0  502  0.77087496295E+02 -0.75621519539E+01  0.17726117972E+03  0.19344558424E+03  0.00000000000E+00 0.  1.
<scales pt_clust_5="13000.00000" pt_clust_6="13000.00000" pt_clust_7="13000.00000" pt_clust_8="13000.00000" pt_clust_9="77.45756"></scales>
<clustering>
<clus scale="   77.458">  2  9  1 -1</clus>
<clus scale="   78.946">  5  6 -1 -1</clus>
<clus scale="   90.984">  7  8 -1 -1</clus>
<clus scale="   92.539">  2  5  1 -1</clus>
<clus scale="   77.458">  2  5  1 -1</clus>
</clustering>
</event>
<event>
 9    2  0.1654290E-004  0.1047175E+03  0.7546771E-02  0.1275652E+00
          2   -1    0    0  502    0 -0.00000000000E+00  0.00000000000E+00  0.42270906954E+03  0.42270906954E+03  0.00000000000E+00 0. -1.
         21   -1    0    0  501  502  0.00000000000E+00 -0.00000000000E+00 -0.16631550144E+03  0.16631550144E+03  0.00000000000E+00 0. -1.
         24    2    1    2    0    0 -0.54029988319E+02 -0.21097827492E+01  0.32989578575E+03  0.34396155947E+03  0.80960694892E+02 0.  0.
         23    2    1    2    0    0  0.33712433042E+02 -0.76567722827E+01  0.56332598005E+02  0.11328566897E+03  0.92006124211E+02 0.  0.
        -11    1    3    3    0    0 -0.34271017113E+02  0.32770341059E+02  0.10093740218E+03  0.11152020904E+03  0.00000000000E+00 0.  1.
         12    1    3    3    0    0 -0.19758971207E+02 -0.34880123808E+02  0.22895838358E+03  0.23244135043E+03  0.00000000000E+00 0. -1.
        -13    1    4    4    0    0  0.55349148431E+02  0.10368247155E+02  0.73563666935E+01  0.56790359323E+02  0.00000000000E+00 0.  1.
         13    1    4    4    0    0 -0.21636715389E+02 -0.18025019437E+02  0.48976231311E+02  0.56495309646E+02  0.00000000000E+00 0. -1.
          1    1    1    2  501    0  0.20317555277E+02  0.97665550319E+01 -0.12983481566E+03  0.13177734254E+03  0.00000000000E+00 0. -1.
<scales pt_clust_5="13000.00000" pt_clust_6="13000.00000" pt_clust_7="13000.00000" pt_clust_8="13000.00000" pt_clust_9="22.54304"></scales>
<clustering>
<clus scale="   22.543">  2  9  1 -1</clus>
<clus scale="   80.961">  5  6 -1 -1</clus>
<clus scale="   92.006">  7  8 -1 -1</clus>
<clus scale="   95.159">  1  5  2 -1</clus>
<clus scale="   22.543">  2  5  1 -1</clus>
</clustering>
</event>
<event>
 9    2  0.1654290E-004  0.1565979E+03  0.7546771E-02  0.1213450E+00
          2   -1    0    0  502    0 -0.00000000000E+00  0.00000000000E+00  0.19235598194E+04  0.19235598194E+04  0.00000000000E+00 0. -1.
         21   -1    0    0  501  502  0.00000000000E+00 -0.00000000000E+00 -0.30667777427E+02  0.30667777427E+02  0.00000000000E+00 0. -1.
         23    2    1    2    0    0  0.45936335179E+02  0.34334570301E+01  0.15808779946E+03  0.18694236989E+03  0.88508540859E+02 0.  0.
         24    2    1    2    0    0 -0.16261701952E+03 -0.42804109980E+02  0.13581083162E+04  0.13709719023E+04  0.82639405808E+02 0.  0.
        -11    1    4    4    0    0 -0.20570808328E+02  0.10973145932E+02  0.66595115276E+02  0.70558326692E+02  0.00000000000E+00 0.  1.
         12    1    4    4    0    0 -0.14204621119E+03 -0.53777255911E+02  0.12915132010E+04  0.13004135756E+04  0.00000000000E+00 0. -1.
        -11    1    3    3    0    0  0.16991362310E+02 -0.42223088688E+02  0.78269222505E+02  0.90540415302E+02  0.00000000000E+00 0.  1.
         11    1    3    3    0    0  0.28944972869E+02  0.45656545718E+02  0.79818576959E+02  0.96401954591E+02  0.00000000000E+00 0. -1.
          1    1    1    2  501    0  0.11668068434E+03  0.39370652949E+02  0.37669592624E+03  0.39631332460E+03  0.00000000000E+00 0. -1.
<scales pt_clust_5="13000.00000" pt_clust_6="13000.00000" pt_clust_7="13000.00000" pt_clust_8="13000.00000" pt_clust_9="133.01744"></scales>
<clustering>
<clus scale="   82.639">  5  6 -1 -1</clus>
<clus scale="   88.509">  7  8 -1 -1</clus>
<clus scale="   99.778">  1  7  2 -1</clus>
<clus scale="  133.017">  2  9  1 -1</clus>
<clus scale="  133.017">  2  5  1 -1</clus>
</clustering>
</event>
<event>
 9    2  0.1654290E-004  0.1192523E+03  0.7546771E-02  0.1248287E+00
         21   -1    0    0  501  502  0.00000000000E+00  0.00000000000E+00  0.71578349447E+02  0.71578349447E+02  0.00000000000E+00 0. -1.
          2   -1    0    0  502    0 -0.00000000000E+00 -0.00000000000E+00 -0.51254688398E+03  0.51254688398E+03  0.00000000000E+00 0. -1.
         24    2    1    2    0    0 -0.46409788509E+02  0.82655230188E+02 -0.21917522365E+03  0.25196892821E+03  0.80404020891E+02 0.  0.
         23    2    1    2    0    0  0.42594534757E+02  0.42634701418E+01 -0.90511972707E+01  0.10231152382E+03  0.92483794075E+02 0.  0.
        -11    1    3    3    0    0 -0.49829970021E+02  0.20632473217E+02 -0.57813966186E+02  0.79064401278E+02  0.00000000000E+00 0.  1.
         12    1    3    3    0    0  0.34201815120E+01  0.62022756971E+02 -0.16136125747E+03  0.17290452694E+03  0.00000000000E+00 0. -1.
        -13    1    4    4    0    0  0.26290176706E+02  0.29914025224E+02  0.32101280388E+02  0.51151876788E+02  0.00000000000E+00 0. -1.
         13    1    4    4    0    0  0.16304358051E+02 -0.25650555082E+02 -0.41152477659E+02  0.51159647037E+02  0.00000000000E+00 0.  1.
          1    1    1    2  501    0  0.38152537516E+01 -0.86918700329E+02 -0.21274211361E+03  0.22984478138E+03  0.00000000000E+00 0. -1.
<scales pt_clust_5="13000.00000" pt_clust_6="13000.00000" pt_clust_7="13000.00000" pt_clust_8="13000.00000" pt_clust_9="87.00244"></scales>
<clustering>
<clus scale="   80.404">  5  6 -1 -1</clus>
<clus scale="   87.002">  1  9  2 -1</clus>
<clus scale="   92.484">  7  8 -1 -1</clus>
<clus scale="  110.148">  2  5  1 -1</clus>
<clus scale="   87.002">  1  5  2 -1</clus>
</clustering>
</event>
<event>
 9    2  0.1654290E-004  0.1437137E+03  0.7546771E-02  0.1227712E+00
         21   -1    0    0  501  502  0.00000000000E+00  0.00000000000E+00  0.32398833387E+03  0.32398833387E+03  0.00000000000E+00 0.  1.
         -1   -1    0    0    0  501 -0.00000000000E+00 -0.00000000000E+00 -0.13218140829E+03  0.13218140829E+03  0.00000000000E+00 0.  1.
         24    2    1    2    0    0 -0.21638866257E+02  0.45310803131E+02  0.53287215968E+02  0.10954653036E+03  0.81483774556E+02 0.  0.
         23    2    1    2    0    0  0.87852713792E+02 -0.12419042413E+03  0.41840405176E+01  0.17735319022E+03  0.91078466830E+02 0.  0.
        -13    1    3    3    0    0 -0.37506333771E+02 -0.79801414938E+01  0.32223211335E+02  0.50087354491E+02  0.00000000000E+00 0.  1.
         14    1    3    3    0    0  0.15867467514E+02  0.53290944625E+02  0.21064004633E+02  0.59459175873E+02  0.00000000000E+00 0. -1.
        -11    1    4    4    0    0  0.71981987371E+02 -0.46322462197E+02 -0.30192594201E+02  0.90767669103E+02  0.00000000000E+00 0.  1.
         11    1    4    4    0    0  0.15870726422E+02 -0.77867961929E+02  0.34376634718E+02  0.86585521114E+02  0.00000000000E+00 0. -1.
         -2    1    1    2    0  502 -0.66213847535E+02  0.78879620995E+02  0.13433566910E+03  0.16927002158E+03  0.00000000000E+00 0.  1.
<scales pt_clust_5="13000.00000" pt_clust_6="13000.00000" pt_clust_7="13000.00000" pt_clust_8="13000.00000" pt_clust_9="111.16805"></scales>
<clustering>
<clus scale="   81.484">  5  6 -1 -1</clus>
<clus scale="   91.078">  7  8 -1 -1</clus>
<clus scale="   95.713">  2  5  1 -1</clus>
<clus scale="  111.168">  1  9  2 -1</clus>
<clus scale="  111.168">  1  5  2 -1</clus>
</clustering>
</event>
<event>
 9    2  0.1654290E-004  0.1517172E+03  0.7546771E-02  0.1215109E+00
         21   -1    0    0  501  502  0.00000000000E+00  0.00000000000E+00  0.26434967057E+03  0.26434967057E+03  0.00000000000E+00 0. -1.
          2   -1    0    0  502    0 -0.00000000000E+00 -0.00000000000E+00 -0.38818302512E+03  0.38818302512E+03  0.00000000000E+00 0. -1.
         24    2    1    2    0    0 -0.68069492113E+02 -0.10315235045E+02 -0.43553082839E+02  0.11453334354E+03  0.80505626686E+02 0.  0.
         23    2    1    2    0    0  0.92836141801E+02  0.12457984739E+03 -0.26371510588E+03  0.32047205050E+03  0.94963100644E+02 0.  0.
        -13    1    3    3    0    0  0.43011148185E+01 -0.28970145598E+02 -0.28345659729E+01  0.29424542289E+02  0.00000000000E+00 0.  1.
         14    1    3    3    0    0 -0.72370606931E+02  0.18654910553E+02 -0.40718516866E+02  0.85108801255E+02  0.00000000000E+00 0. -1.
        -11    1    4    4    0    0  0.11165041420E+03  0.93055393299E+02 -0.20806162235E+03  0.25380063023E+03  0.00000000000E+00 0. -1.
         11    1    4    4    0    0 -0.18814272397E+02  0.31524454088E+02 -0.55653483530E+02  0.66671420267E+02  0.00000000000E+00 0.  1.
          1    1    1    2  501    0 -0.24766649689E+02 -0.11426461234E+03  0.18343483417E+03  0.21752730164E+03  0.00000000000E+00 0. -1.
<scales pt_clust_5="13000.00000" pt_clust_6="13000.00000" pt_clust_7="13000.00000" pt_clust_8="13000.00000" pt_clust_9="118.32204"></scales>
<clustering>
<clus scale="   80.506">  5  6 -1 -1</clus>
<clus scale="   94.963">  7  8 -1 -1</clus>
<clus scale="  105.929">  2  5  1 -1</clus>
<clus scale="  118.322">  1  9  2 -1</clus>
<clus scale="  118.322">  1  5  2 -1</clus>
</clustering>
</event>
<event>
 9    2  0.1654290E-004  0.1086580E+03  0.7546771E-02  0.1265530E+00
         21   -1    0    0  501  502  0.00000000000E+00  0.00000000000E+00  0.11484106413E+03  0.11484106413E+03  0.00000000000E+00 0. -1.
          2   -1    0    0  502    0 -0.00000000000E+00 -0.00000000000E+00 -0.21307063309E+03  0.21307063309E+03  0.00000000000E+00 0. -1.
         23    2    1    2    0    0  0.26159054924E+02  0.52791754712E+02 -0.11175265143E+03  0.15358855083E+03  0.87347136902E+02 0.  0.
         24    2    1    2    0    0  0.61192274560E+01 -0.86157929846E+02 -0.15790351080E+02  0.11941898860E+03  0.80937789880E+02 0.  0.
        -11    1    4    4    0    0  0.20402532141E+02 -0.73258818408E+02 -0.42021701858E+02  0.86884643173E+02  0.00000000000E+00 0.  1.
         12    1    4    4    0    0 -0.14283304685E+02 -0.12899111437E+02  0.26231350778E+02  0.32534345425E+02  0.00000000000E+00 0. -1.
        -11    1    3    3    0    0 -0.30001287572E+02  0.32281937102E+02 -0.60433856941E+02  0.74796067970E+02  0.00000000000E+00 0.  1.
         11    1    3    3    0    0  0.56160342496E+02  0.20509817610E+02 -0.51318794488E+02  0.78792482861E+02  0.00000000000E+00 0. -1.
          1    1    1    2  501    0 -0.32278282380E+02  0.33366175134E+02  0.29313433550E+02  0.54904157793E+02  0.00000000000E+00 0. -1.
<scales pt_clust_5="13000.00000" pt_clust_6="13000.00000" pt_clust_7="13000.00000" pt_clust_8="13000.00000" pt_clust_9="46.42401"></scales>
<clustering>
<clus scale="   46.424">  1  9  2 -1</clus>
<clus scale="   80.938">  5  6 -1 -1</clus>
<clus scale="   87.347">  7  8 -1 -1</clus>
<clus scale="  103.576">  1  5  2 -1</clus>
<clus scale="   46.424">  1  5  2 -1</clus>
</clustering>
</event>
<event>
 9    2  0.1654290E-004  0.9068212E+02  0.7546771E-02  0.1307205E+00
         21   -1    0    0  501  502  0.00000000000E+00  0.00000000000E+00  0.69867376644E+02  0.69867376644E+02  0.00000000000E+00 0. -1.
          4   -1    0    0  502    0 -0.00000000000E+00 -0.00000000000E+00 -0.22284200439E+03  0.22284200439E+03  0.00000000000E+00 0. -1.
         23    2    1    2    0    0  0.38719117454E+01  0.48222725049E+01 -0.15429468524E+03  0.17881048394E+03  0.90155938592E+02 0.  0.
         24    2    1    2    0    0 -0.87403906074E+01 -0.24423997213E+02  0.19250491305E+02  0.86890932435E+02  0.80663043930E+02 0.  0.
        -13    1    4    4    0    0  0.19562611975E+02  0.22393508251E+02  0.33722351367E+01  0.29925523703E+02  0.00000000000E+00 0.  1.
         14    1    4    4    0    0 -0.28303002582E+02 -0.46817505465E+02  0.15878256168E+02  0.56965408732E+02  0.00000000000E+00 0. -1.
        -13    1    3    3    0    0  0.38332759455E+02 -0.42156270764E+01 -0.13022574586E+03  0.13581574594E+03  0.00000000000E+00 0. -1.
         13    1    3    3    0    0 -0.34460847710E+02  0.90378995814E+01 -0.24068939376E+02  0.42994738008E+02  0.00000000000E+00 0.  1.
          3    1    1    2  501    0  0.48684788619E+01  0.19601724708E+02 -0.17930433813E+02  0.27007964653E+02  0.00000000000E+00 0. -1.
<scales pt_clust_5="13000.00000" pt_clust_6="13000.00000" pt_clust_7="13000.00000" pt_clust_8="13000.00000" pt_clust_9="20.19728"></scales>
<clustering>
<clus scale="   20.197">  1  9  2 -1</clus>
<clus scale="   80.663">  5  6 -1 -1</clus>
<clus scale="   81.251">  1  5  2 -1</clus>
<clus scale="   90.156">  7  8 -1 -1</clus>
<clus scale="   20.197">  1  5  2 -1</clus>
</clustering>
</event>
<event>
 9    2  0.1654290E-004  0.1430343E+03  0.7546771E-02  0.1209894E+00
          2   -1    0    0  502    0 -0.00000000000E+00  0.00000000000E+00  0.65009723578E+03  0.65009723578E+03  0.00000000000E+00 0. -1.
         21   -1    0    0  501  502  0.00000000000E+00 -0.00000000000E+00 -0.69151341561E+02  0.69151341561E+02  0.00000000000E+00 0.  1.
         23    2    1    2    0    0  0.27356480412E+02 -0.11226943366E+03  0.52968123233E+03  0.54957150453E+03  0.90076789199E+02 0.  0.
         24    2    1    2    0    0 -0.14536323353E+02  0.92539971269E+02  0.63818020257E+02  0.14300883478E+03  0.87199977843E+02 0.  0.
        -11    1    4    4    0    0 -0.36613552618E+02  0.87404997174E+02  0.24915317417E+02  0.97984482487E+02  0.00000000000E+00 0.  1.
         12    1    4    4    0    0  0.22077229264E+02  0.51349740956E+01  0.38902702840E+02  0.45024352291E+02  0.00000000000E+00 0. -1.
        -11    1    3    3    0    0  0.21135190989E+02  0.10247360206E+02  0.71973086937E+02  0.75708849764E+02  0.00000000000E+00 0.  1.
         11    1    3    3    0    0  0.62212894228E+01 -0.12251679387E+03  0.45770814540E+03  0.47386265477E+03  0.00000000000E+00 0. -1.
          1    1    1    2  501    0 -0.12820157059E+02  0.19729462395E+02 -0.12553358369E+02  0.26668238032E+02  0.00000000000E+00 0. -1.
<scales pt_clust_5="13000.00000" pt_clust_6="13000.00000" pt_clust_7="13000.00000" pt_clust_8="13000.00000" pt_clust_9="23.52888"></scales>
<clustering>
<clus scale="   23.529">  2  9  1 -1</clus>
<clus scale="   87.200">  5  6 -1 -1</clus>
<clus scale="   90.077">  7  8 -1 -1</clus>
<clus scale="  141.240">  2  5  1 -1</clus>
<clus scale="   23.529">  2  5  1 -1</clus>
</clustering>
</event>
<event>
 9    2  0.1654290E-004  0.1786172E+03  0.7546771E-02  0.1199268E+00
          2   -1    0    0  502    0 -0.00000000000E+00  0.00000000000E+00  0.80540295527E+03  0.80540295527E+03  0.00000000000E+00 0. -1.
         21   -1    0    0  501  502  0.00000000000E+00 -0.00000000000E+00 -0.77645171243E+02  0.77645171243E+02  0.00000000000E+00 0. -1.
         24    2    1    2    0    0 -0.52802714336E+01  0.41285928608E+02  0.21637938015E+03  0.23481085791E+03  0.81139963472E+02 0.  0.
         23    2    1    2    0    0 -0.45543799953E+02  0.13427169003E+03  0.97694454729E+02  0.19597852244E+03  0.93596208875E+02 0.  0.
        -11    1    3    3    0    0  0.18001036952E+01  0.36975943611E+02  0.28424967723E+02  0.46673756752E+02  0.00000000000E+00 0.  1.
         12    1    3    3    0    0 -0.70803751288E+01  0.43099849962E+01  0.18795441242E+03  0.18813710116E+03  0.00000000000E+00 0. -1.
        -11    1    4    4    0    0  0.28301807132E+02  0.23676674119E+02  0.22093995961E+02  0.43008392690E+02  0.00000000000E+00 0.  1.
         11    1    4    4    0    0 -0.73845607085E+02  0.11059501591E+03  0.75600458768E+02  0.15297012975E+03  0.00000000000E+00 0. -1.
          1    1    1    2  501    0  0.50824071387E+02 -0.17555761864E+03  0.41368394915E+03  0.45225874616E+03  0.00000000000E+00 0. -1.
<scales pt_clust_5="13000.00000" pt_clust_6="13000.00000" pt_clust_7="13000.00000" pt_clust_8="13000.00000" pt_clust_9="152.13107"></scales>
<clustering>
<clus scale="   81.140">  5  6 -1 -1</clus>
<clus scale="   91.193">  1  5  2 -1</clus>
<clus scale="   93.596">  7  8 -1 -1</clus>
<clus scale="  152.131">  2  9  1 -1</clus>
<clus scale="  152.131">  2  5  1 -1</clus>
</clustering>
</event>
<event>
 9    2  0.1654290E-004  0.8950581E+02  0.7546771E-02  0.1308395E+00
         21   -1    0    0  501  502  0.00000000000E+00  0.00000000000E+00  0.32762305661E+03  0.32762305661E+03  0.00000000000E+00 0. -1.
         -3   -1    0    0    0  501 -0.00000000000E+00 -0.00000000000E+00 -0.47106037410E+02  0.47106037410E+02  0.00000000000E+00 0.  1.
         24    2    1    2    0    0 -0.21745869531E+02 -0.81824851644E+01  0.26506170891E+02  0.88279818994E+02  0.80937713343E+02 0.  0.
         23    2    1    2    0    0 -0.36407292664E+01 -0.16978432040E+02  0.21808807222E+03  0.23577386684E+03  0.87894180561E+02 0.  0.
        -13    1    3    3    0    0 -0.50044325857E+02  0.85038947036E+01  0.10941952045E+02  0.51927613946E+02  0.00000000000E+00 0.  1.
         14    1    3    3    0    0  0.28298456326E+02 -0.16686379868E+02  0.15564218846E+02  0.36352205047E+02  0.00000000000E+00 0. -1.
        -11    1    4    4    0    0  0.32088620075E+02  0.19607446093E+02  0.76715502576E+02  0.85436525070E+02  0.00000000000E+00 0.  1.
         11    1    4    4    0    0 -0.35729349341E+02 -0.36585878132E+02  0.14137256964E+03  0.15033734177E+03  0.00000000000E+00 0. -1.
         -4    1    1    2    0  502  0.25386598798E+02  0.25160917204E+02  0.35922776095E+02  0.50675408192E+02  0.00000000000E+00 0.  1.
<scales pt_clust_5="13000.00000" pt_clust_6="13000.00000" pt_clust_7="13000.00000" pt_clust_8="13000.00000" pt_clust_9="35.74287"></scales>
<clustering>
<clus scale="   35.743">  1  9  2 -1</clus>
<clus scale="   80.938">  5  6 -1 -1</clus>
<clus scale="   82.685">  2  5  1 -1</clus>
<clus scale="   87.894">  7  8 -1 -1</clus>
<clus scale="   35.743">  1  5  2 -1</clus>
</clustering>
</event>
<event>
 9    2  0.1654290E-004  0.1037340E+03  0.7546771E-02  0.1275124E+00
         21   -1    0    0  501  502  0.00000000000E+00  0.00000000000E+00  0.95668757929E+02  0.95668757929E+02  0.00000000000E+00 0. -1.
          2   -1    0    0  502    0 -0.00000000000E+00 -0.00000000000E+00 -0.35368235971E+03  0.35368235971E+03  0.00000000000E+00 0. -1.
         24    2    1    2    0    0  0.50844228208E+02  0.10599456436E+02 -0.28304836815E+03  0.30007811384E+03  0.85047114437E+02 0.  0.
         23    2    1    2    0    0 -0.31749402457E+02 -0.42042107408E+02  0.10622088822E+00  0.10483557532E+03  0.90636213608E+02 0.  0.
        -13    1    3    3    0    0  0.43174421745E+02  0.36623989214E+02 -0.99038226676E+02  0.11407855899E+03  0.00000000000E+00 0.  1.
         14    1    3    3    0    0  0.76698064632E+01 -0.26024532777E+02 -0.18401014147E+03  0.18599955485E+03  0.00000000000E+00 0. -1.
        -11    1    4    4    0    0 -0.48348684037E+02 -0.12274951658E+02  0.31087130990E+02  0.58776520819E+02  0.00000000000E+00 0.  1.
         11    1    4    4    0    0  0.16599281581E+02 -0.29767155749E+02 -0.30980910102E+02  0.46059054497E+02  0.00000000000E+00 0. -1.
          1    1    1    2  501    0 -0.19094825752E+02  0.31442650972E+02  0.24928545480E+02  0.44437428485E+02  0.00000000000E+00 0. -1.
<scales pt_clust_5="13000.00000" pt_clust_6="13000.00000" pt_clust_7="13000.00000" pt_clust_8="13000.00000" pt_clust_9="36.78658"></scales>
<clustering>
<clus scale="   36.787">  1  9  2 -1</clus>
<clus scale="   85.047">  5  6 -1 -1</clus>
<clus scale="   90.636">  7  8 -1 -1</clus>
<clus scale="   98.888">  2  5  1 -1</clus>
<clus scale="   36.787">  1  5  2 -1</clus>
</clustering>
</event>
<event>
 9    2  0.1654290E-004  0.1463435E+03  0.7546771E-02  0.1219013E+00
          2   -1    0    0  502    0 -0.00000000000E+00  0.00000000000E+00  0.69831802807E+03  0.69831802807E+03  0.00000000000E+00 0. -1.
         21   -1    0    0  501  502  0.00000000000E+00 -0.00000000000E+00 -0.97867114893E+02  0.97867114893E+02  0.00000000000E+00 0. -1.
         24    2    1    2    0    0 -0.51210723489E+02 -0.45416093172E+02  0.45360067195E+03  0.46644312649E+03  0.84442056688E+02 0.  0.
         23    2    1    2    0    0 -0.75629122929E+02  0.59696342430E+02  0.15393408671E+03  0.20190441236E+03  0.88239850099E+02 0.  0.
        -11    1    3    3    0    0 -0.35781888744E+02 -0.29340164073E+02  0.81844025644E+02  0.94019324203E+02  0.00000000000E+00 0.  1.
         12    1    3    3    0    0 -0.15428834745E+02 -0.16075929099E+02  0.37175664631E+03  0.37242380229E+03  0.00000000000E+00 0. -1.
        -13    1    4    4    0    0 -0.68183032319E+02  0.82097567660E+02  0.12031025025E+03  0.16082130713E+03  0.00000000000E+00 0.  1.
         13    1    4    4    0    0 -0.74460906101E+01 -0.22401225231E+02  0.33623836455E+02  0.41083105228E+02  0.00000000000E+00 0. -1.
          1    1    1    2  501    0  0.12683984642E+03 -0.14280249257E+02 -0.70838454794E+01  0.12783760411E+03  0.00000000000E+00 0. -1.
<scales pt_clust_5="13000.00000" pt_clust_6="13000.00000" pt_clust_7="13000.00000" pt_clust_8="13000.00000" pt_clust_9="116.74818"></scales>
<clustering>
<clus scale="   84.442">  5  6 -1 -1</clus>
<clus scale="   88.240">  7  8 -1 -1</clus>
<clus scale="  108.700">  1  5  2 -1</clus>
<clus scale="  116.748">  2  9  1 -1</clus>
<clus scale="  116.748">  2  5  1 -1</clus>
</clustering>
</event>
<event>
 9    2  0.1654290E-004  0.2680811E+03  0.7546771E-02  0.1102383E+00
          2   -1    0    0  502    0 -0.00000000000E+00  0.00000000000E+00  0.19364840189E+04  0.19364840189E+04  0.00000000000E+00 0. -1.
         21   -1    0    0  501  502  0.00000000000E+00 -0.00000000000E+00 -0.27360911385E+02  0.27360911385E+02  0.00000000000E+00 0.  1.
         24    2    1    2    0    0 -0.12914440857E+03 -0.60402216990E+02  0.46690165834E+03  0.49480886241E+03  0.80696627381E+02 0.  0.
         23    2    1    2    0    0 -0.99653800890E+01 -0.38933172935E+02  0.39085788677E+03  0.40386735197E+03  0.93401550236E+02 0.  0.
        -13    1    3    3    0    0 -0.51498440943E+02 -0.48999304587E+02  0.12297326146E+03  0.14204029113E+03  0.00000000000E+00 0.  1.
         14    1    3    3    0    0 -0.77645967626E+02 -0.11402912404E+02  0.34392839688E+03  0.35276857128E+03  0.00000000000E+00 0. -1.
        -11    1    4    4    0    0 -0.24160110091E+02  0.21876934242E+02  0.73175956136E+02  0.80106377573E+02  0.00000000000E+00 0.  1.
         11    1    4    4    0    0  0.14194730002E+02 -0.60810107177E+02  0.31768193063E+03  0.32376097440E+03  0.00000000000E+00 0. -1.
          1    1    1    2  501    0  0.13910978866E+03  0.99335389925E+02  0.10513635624E+04  0.10651687159E+04  0.00000000000E+00 0. -1.
<scales pt_clust_5="13000.00000" pt_clust_6="13000.00000" pt_clust_7="13000.00000" pt_clust_8="13000.00000" pt_clust_9="170.93590"></scales>
<clustering>
<clus scale="   80.697">  5  6 -1 -1</clus>
<clus scale="   93.402">  7  8 -1 -1</clus>
<clus scale="   99.926">  5  7 -1 -1</clus>
<clus scale="  170.936">  2  9  1 -1</clus>
<clus scale="  170.936">  2  5  1 -1</clus>
</clustering>
</event>
<event>
 9    2  0.1654290E-004  0.1217849E+03  0.7546771E-02  0.1242352E+00
         21   -1    0    0  501  502  0.00000000000E+00  0.00000000000E+00  0.30970720075E+03  0.30970720075E+03  0.00000000000E+00 0. -1.
         -1   -1    0    0    0  501 -0.00000000000E+00 -0.00000000000E+00 -0.14968990383E+03  0.14968990383E+03  0.00000000000E+00 0.  1.
         24    2    1    2    0    0  0.84107001691E+02 -0.86583932866E+00 -0.10339543281E+03  0.15545993574E+03  0.80015240318E+02 0.  0.
         23    2    1    2    0    0 -0.89704687100E+02  0.23893406212E+02  0.21386823687E+03  0.24901668367E+03  0.87474912155E+02 0.  0.
        -11    1    3    3    0    0  0.48093001711E+02  0.12285636289E+02 -0.10598451338E+03  0.11703243460E+03  0.00000000000E+00 0.  1.
         12    1    3    3    0    0  0.36013999980E+02 -0.13151475618E+02  0.25890805704E+01  0.38427501138E+02  0.00000000000E+00 0. -1.
        -13    1    4    4    0    0 -0.99676438096E+02  0.29086717259E+01  0.14222472829E+03  0.17370010369E+03  0.00000000000E+00 0.  1.
         13    1    4    4    0    0  0.99717509957E+01  0.20984734486E+02  0.71643508576E+02  0.75316579984E+02  0.00000000000E+00 0. -1.
         -2    1    1    2    0  502  0.55976854093E+01 -0.23027566884E+02  0.49544492861E+02  0.54920485171E+02  0.00000000000E+00 0.  1.
<scales pt_clust_5="13000.00000" pt_clust_6="13000.00000" pt_clust_7="13000.00000" pt_clust_8="13000.00000" pt_clust_9="23.69816"></scales>
<clustering>
<clus scale="   23.698">  1  9  2 -1</clus>
<clus scale="   80.015">  5  6 -1 -1</clus>
<clus scale="   87.475">  7  8 -1 -1</clus>
<clus scale="  116.542">  2  5  1 -1</clus>
<clus scale="   23.698">  1  5  2 -1</clus>
</clustering>
</event>
<event>
 9    2  0.1654290E-004  0.9923835E+02  0.7546771E-02  0.1285804E+00
          2   -1    0    0  502    0 -0.00000000000E+00  0.00000000000E+00  0.91861412654E+02  0.91861412654E+02  0.00000000000E+00 0. -1.
         21   -1    0    0  501  502  0.00000000000E+00 -0.00000000000E+00 -0.23377871485E+03  0.23377871485E+03  0.00000000000E+00 0.  1.
         23    2    1    2    0    0  0.49164192787E+02  0.15961615105E+01 -0.24925516713E+02  0.10469750536E+03  0.88997868856E+02 0.  0.
         24    2    1    2    0    0 -0.22598642830E+02  0.55022926332E+02 -0.12212945491E+03  0.15819036959E+03  0.81057807734E+02 0.  0.
        -11    1    4    4    0    0 -0.50031476204E+02  0.47545432338E+02 -0.10275517842E+03  0.12378345382E+03  0.00000000000E+00 0.  1.
         12    1    4    4    0    0  0.27432833374E+02  0.74774939940E+01 -0.19374276490E+02  0.34406915771E+02  0.00000000000E+00 0. -1.
        -11    1    3    3    0    0  0.42723443080E+02 -0.34046130775E+02 -0.37606118377E+02  0.66322332202E+02  0.00000000000E+00 0. -1.
         11    1    3    3    0    0  0.64407497072E+01  0.35642292286E+02  0.12680601664E+02  0.38375173156E+02  0.00000000000E+00 0.  1.
          1    1    1    2  501    0 -0.26565549957E+02 -0.56619087842E+02  0.51376694362E+01  0.62752252548E+02  0.00000000000E+00 0. -1.
<scales pt_clust_5="13000.00000" pt_clust_6="13000.00000" pt_clust_7="13000.00000" pt_clust_8="13000.00000" pt_clust_9="62.54161"></scales>
<clustering>
<clus scale="   62.542">  2  9  1 -1</clus>
<clus scale="   81.058">  5  6 -1 -1</clus>
<clus scale="   88.998">  7  8 -1 -1</clus>
<clus scale="   92.185">  2  5  1 -1</clus>
<clus scale="   62.542">  2  5  1 -1</clus>
</clustering>
</event>
<event>
 9    2  0.1654290E-004  0.1559931E+03  0.7546771E-02  0.1194578E+00
         21   -1    0    0  501  502  0.00000000000E+00  0.00000000000E+00  0.15015391212E+03  0.15015391212E+03  0.00000000000E+00 0. -1.
          2   -1    0    0  502    0 -0.00000000000E+00 -0.00000000000E+00 -0.79102414105E+03  0.79102414105E+03  0.00000000000E+00 0. -1.
         24    2    1    2    0    0  0.12500152484E+03  0.32361267187E+02 -0.71482121332E+03  0.73109506261E+03  0.82812986506E+02 0.  0.
         23    2    1    2    0    0 -0.97054143301E+02 -0.50928972448E+02  0.15884504673E+02  0.14301935003E+03  0.90492817553E+02 0.  0.
        -13    1    3    3    0    0  0.17852835666E+02  0.40071267220E+02 -0.15645439490E+03  0.16248817766E+03  0.00000000000E+00 0.  1.
         14    1    3    3    0    0  0.10714868918E+03 -0.77100000330E+01 -0.55836681843E+03  0.56860688495E+03  0.00000000000E+00 0. -1.
        -13    1    4    4    0    0 -0.72798244570E+02  0.96112180820E+01  0.24103801430E+02  0.77284883185E+02  0.00000000000E+00 0.  1.
         13    1    4    4    0    0 -0.24255898731E+02 -0.60540190530E+02 -0.82192967575E+01  0.65734466848E+02  0.00000000000E+00 0. -1.
          1    1    1    2  501    0 -0.27947381541E+02  0.18567705261E+02  0.58066479721E+02  0.67063640528E+02  0.00000000000E+00 0. -1.
<scales pt_clust_5="13000.00000" pt_clust_6="13000.00000" pt_clust_7="13000.00000" pt_clust_8="13000.00000" pt_clust_9="33.55318"></scales>
<clustering>
<clus scale="   33.553">  1  9  2 -1</clus>
<clus scale="   82.813">  5  6 -1 -1</clus>
<clus scale="   90.493">  7  8 -1 -1</clus>
<clus scale="  151.667">  2  5  1 -1</clus>
<clus scale="   33.553">  1  5  2 -1</clus>
</clustering>
</event>
<event>
 9    2  0.1654290E-004  0.1253629E+03  0.7546771E-02  0.1237317E+00
         21   -1    0    0  501  502  0.00000000000E+00  0.00000000000E+00  0.59063683382E+02  0.59063683382E+02  0.00000000000E+00 0. -1.
          2   -1    0    0  502    0 -0.00000000000E+00 -0.00000000000E+00 -0.63117300062E+03  0.63117300062E+03  0.00000000000E+00 0. -1.
         24    2    1    2    0    0  0.45129789903E+02  0.60182955545E+02 -0.19568909466E+03  0.22476314131E+03  0.81028154667E+02 0.  0.
         23    2    1    2    0    0 -0.81643014405E+02 -0.86888094149E+02 -0.88726003094E+02  0.17424451956E+03  0.90960025639E+02 0.  0.
        -13    1    3    3    0    0  0.59571768630E+02  0.12866312708E+02 -0.10223497917E+03  0.11902238691E+03  0.00000000000E+00 0.  1.
         14    1    3    3    0    0 -0.14441978728E+02  0.47316642836E+02 -0.93454115493E+02  0.10574075440E+03  0.00000000000E+00 0. -1.
        -13    1    4    4    0    0 -0.98732791469E+02 -0.56774588037E+02 -0.77829732320E+02  0.13794558779E+03  0.00000000000E+00 0. -1.
         13    1    4    4    0    0  0.17089777064E+02 -0.30113506112E+02 -0.10896270773E+02  0.36298931764E+02  0.00000000000E+00 0.  1.
          1    1    1    2  501    0  0.36513224502E+02  0.26705138604E+02 -0.28769421948E+03  0.29122902313E+03  0.00000000000E+00 0. -1.
<scales pt_clust_5="13000.00000" pt_clust_6="13000.00000" pt_clust_7="13000.00000" pt_clust_8="13000.00000" pt_clust_9="45.23695"></scales>
<clustering>
<clus scale="   45.237">  1  9  2 -1</clus>
<clus scale="   81.028">  5  6 -1 -1</clus>
<clus scale="   90.960">  7  8 -1 -1</clus>
<clus scale="  118.354">  2  5  1 -1</clus>
<clus scale="   45.237">  1  5  2 -1</clus>
</clustering>
</event>
<event>
 9    2  0.1654290E-004  0.1214953E+03  0.7546771E-02  0.1245399E+00
         21   -1    0    0  501  502  0.00000000000E+00  0.00000000000E+00  0.14193853125E+03  0.14193853125E+03  0.00000000000E+00 0.  1.
          2   -1    0    0  502    0 -0.00000000000E+00 -0.00000000000E+00 -0.23776845106E+03  0.23776845106E+03  0.00000000000E+00 0. -1.
         24    2    1    2    0    0 -0.65344727471E+02 -0.26202565844E+02  0.10760979707E+02  0.11126679340E+03  0.85486798774E+02 0.  0.
         23    2    1    2    0    0  0.27152314322E+02  0.80053607332E+02  0.13702197281E+02  0.13122129724E+03  0.99425602435E+02 0.  0.
        -11    1    3    3    0    0 -0.77951920658E+02 -0.41184385365E+02  0.18723948362E+02  0.90129028478E+02  0.00000000000E+00 0.  1.
         12    1    3    3    0    0  0.12607193187E+02  0.14981819520E+02 -0.79629686542E+01  0.21137764924E+02  0.00000000000E+00 0. -1.
        -13    1    4    4    0    0 -0.37635181791E+02  0.27321812093E+02 -0.37668743525E+00  0.46508388683E+02  0.00000000000E+00 0. -1.
         13    1    4    4    0    0  0.64787496112E+02  0.52731795238E+02  0.14078884716E+02  0.84712908559E+02  0.00000000000E+00 0.  1.
          1    1    1    2  501    0  0.38192413150E+02 -0.53851041487E+02 -0.12029309680E+03  0.13721889166E+03  0.00000000000E+00 0. -1.
<scales pt_clust_5="13000.00000" pt_clust_6="13000.00000" pt_clust_7="13000.00000" pt_clust_8="13000.00000" pt_clust_9="66.01969"></scales>
<clustering>
<clus scale="   66.020">  1  9  2 -1</clus>
<clus scale="   85.487">  5  6 -1 -1</clus>
<clus scale="   99.426">  7  8 -1 -1</clus>
<clus scale="  110.380">  2  5  1 -1</clus>
<clus scale="   66.020">  1  5  2 -1</clus>
</clustering>
</event>
<event>
 9    2  0.1654290E-004  0.1177164E+03  0.7546771E-02  0.1249120E+00
         21   -1    0    0  501  502  0.00000000000E+00  0.00000000000E+00  0.13008910615E+03  0.13008910615E+03  0.00000000000E+00 0. -1.
         -1   -1    0    0    0  501 -0.00000000000E+00 -0.00000000000E+00 -0.22025586178E+03  0.22025586178E+03  0.00000000000E+00 0.  1.
         24    2    1    2    0    0  0.78264544629E+02  0.20288233779E+02 -0.15145709210E+03  0.19070512218E+03  0.83019524828E+02 0.  0.
         23    2    1    2    0    0 -0.57669095075E+02  0.10128666160E+02  0.60058123112E+02  0.12288554405E+03  0.89808487233E+02 0.  0.
        -13    1    3    3    0    0  0.83977837553E+02  0.22237559111E+02 -0.15891525289E+03  0.18111003240E+03  0.00000000000E+00 0.  1.
         14    1    3    3    0    0 -0.57132929242E+01 -0.19493253323E+01  0.74581607970E+01  0.95950897735E+01  0.00000000000E+00 0. -1.
        -13    1    4    4    0    0 -0.33044796165E+02 -0.35525926975E+02  0.50702122576E+02  0.70176600621E+02  0.00000000000E+00 0. -1.
         13    1    4    4    0    0 -0.24624298910E+02  0.45654593135E+02  0.93560005360E+01  0.52708943426E+02  0.00000000000E+00 0.  1.
         -2    1    1    2    0  502 -0.20595449554E+02 -0.30416899939E+02  0.12322133548E+01  0.36754301707E+02  0.00000000000E+00 0.  1.
<scales pt_clust_5="13000.00000" pt_clust_6="13000.00000" pt_clust_7="13000.00000" pt_clust_8="13000.00000" pt_clust_9="36.73364"></scales>
<clustering>
<clus scale="   36.734">  1  9  2 -1</clus>
<clus scale="   83.020">  5  6 -1 -1</clus>
<clus scale="   89.808">  7  8 -1 -1</clus>
<clus scale="  112.623">  2  5  1 -1</clus>
<clus scale="   36.734">  1  5  2 -1</clus>
</clustering>
</event>
<event>
 9    2  0.1654290E-004  0.9699263E+02  0.7546771E-02  0.1291718E+00
         21   -1    0    0  501  502  0.00000000000E+00  0.00000000000E+00  0.13450412657E+03  0.13450412657E+03  0.00000000000E+00 0.  1.
          4   -1    0    0  502    0 -0.00000000000E+00 -0.00000000000E+00 -0.88355329060E+02  0.88355329060E+02  0.00000000000E+00 0. -1.
         24    2    1    2    0    0  0.32996533635E+01  0.27094023280E+02 -0.10083561926E+02  0.86717002563E+02  0.81689574014E+02 0.  0.
         23    2    1    2    0    0 -0.15269065443E+02 -0.44331651120E+02  0.41112708602E+02  0.11027729348E+03  0.90952663501E+02 0.  0.
        -11    1    3    3    0    0 -0.36377711607E+02  0.21127774213E+02  0.78058884290E+01  0.42786126713E+02  0.00000000000E+00 0.  1.
         12    1    3    3    0    0  0.39677364971E+02  0.59662490670E+01 -0.17889450356E+02  0.43930875850E+02  0.00000000000E+00 0. -1.
        -11    1    4    4    0    0 -0.30295250275E+02  0.92016150881E+01  0.44451751340E+02  0.54574995251E+02  0.00000000000E+00 0.  1.
         11    1    4    4    0    0  0.15026184832E+02 -0.53533266208E+02 -0.33390427376E+01  0.55702298228E+02  0.00000000000E+00 0. -1.
          3    1    1    2  501    0  0.11969412080E+02  0.17237627840E+02  0.15119650831E+02  0.25865159585E+02  0.00000000000E+00 0. -1.
<scales pt_clust_5="13000.00000" pt_clust_6="13000.00000" pt_clust_7="13000.00000" pt_clust_8="13000.00000" pt_clust_9="20.98577"></scales>
<clustering>
<clus scale="   20.986">  1  9  2 -1</clus>
<clus scale="   81.690">  5  6 -1 -1</clus>
<clus scale="   88.365">  2  5  1 -1</clus>
<clus scale="   90.953">  7  8 -1 -1</clus>
<clus scale="   20.986">  1  5  2 -1</clus>
</clustering>
</event>
<event>
 9    2  0.1654290E-004  0.1034705E+03  0.7546771E-02  0.1281916E+00
         21   -1    0    0  501  502  0.00000000000E+00  0.00000000000E+00  0.31689524738E+02  0.31689524738E+02  0.00000000000E+00 0. -1.
          2   -1    0    0  502    0 -0.00000000000E+00 -0.00000000000E+00 -0.75006397424E+03  0.75006397424E+03  0.00000000000E+00 0. -1.
         24    2    1    2    0    0  0.13803130314E+02  0.41407708222E+02 -0.53730209587E+03  0.54482841124E+03  0.78989434479E+02 0.  0.
         23    2    1    2    0    0 -0.28621943567E+02  0.61385011085E+01 -0.10095143172E+03  0.14258738915E+03  0.96348716273E+02 0.  0.
        -13    1    3    3    0    0  0.21627459226E+02 -0.71204493144E+01 -0.48700314420E+02  0.53760286603E+02  0.00000000000E+00 0.  1.
         14    1    3    3    0    0 -0.78243289115E+01  0.48528157537E+02 -0.48860178145E+03  0.49106812464E+03  0.00000000000E+00 0. -1.
        -13    1    4    4    0    0 -0.15059846945E+02 -0.25284153620E+02 -0.10413648657E+03  0.10821504170E+03  0.00000000000E+00 0.  1.
         13    1    4    4    0    0 -0.13562096623E+02  0.31422654728E+02  0.31850548460E+01  0.34372347452E+02  0.00000000000E+00 0. -1.
          1    1    1    2  501    0  0.14818813253E+02 -0.47546209331E+02 -0.80120921907E+02  0.94337698589E+02  0.00000000000E+00 0. -1.
<scales pt_clust_5="13000.00000" pt_clust_6="13000.00000" pt_clust_7="13000.00000" pt_clust_8="13000.00000" pt_clust_9="49.80200"></scales>
<clustering>
<clus scale="   49.802">  1  9  2 -1</clus>
<clus scale="   78.989">  5  6 -1 -1</clus>
<clus scale="   87.535">  2  5  1 -1</clus>
<clus scale="   96.349">  7  8 -1 -1</clus>
<clus scale="   49.802">  1  5  2 -1</clus>
</clustering>
</event>
<event>
 9    2  0.1654290E-004  0.9311734E+02  0.7546771E-02  0.1303090E+00
          2   -1    0    0  502    0 -0.00000000000E+00  0.00000000000E+00  0.17154279534E+03  0.17154279534E+03  0.00000000000E+00 0. -1.
         21   -1    0    0  501  502  0.00000000000E+00 -0.00000000000E+00 -0.63657445106E+03  0.63657445106E+03  0.00000000000E+00 0. -1.
         23    2    1    2    0    0 -0.22480313513E+02  0.10471474653E+02  0.14479300017E+03  0.17194589735E+03  0.89360855198E+02 0.  0.
         24    2    1    2    0    0  0.64123089565E+02 -0.47965510570E+02 -0.50807383762E+03  0.52001131916E+03  0.76552509813E+02 0.  0.
        -11    1    4    4    0    0 -0.15688183642E+02 -0.19979562888E+02 -0.14576383233E+03  0.14796079500E+03  0.00000000000E+00 0.  1.
         12    1    4    4    0    0  0.79811273207E+02 -0.27985947682E+02 -0.36231000529E+03  0.37205052416E+03  0.00000000000E+00 0. -1.
        -11    1    3    3    0    0 -0.40579169049E+02 -0.88541198786E+01  0.23344753421E+02  0.47644956835E+02  0.00000000000E+00 0. -1.
         11    1    3    3    0    0  0.18098855536E+02  0.19325594531E+02  0.12144824675E+03  0.12430094052E+03  0.00000000000E+00 0.  1.
          1    1    1    2  501    0 -0.41642776052E+02  0.37494035917E+02 -0.10175081827E+03  0.11616002989E+03  0.00000000000E+00 0. -1.
<scales pt_clust_5="13000.00000" pt_clust_6="13000.00000" pt_clust_7="13000.00000" pt_clust_8="13000.00000" pt_clust_9="56.03502"></scales>
<clustering>
<clus scale="   56.035">  2  9  1 -1</clus>
<clus scale="   76.553">  5  6 -1 -1</clus>
<clus scale="   80.906">  2  5  1 -1</clus>
<clus scale="   89.361">  7  8 -1 -1</clus>
<clus scale="   56.035">  2  5  1 -1</clus>
</clustering>
</event>
<event>
 9    2  0.1654290E-004  0.1012147E+03  0.7546771E-02  0.1285097E+00
         21   -1    0    0  501  502  0.00000000000E+00  0.00000000000E+00  0.39765302555E+03  0.39765302555E+03  0.00000000000E+00 0. -1.
         -1   -1    0    0    0  501 -0.00000000000E+00 -0.00000000000E+00 -0.15688383066E+03  0.15688383066E+03  0.00000000000E+00 0.  1.
         24    2    1    2    0    0  0.37598995746E+02 -0.11379693544E+02 -0.13147211720E+03  0.15822519589E+03  0.78785234057E+02 0.  0.
         23    2    1    2    0    0 -0.45733267640E+02 -0.12452764903E+02  0.33791713949E+03  0.35374052833E+03  0.93261809435E+02 0.  0.
        -13    1    3    3    0    0  0.27472003626E+02  0.29315371028E+02 -0.93033972888E+02  0.10133815704E+03  0.00000000000E+00 0.  1.
         14    1    3    3    0    0  0.10126992120E+02 -0.40695064572E+02 -0.38438144314E+02  0.56887038842E+02  0.00000000000E+00 0. -1.
        -11    1    4    4    0    0  0.28874569829E+02 -0.59049585336E+01  0.10674977875E+03  0.11074350808E+03  0.00000000000E+00 0.  1.
         11    1    4    4    0    0 -0.74607837469E+02 -0.65478063698E+01  0.23116736074E+03  0.24299702025E+03  0.00000000000E+00 0. -1.
         -2    1    1    2    0  502  0.81342718942E+01  0.23832458447E+02  0.34324172599E+02  0.42571131997E+02  0.00000000000E+00 0.  1.
<scales pt_clust_5="13000.00000" pt_clust_6="13000.00000" pt_clust_7="13000.00000" pt_clust_8="13000.00000" pt_clust_9="25.18238"></scales>
<clustering>
<clus scale="   25.182">  1  9  2 -1</clus>
<clus scale="   78.785">  5  6 -1 -1</clus>
<clus scale="   88.055">  2  5  1 -1</clus>
<clus scale="   93.262">  7  8 -1 -1</clus>
<clus scale="   25.182">  1  5  2 -1</clus>
</clustering>
</event>
<event>
 9    2  0.1654290E-004  0.1054504E+03  0.7546771E-02  0.1273177E+00
         21   -1    0    0  501  502  0.00000000000E+00  0.00000000000E+00  0.18859615357E+03  0.18859615357E+03  0.00000000000E+00 0. -1.
          4   -1    0    0  502    0 -0.00000000000E+00 -0.00000000000E+00 -0.17264141945E+03  0.17264141945E+03  0.00000000000E+00 0. -1.
         24    2    1    2    0    0 -0.55929351042E+02  0.16228668195E+02 -0.10482323720E+03  0.14424826027E+03  0.80175978661E+02 0.  0.
         23    2    1    2    0    0  0.29709264056E+02 -0.26976549064E+02  0.14811638481E+03  0.17761420948E+03  0.89431366931E+02 0.  0.
        -13    1    3    3    0    0  0.63225325619E+01  0.28625425053E+02 -0.59257704382E+02  0.66112517015E+02  0.00000000000E+00 0.  1.
         14    1    3    3    0    0 -0.62251883604E+02 -0.12396756859E+02 -0.45565532818E+02  0.78135743253E+02  0.00000000000E+00 0. -1.
        -11    1    4    4    0    0  0.56057444182E+02 -0.20532155111E+02  0.13473409001E+03  0.14736784402E+03  0.00000000000E+00 0. -1.
         11    1    4    4    0    0 -0.26348180127E+02 -0.64443939527E+01  0.13382294802E+02  0.30246365461E+02  0.00000000000E+00 0.  1.
          3    1    1    2  501    0  0.26220086986E+02  0.10747880869E+02 -0.27338413489E+02  0.39375103261E+02  0.00000000000E+00 0. -1.
<scales pt_clust_5="13000.00000" pt_clust_6="13000.00000" pt_clust_7="13000.00000" pt_clust_8="13000.00000" pt_clust_9="28.33744"></scales>
<clustering>
<clus scale="   28.337">  1  9  2 -1</clus>
<clus scale="   80.176">  5  6 -1 -1</clus>
<clus scale="   89.431">  7  8 -1 -1</clus>
<clus scale="   97.724">  2  5  1 -1</clus>
<clus scale="   28.337">  1  5  2 -1</clus>
</clustering>
</event>
<event>
 9    2  0.1654290E-004  0.9570501E+02  0.7546771E-02  0.1295825E+00
          2   -1    0    0  502    0 -0.00000000000E+00  0.00000000000E+00  0.11272436232E+03  0.11272436232E+03  0.00000000000E+00 0. -1.
         21   -1    0    0  501  502  0.00000000000E+00 -0.00000000000E+00 -0.18737146214E+03  0.18737146214E+03  0.00000000000E+00 0. -1.
         24    2    1    2    0    0  0.36214990607E+02 -0.97001133226E+01  0.62097424728E+02  0.10610182870E+03  0.77433133432E+02 0.  0.
         23    2    1    2    0    0 -0.13021039272E+02  0.34148015422E+02 -0.12634881413E+03  0.15872743808E+03  0.88852362633E+02 0.  0.
        -13    1    3    3    0    0  0.10105135924E+02  0.30421271883E+02  0.64498570775E+01  0.32698137735E+02  0.00000000000E+00 0.  1.
         14    1    3    3    0    0  0.26109854683E+02 -0.40121385205E+02  0.55647567650E+02  0.73403690968E+02  0.00000000000E+00 0. -1.
        -13    1    4    4    0    0 -0.43480754712E+02 -0.76865088724E+01 -0.53468073877E+02  0.69343300852E+02  0.00000000000E+00 0. -1.
         13    1    4    4    0    0  0.30459715439E+02  0.41834524295E+02 -0.72880740253E+02  0.89384137225E+02  0.00000000000E+00 0.  1.
          1    1    1    2  501    0 -0.23193951335E+02 -0.24447902100E+02 -0.10395710420E+02  0.35266557682E+02  0.00000000000E+00 0. -1.
<scales pt_clust_5="13000.00000" pt_clust_6="13000.00000" pt_clust_7="13000.00000" pt_clust_8="13000.00000" pt_clust_9="33.69954"></scales>
<clustering>
<clus scale="   33.700">  2  9  1 -1</clus>
<clus scale="   77.433">  5  6 -1 -1</clus>
<clus scale="   85.209">  1  5  2 -1</clus>
<clus scale="   88.852">  7  8 -1 -1</clus>
<clus scale="   33.700">  2  5  1 -1</clus>
</clustering>
</event>
<event>
 9    2  0.1654290E-004  0.1809846E+03  0.7546771E-02  0.1183141E+00
          2   -1    0    0  502    0 -0.00000000000E+00  0.00000000000E+00  0.92804939715E+03  0.92804939715E+03  0.00000000000E+00 0. -1.
         21   -1    0    0  501  502  0.00000000000E+00 -0.00000000000E+00 -0.87944230728E+02  0.87944230728E+02  0.00000000000E+00 0.  1.
         24    2    1    2    0    0 -0.17446132919E+02  0.94725938800E+02  0.24100225371E+02  0.12739572810E+03  0.79821548722E+02 0.  0.
         23    2    1    2    0    0  0.16524263378E+03 -0.73723092196E+02  0.46525747641E+03  0.50740410499E+03  0.90852540191E+02 0.  0.
        -13    1    3    3    0    0 -0.37867073924E+02  0.86220811039E+02 -0.68779749766E+00  0.94172270915E+02  0.00000000000E+00 0.  1.
         14    1    3    3    0    0  0.20420941005E+02  0.85051277610E+01  0.24788022868E+02  0.33223457187E+02  0.00000000000E+00 0. -1.
        -13    1    4    4    0    0  0.12914436482E+03 -0.71616204738E+02  0.43770189180E+03  0.46194165631E+03  0.00000000000E+00 0.  1.
         13    1    4    4    0    0  0.36098268961E+02 -0.21068874583E+01  0.27555584611E+02  0.45462448680E+02  0.00000000000E+00 0. -1.
          1    1    1    2  501    0 -0.14779650086E+03 -0.21002846604E+02  0.35074746464E+03  0.38119379478E+03  0.00000000000E+00 0. -1.
<scales pt_clust_5="13000.00000" pt_clust_6="13000.00000" pt_clust_7="13000.00000" pt_clust_8="13000.00000" pt_clust_9="156.52874"></scales>
<clustering>
<clus scale="   79.822">  5  6 -1 -1</clus>
<clus scale="   90.853">  7  8 -1 -1</clus>
<clus scale="  125.095">  1  5  2 -1</clus>
<clus scale="  156.529">  2  9  1 -1</clus>
<clus scale="  156.529">  2  5  1 -1</clus>
</clustering>
</event>
<event>
 9    2  0.1654290E-004  0.1228357E+03  0.7546771E-02  0.1241748E+00
         -3   -1    0    0    0  501 -0.00000000000E+00  0.00000000000E+00  0.16756527395E+03  0.16756527395E+03  0.00000000000E+00 0.  1.
         21   -1    0    0  501  502  0.00000000000E+00 -0.00000000000E+00 -0.22247686375E+03  0.22247686375E+03  0.00000000000E+00 0. -1.
         23    2    1    2    0    0 -0.23889256262E+02  0.74191757188E+02  0.97497730725E+02  0.15432214305E+03  0.90743611013E+02 0.  0.
         24    2    1    2    0    0  0.24121568389E+02 -0.97491528038E+02 -0.62199163650E+02  0.14254915321E+03  0.79781432817E+02 0.  0.
        -13    1    4    4    0    0  0.21112212377E+02 -0.14470697828E+02  0.14554855403E+02  0.29444361479E+02  0.00000000000E+00 0.  1.
         14    1    4    4    0    0  0.30093560119E+01 -0.83020830210E+02 -0.76754019053E+02  0.11310479173E+03  0.00000000000E+00 0. -1.
        -13    1    3    3    0    0 -0.10755674076E+02 -0.20610542266E+02  0.25856235975E+02  0.34771021212E+02  0.00000000000E+00 0. -1.
         13    1    3    3    0    0 -0.13133582186E+02  0.94802299454E+02  0.71641494750E+02  0.11955112184E+03  0.00000000000E+00 0.  1.
         -4    1    1    2    0  502 -0.23231212737E+00  0.23299770850E+02 -0.90210156874E+02  0.93170841436E+02  0.00000000000E+00 0.  1.
<scales pt_clust_5="13000.00000" pt_clust_6="13000.00000" pt_clust_7="13000.00000" pt_clust_8="13000.00000" pt_clust_9="23.30093"></scales>
<clustering>
<clus scale="   23.301">  2  9  1 -1</clus>
<clus scale="   79.781">  5  6 -1 -1</clus>
<clus scale="   90.744">  7  8 -1 -1</clus>
<clus scale="  114.975">  2  5  1 -1</clus>
<clus scale="   23.301">  2  5  1 -1</clus>
</clustering>
</event>
<event>
 9    2  0.1654290E-004  0.1279511E+03  0.7546771E-02  0.1230701E+00
         21   -1    0    0  501  502  0.00000000000E+00  0.00000000000E+00  0.15065686809E+03  0.15065686809E+03  0.00000000000E+00 0.  1.
          2   -1    0    0  502    0 -0.00000000000E+00 -0.00000000000E+00 -0.13450065534E+03  0.13450065534E+03  0.00000000000E+00 0. -1.
         23    2    1    2    0    0  0.10681951338E+03 -0.27420440505E+02 -0.10649623800E+02  0.13614449317E+03  0.79117757416E+02 0.  0.
         24    2    1    2    0    0 -0.83322134669E+02  0.36043522565E+02  0.13578234580E+02  0.12070307080E+03  0.78378244439E+02 0.  0.
        -11    1    4    4    0    0 -0.89567411462E+02  0.87164576659E+01  0.19437058479E+02  0.92065721485E+02  0.00000000000E+00 0.  1.
         12    1    4    4    0    0  0.62452767936E+01  0.27327064899E+02 -0.58588238987E+01  0.28637349314E+02  0.00000000000E+00 0. -1.
        -13    1    3    3    0    0  0.52699598349E+02 -0.27077136547E+02 -0.42894340899E+02  0.73146042072E+02  0.00000000000E+00 0. -1.
         13    1    3    3    0    0  0.54119915029E+02 -0.34330395760E+00  0.32244717098E+02  0.62998451101E+02  0.00000000000E+00 0.  1.
          1    1    1    2  501    0 -0.23497378709E+02 -0.86230820606E+01  0.13227601978E+02  0.28309959458E+02  0.00000000000E+00 0. -1.
<scales pt_clust_5="13000.00000" pt_clust_6="13000.00000" pt_clust_7="13000.00000" pt_clust_8="13000.00000" pt_clust_9="25.02967"></scales>
<clustering>
<clus scale="   25.030">  1  9  2 -1</clus>
<clus scale="   78.378">  5  6 -1 -1</clus>
<clus scale="   79.118">  7  8 -1 -1</clus>
<clus scale="  127.495">  1  5  2 -1</clus>
<clus scale="   25.030">  1  5  2 -1</clus>
</clustering>
</event>
<event>
 9    2  0.1654290E-004  0.9465686E+02  0.7546771E-02  0.1298444E+00
          4   -1    0    0  502    0 -0.00000000000E+00  0.00000000000E+00  0.11902197251E+03  0.11902197251E+03  0.00000000000E+00 0. -1.
         21   -1    0    0  501  502  0.00000000000E+00 -0.00000000000E+00 -0.28749842669E+03  0.28749842669E+03  0.00000000000E+00 0. -1.
         23    2    1    2    0    0  0.15993413066E+00  0.28694110530E+02  0.80595709500E+02  0.12521088388E+03  0.91426032913E+02 0.  0.
         24    2    1    2    0    0 -0.66693192622E+01 -0.41825680524E+01 -0.92535947496E+02  0.12273216893E+03  0.80239080352E+02 0.  0.
        -13    1    4    4    0    0  0.33211721261E+02  0.96354732636E+01 -0.60719673228E+02  0.69876601885E+02  0.00000000000E+00 0.  1.
         14    1    4    4    0    0 -0.39881040524E+02 -0.13818041316E+02 -0.31816274268E+02  0.52855567042E+02  0.00000000000E+00 0. -1.
        -11    1    3    3    0    0 -0.30066012097E+02  0.23089871762E+02 -0.10975925637E+01  0.37925083663E+02  0.00000000000E+00 0.  1.
         11    1    3    3    0    0  0.30225946228E+02  0.56042387683E+01  0.81693302064E+02  0.87285800217E+02  0.00000000000E+00 0. -1.
          3    1    1    2  501    0  0.65093851316E+01 -0.24511542478E+02 -0.15653621619E+03  0.15857734639E+03  0.00000000000E+00 0. -1.
<scales pt_clust_5="13000.00000" pt_clust_6="13000.00000" pt_clust_7="13000.00000" pt_clust_8="13000.00000" pt_clust_9="25.36115"></scales>
<clustering>
<clus scale="   25.361">  2  9  1 -1</clus>
<clus scale="   80.239">  5  6 -1 -1</clus>
<clus scale="   83.902">  2  5  1 -1</clus>
<clus scale="   91.426">  7  8 -1 -1</clus>
<clus scale="   25.361">  2  5  1 -1</clus>
</clustering>
</event>
<event>
 9    2  0.3061939E-004  0.1434247E+03  0.7546771E-02  0.1211106E+00
         21   -1    0    0  501  502  0.00000000000E+00  0.00000000000E+00  0.16137318057E+03  0.16137318057E+03  0.00000000000E+00 0. -1.
          2   -1    0    0  502    0 -0.00000000000E+00 -0.00000000000E+00 -0.76289887320E+03  0.76289887320E+03  0.00000000000E+00 0. -1.
         23    2    1    2    0    0  0.41302832941E+02 -0.97704075162E+02 -0.39378188886E+03  0.41800517385E+03  0.91717713953E+02 0.  0.
         24    2    1    2    0    0 -0.50243778258E+02  0.15347474985E+03  0.91102206930E+02  0.20212999171E+03  0.80485932608E+02 0.  0.
        -13    1    4    4    0    0  0.19388697625E+02  0.22099303966E+02  0.36349439377E+01  0.29622856864E+02  0.00000000000E+00 0.  1.
         14    1    4    4    0    0 -0.69632475883E+02  0.13137544588E+03  0.87467262992E+02  0.17250713485E+03  0.00000000000E+00 0. -1.
        -11    1    3    3    0    0  0.86552115414E+01 -0.10614255971E+03 -0.30154103201E+03  0.31979391748E+03  0.00000000000E+00 0. -1.
         11    1    3    3    0    0  0.32647621400E+02  0.84384845511E+01 -0.92240856854E+02  0.98211256370E+02  0.00000000000E+00 0.  1.
          1    1    1    2  501    0  0.89409453166E+01 -0.55770674684E+02 -0.29884601070E+03  0.30413688821E+03  0.00000000000E+00 0. -1.
<scales pt_clust_5="13000.00000" pt_clust_6="13000.00000" pt_clust_7="13000.00000" pt_clust_8="13000.00000" pt_clust_9="56.48285"></scales>
<clustering>
<clus scale="   56.483">  1  9  2 -1</clus>
<clus scale="   80.486">  5  6 -1 -1</clus>
<clus scale="   91.718">  7  8 -1 -1</clus>
<clus scale="  136.516">  1  5  2 -1</clus>
<clus scale="   56.483">  1  5  2 -1</clus>
</clustering>
</event>
<event>
 9    2  0.1654290E-004  0.1011900E+03  0.7546771E-02  0.1280826E+00
          2   -1    0    0  502    0 -0.00000000000E+00  0.00000000000E+00  0.36069572536E+03  0.36069572536E+03  0.00000000000E+00 0. -1.
         21   -1    0    0  501  502  0.00000000000E+00 -0.00000000000E+00 -0.56866021793E+02  0.56866021793E+02  0.00000000000E+00 0. -1.
         24    2    1    2    0    0  0.12620802978E+01 -0.76314795891E+02  0.18537605551E+03  0.21707556626E+03  0.83258504623E+02 0.  0.
         23    2    1    2    0    0 -0.12824483365E+02  0.85763579820E+01  0.82984048171E+02  0.12315392597E+03  0.89680075500E+02 0.  0.
        -11    1    3    3    0    0 -0.29509870340E+02  0.12157577600E+01  0.48268988513E+02  0.56588035542E+02  0.00000000000E+00 0.  1.
         12    1    3    3    0    0  0.30771950638E+02 -0.77530553651E+02  0.13710706699E+03  0.16048753072E+03  0.00000000000E+00 0. -1.
        -13    1    4    4    0    0  0.27421929683E+02  0.16243208670E+02  0.74892731433E+02  0.81392415352E+02  0.00000000000E+00 0.  1.
         13    1    4    4    0    0 -0.40246413048E+02 -0.76668506882E+01  0.80913167389E+01  0.41761510620E+02  0.00000000000E+00 0. -1.
          1    1    1    2  501    0  0.11562403068E+02  0.67738437909E+02  0.35469599886E+02  0.77332254920E+02  0.00000000000E+00 0. -1.
<scales pt_clust_5="13000.00000" pt_clust_6="13000.00000" pt_clust_7="13000.00000" pt_clust_8="13000.00000" pt_clust_9="68.71816"></scales>
<clustering>
<clus scale="   68.718">  2  9  1 -1</clus>
<clus scale="   83.259">  5  6 -1 -1</clus>
<clus scale="   89.680">  7  8 -1 -1</clus>
<clus scale="   95.545">  1  5  2 -1</clus>
<clus scale="   68.718">  2  5  1 -1</clus>
</clustering>
</event>
<event>
 9    2  0.1654290E-004  0.9941692E+02  0.7546771E-02  0.1289078E+00
         21   -1    0    0  501  502  0.00000000000E+00  0.00000000000E+00  0.29526629015E+03  0.29526629015E+03  0.00000000000E+00 0.  1.
          2   -1    0    0  502    0 -0.00000000000E+00 -0.00000000000E+00 -0.78382127198E+02  0.78382127198E+02  0.00000000000E+00 0. -1.
         24    2    1    2    0    0  0.24688373597E+02 -0.23951818575E+02 -0.33351659300E+02  0.91527604429E+02  0.77985664007E+02 0.  0.
         23    2    1    2    0    0 -0.46265411048E+02  0.30527625822E+02  0.20733236010E+03  0.23364899790E+03  0.92372736668E+02 0.  0.
        -11    1    3    3    0    0  0.26460661468E+02 -0.37500933291E+02  0.92228593404E+01  0.46813969469E+02  0.00000000000E+00 0.  1.
         12    1    3    3    0    0 -0.17722878715E+01  0.13549114716E+02 -0.42574518640E+02  0.44713634960E+02  0.00000000000E+00 0. -1.
        -11    1    4    4    0    0  0.27815099198E+02  0.72356489307E+00  0.50460735757E+02  0.57623685605E+02  0.00000000000E+00 0. -1.
         11    1    4    4    0    0 -0.74080510246E+02  0.29804060929E+02  0.15687162434E+03  0.17602531230E+03  0.00000000000E+00 0.  1.
          1    1    1    2  501    0  0.21577037451E+02 -0.65758072471E+01  0.42903462158E+02  0.48471815019E+02  0.00000000000E+00 0. -1.
<scales pt_clust_5="13000.00000" pt_clust_6="13000.00000" pt_clust_7="13000.00000" pt_clust_8="13000.00000" pt_clust_9="22.55681"></scales>
<clustering>
<clus scale="   22.557">  1  9  2 -1</clus>
<clus scale="   77.986">  5  6 -1 -1</clus>
<clus scale="   86.213">  2  5  1 -1</clus>
<clus scale="   92.373">  7  8 -1 -1</clus>
<clus scale="   22.557">  1  5  2 -1</clus>
</clustering>
</event>
<event>
 9    2  0.1654290E-004  0.1074089E+03  0.7546771E-02  0.1270295E+00
         -1   -1    0    0    0  501 -0.00000000000E+00  0.00000000000E+00  0.93241698065E+02  0.93241698065E+02  0.00000000000E+00 0.  1.
         21   -1    0    0  501  502  0.00000000000E+00 -0.00000000000E+00 -0.16325296849E+03  0.16325296849E+03  0.00000000000E+00 0. -1.
         23    2    1    2    0    0  0.24215101953E+02 -0.28879264808E+02 -0.18304784178E+02  0.10275323241E+03  0.93823123743E+02 0.  0.
         24    2    1    2    0    0 -0.46833768298E+02  0.48525872641E+02 -0.17150465364E+02  0.10800619777E+03  0.82601683561E+02 0.  0.
        -13    1    4    4    0    0 -0.34977610253E+02  0.20409677118E+02  0.31000987858E+02  0.51000484187E+02  0.00000000000E+00 0.  1.
         14    1    4    4    0    0 -0.11856158044E+02  0.28116195522E+02 -0.48151453223E+02  0.57005713588E+02  0.00000000000E+00 0. -1.
        -11    1    3    3    0    0 -0.35463690807E+02 -0.10020814691E+02  0.21311126485E+01  0.36913842036E+02  0.00000000000E+00 0.  1.
         11    1    3    3    0    0  0.59678792760E+02 -0.18858450117E+02 -0.20435896826E+02  0.65839390377E+02  0.00000000000E+00 0. -1.
         -2    1    1    2    0  502  0.22618666345E+02 -0.19646607833E+02 -0.34556020887E+02  0.45735236372E+02  0.00000000000E+00 0.  1.
<scales pt_clust_5="13000.00000" pt_clust_6="13000.00000" pt_clust_7="13000.00000" pt_clust_8="13000.00000" pt_clust_9="29.95986"></scales>
<clustering>
<clus scale="   29.960">  2  9  1 -1</clus>
<clus scale="   82.602">  5  6 -1 -1</clus>
<clus scale="   93.823">  7  8 -1 -1</clus>
<clus scale="   97.760">  2  5  1 -1</clus>
<clus scale="   29.960">  2  5  1 -1</clus>
</clustering>
</event>
<event>
 9    2  0.1654290E-004  0.2697885E+03  0.7546771E-02  0.1101848E+00
          2   -1    0    0  502    0 -0.00000000000E+00  0.00000000000E+00  0.89982148448E+03  0.89982148448E+03  0.00000000000E+00 0. -1.
         21   -1    0    0  501  502  0.00000000000E+00 -0.00000000000E+00 -0.10897903547E+03  0.10897903547E+03  0.00000000000E+00 0. -1.
         24    2    1    2    0    0  0.27718500852E+03  0.24099242766E+01  0.56254324066E+03  0.63254061617E+03  0.82555416577E+02 0.  0.
         23    2    1    2    0    0 -0.21575372703E+03 -0.15920710191E+02  0.19259329414E+03  0.30393248167E+03  0.92084942983E+02 0.  0.
        -11    1    3    3    0    0  0.31710495068E+02  0.28146016453E+02  0.84139853060E+02  0.94219258183E+02  0.00000000000E+00 0.  1.
         12    1    3    3    0    0  0.24547451345E+03 -0.25736092177E+02  0.47840338760E+03  0.53832135799E+03  0.00000000000E+00 0. -1.
        -13    1    4    4    0    0 -0.55731894881E+02  0.27696128412E+02  0.22020040365E+02  0.66015163513E+02  0.00000000000E+00 0. -1.
         13    1    4    4    0    0 -0.16002183215E+03 -0.43616838603E+02  0.17057325378E+03  0.23791731815E+03  0.00000000000E+00 0.  1.
          1    1    1    2  501    0 -0.61431281486E+02  0.13510785915E+02  0.35705914197E+02  0.72327422114E+02  0.00000000000E+00 0. -1.
<scales pt_clust_5="13000.00000" pt_clust_6="13000.00000" pt_clust_7="13000.00000" pt_clust_8="13000.00000" pt_clust_9="62.89947"></scales>
<clustering>
<clus scale="   62.899">  2  9  1 -1</clus>
<clus scale="   82.555">  5  6 -1 -1</clus>
<clus scale="   92.085">  7  8 -1 -1</clus>
<clus scale="  266.686">  1  5  2 -1</clus>
<clus scale="   62.899">  2  5  1 -1</clus>
</clustering>
</event>
<event>
 9    2  0.1654290E-004  0.3079273E+03  0.7546771E-02  0.1131394E+00
         21   -1    0    0  501  502  0.00000000000E+00  0.00000000000E+00  0.61116475339E+02  0.61116475339E+02  0.00000000000E+00 0. -1.
          2   -1    0    0  502    0 -0.00000000000E+00 -0.00000000000E+00 -0.21515903529E+04  0.21515903529E+04  0.00000000000E+00 0. -1.
         24    2    1    2    0    0 -0.14146707581E+02  0.17951199299E+02 -0.97029010725E+02  0.12916918749E+03  0.82144234025E+02 0.  0.
         23    2    1    2    0    0 -0.18423448273E+03 -0.23322006020E+03 -0.11255764446E+04  0.11676275046E+04  0.89987309096E+02 0.  0.
        -13    1    3    3    0    0  0.27254168092E+02 -0.63499610547E+01 -0.66835126287E+02  0.72457199708E+02  0.00000000000E+00 0.  1.
         14    1    3    3    0    0 -0.41400875673E+02  0.24301160353E+02 -0.30193884439E+02  0.56711987784E+02  0.00000000000E+00 0. -1.
        -13    1    4    4    0    0 -0.14415402420E+03 -0.21769823847E+03 -0.86559195418E+03  0.90411411717E+03  0.00000000000E+00 0. -1.
         13    1    4    4    0    0 -0.40080458526E+02 -0.15521821730E+02 -0.25998449040E+03  0.26351338743E+03  0.00000000000E+00 0.  1.
          1    1    1    2  501    0  0.19838119031E+03  0.21526886090E+03 -0.86786842223E+03  0.91591013612E+03  0.00000000000E+00 0. -1.
<scales pt_clust_5="13000.00000" pt_clust_6="13000.00000" pt_clust_7="13000.00000" pt_clust_8="13000.00000" pt_clust_9="294.48512"></scales>
<clustering>
<clus scale="   82.144">  5  6 -1 -1</clus>
<clus scale="   85.265">  2  5  1 -1</clus>
<clus scale="   89.987">  7  8 -1 -1</clus>
<clus scale="  294.485">  1  9  2 -1</clus>
<clus scale="  294.485">  1  5  2 -1</clus>
</clustering>
</event>
<event>
 9    2  0.1654290E-004  0.1128455E+03  0.7546771E-02  0.1259202E+00
         21   -1    0    0  501  502  0.00000000000E+00  0.00000000000E+00  0.38419615823E+02  0.38419615823E+02  0.00000000000E+00 0. -1.
          2   -1    0    0  502    0 -0.00000000000E+00 -0.00000000000E+00 -0.52868621996E+03  0.52868621996E+03  0.00000000000E+00 0. -1.
         24    2    1    2    0    0 -0.10110980457E+02  0.39693362003E+02 -0.16624532433E+03  0.19025245016E+03  0.82949936812E+02 0.  0.
         23    2    1    2    0    0  0.41625524793E+02 -0.85547635447E+02 -0.25964058288E+03  0.29176134702E+03  0.93061104062E+02 0.  0.
        -11    1    3    3    0    0 -0.42530360402E+02  0.19851206655E+02 -0.12799151177E+03  0.13632581945E+03  0.00000000000E+00 0.  1.
         12    1    3    3    0    0  0.32419379945E+02  0.19842155349E+02 -0.38253812553E+02  0.53926630710E+02  0.00000000000E+00 0. -1.
        -11    1    4    4    0    0  0.26802564614E+02 -0.24420326756E+02 -0.20578856904E+03  0.20895852453E+03  0.00000000000E+00 0.  1.
         11    1    4    4    0    0  0.14822960179E+02 -0.61127308691E+02 -0.53852013847E+02  0.82802822486E+02  0.00000000000E+00 0. -1.
          1    1    1    2  501    0 -0.31514544336E+02  0.45854273444E+02 -0.64380696923E+02  0.85092038606E+02  0.00000000000E+00 0. -1.
<scales pt_clust_5="13000.00000" pt_clust_6="13000.00000" pt_clust_7="13000.00000" pt_clust_8="13000.00000" pt_clust_9="55.63974"></scales>
<clustering>
<clus scale="   55.640">  1  9  2 -1</clus>
<clus scale="   82.950">  5  6 -1 -1</clus>
<clus scale="   93.061">  7  8 -1 -1</clus>
<clus scale="  104.663">  2  5  1 -1</clus>
<clus scale="   55.640">  1  5  2 -1</clus>
</clustering>
</event>
<event>
 9    2  0.1654290E-004  0.1166101E+03  0.7546771E-02  0.1252230E+00
          4   -1    0    0  502    0 -0.00000000000E+00  0.00000000000E+00  0.36960468695E+03  0.36960468695E+03  0.00000000000E+00 0. -1.
         21   -1    0    0  501  502  0.00000000000E+00 -0.00000000000E+00 -0.11755673873E+03  0.11755673873E+03  0.00000000000E+00 0. -1.
         23    2    1    2    0    0  0.28927311242E+02 -0.71177777968E+02  0.32211961530E+03  0.34338156647E+03  0.90811828622E+02 0.  0.
         24    2    1    2    0    0 -0.98036700675E+01  0.44621685324E+02 -0.54617878030E+02  0.10758926230E+03  0.80654386210E+02 0.  0.
        -11    1    4    4    0    0 -0.37003863695E+02  0.87556196462E+01 -0.16269545241E+01  0.38060396540E+02  0.00000000000E+00 0.  1.
         12    1    4    4    0    0  0.27200193627E+02  0.35866065678E+02 -0.52990923506E+02  0.69528865765E+02  0.00000000000E+00 0. -1.
        -13    1    3    3    0    0  0.46156597719E+02 -0.20463000766E+02  0.74242877374E+02  0.89784022822E+02  0.00000000000E+00 0.  1.
         13    1    3    3    0    0 -0.17229286477E+02 -0.50714777202E+02  0.24787673792E+03  0.25359754365E+03  0.00000000000E+00 0. -1.
          3    1    1    2  501    0 -0.19123641174E+02  0.26556092644E+02 -0.15453789054E+02  0.36190596906E+02  0.00000000000E+00 0. -1.
<scales pt_clust_5="13000.00000" pt_clust_6="13000.00000" pt_clust_7="13000.00000" pt_clust_8="13000.00000" pt_clust_9="32.72522"></scales>
<clustering>
<clus scale="   32.725">  2  9  1 -1</clus>
<clus scale="   80.654">  5  6 -1 -1</clus>
<clus scale="   90.812">  7  8 -1 -1</clus>
<clus scale="  108.886">  2  5  1 -1</clus>
<clus scale="   32.725">  2  5  1 -1</clus>
</clustering>
</event>
<event>
 9    2  0.1654290E-004  0.1144299E+03  0.7546771E-02  0.1260808E+00
          2   -1    0    0  502    0 -0.00000000000E+00  0.00000000000E+00  0.38301571884E+03  0.38301571884E+03  0.00000000000E+00 0. -1.
         21   -1    0    0  501  502  0.00000000000E+00 -0.00000000000E+00 -0.11677811441E+03  0.11677811441E+03  0.00000000000E+00 0. -1.
         23    2    1    2    0    0 -0.21096345524E+02 -0.48095619625E+02  0.29736895216E+03  0.31843817390E+03  0.10107587478E+03 0.  0.
         24    2    1    2    0    0  0.33205277241E+01  0.60119641235E+02  0.38787313205E+02  0.10821759853E+03  0.81124569641E+02 0.  0.
        -11    1    4    4    0    0  0.41617430970E+02  0.40046118684E+02  0.20804990583E+02  0.61388515337E+02  0.00000000000E+00 0.  1.
         12    1    4    4    0    0 -0.38296903245E+02  0.20073522551E+02  0.17982322622E+02  0.46829083193E+02  0.00000000000E+00 0. -1.
        -13    1    3    3    0    0 -0.23881143610E+02 -0.76041453600E+02  0.25833617393E+03  0.27035197511E+03  0.00000000000E+00 0. -1.
         13    1    3    3    0    0  0.27847980863E+01  0.27945833975E+02  0.39032778229E+02  0.48086198781E+02  0.00000000000E+00 0.  1.
          1    1    1    2  501    0  0.17775817800E+02 -0.12024021610E+02 -0.69918660935E+02  0.73138060823E+02  0.00000000000E+00 0. -1.
<scales pt_clust_5="13000.00000" pt_clust_6="13000.00000" pt_clust_7="13000.00000" pt_clust_8="13000.00000" pt_clust_9="21.46059"></scales>
<clustering>
<clus scale="   21.461">  2  9  1 -1</clus>
<clus scale="   81.125">  5  6 -1 -1</clus>
<clus scale="   97.258">  2  5  1 -1</clus>
<clus scale="  101.076">  7  8 -1 -1</clus>
<clus scale="   21.461">  2  5  1 -1</clus>
</clustering>
</event>
<event>
 9    2  0.2811044E-004  0.1770789E+03  0.7546771E-02  0.1206679E+00
         21   -1    0    0  501  502  0.00000000000E+00  0.00000000000E+00  0.40936853260E+03  0.40936853260E+03  0.00000000000E+00 0.  1.
          2   -1    0    0  502    0 -0.00000000000E+00 -0.00000000000E+00 -0.38987043097E+03  0.38987043097E+03  0.00000000000E+00 0. -1.
         24    2    1    2    0    0 -0.15531676433E+02  0.11888913096E+02 -0.26487686038E+03  0.27661969576E+03  0.77305405323E+02 0.  0.
         23    2    1    2    0    0 -0.14360439395E+03  0.23138859064E+02  0.31195421224E+03  0.35735629929E+03  0.96075310799E+02 0.  0.
        -13    1    3    3    0    0 -0.29921333699E+01  0.40818192600E+02 -0.20396842599E+03  0.20803412343E+03  0.00000000000E+00 0.  1.
         14    1    3    3    0    0 -0.12539543063E+02 -0.28929279504E+02 -0.60908434385E+02  0.68585572332E+02  0.00000000000E+00 0. -1.
        -13    1    4    4    0    0 -0.47360144696E+02  0.52968420269E+02  0.15953173387E+03  0.17463966034E+03  0.00000000000E+00 0. -1.
         13    1    4    4    0    0 -0.96244249257E+02 -0.29829561205E+02  0.15242247837E+03  0.18271663895E+03  0.00000000000E+00 0.  1.
          1    1    1    2  501    0  0.15913607038E+03 -0.35027772160E+02 -0.27579250244E+02  0.16526296852E+03  0.00000000000E+00 0. -1.
<scales pt_clust_5="13000.00000" pt_clust_6="13000.00000" pt_clust_7="13000.00000" pt_clust_8="13000.00000" pt_clust_9="148.74977"></scales>
<clustering>
<clus scale="   77.305">  5  6 -1 -1</clus>
<clus scale="   79.741">  2  5  1 -1</clus>
<clus scale="   96.075">  7  8 -1 -1</clus>
<clus scale="  148.750">  1  9  2 -1</clus>
<clus scale="  148.750">  1  5  2 -1</clus>
</clustering>
</event>
<event>
 9    2  0.1654290E-004  0.1264790E+03  0.7546771E-02  0.1240179E+00
         21   -1    0    0  501  502  0.00000000000E+00  0.00000000000E+00  0.21168307547E+03  0.21168307547E+03  0.00000000000E+00 0. -1.
          2   -1    0    0  502    0 -0.00000000000E+00 -0.00000000000E+00 -0.26654839053E+03  0.26654839053E+03  0.00000000000E+00 0. -1.
         23    2    1    2    0    0 -0.72186537693E+02  0.19424587569E+02 -0.14350301429E+03  0.19154702799E+03  0.10251311134E+03 0.  0.
         24    2    1    2    0    0  0.76373381205E+02  0.23944697665E+02  0.16432273923E+03  0.19935374557E+03  0.79584617485E+02 0.  0.
        -13    1    4    4    0    0 -0.99746533778E+01  0.20551612696E+02  0.58039051164E+02  0.62373022649E+02  0.00000000000E+00 0.  1.
         14    1    4    4    0    0  0.86348034583E+02  0.33930849695E+01  0.10628368807E+03  0.13698072292E+03  0.00000000000E+00 0. -1.
        -13    1    3    3    0    0 -0.28112162375E+02 -0.28646449043E+02 -0.11228457642E+03  0.11924235329E+03  0.00000000000E+00 0.  1.
         13    1    3    3    0    0 -0.44074375318E+02  0.48071036611E+02 -0.31218437869E+02  0.72304674700E+02  0.00000000000E+00 0. -1.
          1    1    1    2  501    0 -0.41868435123E+01 -0.43369285234E+02 -0.75685040004E+02  0.87330692432E+02  0.00000000000E+00 0. -1.
<scales pt_clust_5="13000.00000" pt_clust_6="13000.00000" pt_clust_7="13000.00000" pt_clust_8="13000.00000" pt_clust_9="43.57094"></scales>
<clustering>
<clus scale="   43.571">  1  9  2 -1</clus>
<clus scale="   79.585">  5  6 -1 -1</clus>
<clus scale="  102.513">  7  8 -1 -1</clus>
<clus scale="  108.728">  1  5  2 -1</clus>
<clus scale="   43.571">  1  5  2 -1</clus>
</clustering>
</event>
<event>
 9    2  0.1654290E-004  0.9507906E+02  0.7546771E-02  0.1297596E+00
          2   -1    0    0  502    0 -0.00000000000E+00  0.00000000000E+00  0.14506552929E+03  0.14506552929E+03  0.00000000000E+00 0. -1.
         21   -1    0    0  501  502  0.00000000000E+00 -0.00000000000E+00 -0.35616252473E+03  0.35616252473E+03  0.00000000000E+00 0. -1.
         23    2    1    2    0    0 -0.21512425374E+02 -0.24747575746E+01  0.22964305689E+02  0.96933937028E+02  0.91651077143E+02 0.  0.
         24    2    1    2    0    0  0.56787214108E+02 -0.33671474494E+02 -0.30215592313E+03  0.31951358645E+03  0.80200836415E+02 0.  0.
        -13    1    4    4    0    0  0.41986947777E+02 -0.59632982781E+02 -0.23379198952E+03  0.24490343155E+03  0.00000000000E+00 0.  1.
         14    1    4    4    0    0  0.14800266331E+02  0.25961508287E+02 -0.68363933607E+02  0.74610154900E+02  0.00000000000E+00 0. -1.
        -13    1    3    3    0    0  0.29526310741E+02 -0.21351861643E+02  0.21886264147E+02  0.42505453531E+02  0.00000000000E+00 0.  1.
         13    1    3    3    0    0 -0.51038736115E+02  0.18877104068E+02  0.10780415418E+01  0.54428483497E+02  0.00000000000E+00 0. -1.
          1    1    1    2  501    0 -0.35274788734E+02  0.36146232069E+02  0.68094621998E+02  0.84780530537E+02  0.00000000000E+00 0. -1.
<scales pt_clust_5="13000.00000" pt_clust_6="13000.00000" pt_clust_7="13000.00000" pt_clust_8="13000.00000" pt_clust_9="50.50607"></scales>
<clustering>
<clus scale="   50.506">  2  9  1 -1</clus>
<clus scale="   80.201">  5  6 -1 -1</clus>
<clus scale="   84.097">  2  5  1 -1</clus>
<clus scale="   91.651">  7  8 -1 -1</clus>
<clus scale="   50.506">  2  5  1 -1</clus>
</clustering>
</event>
<event>
 9    2  0.1654290E-004  0.1808956E+03  0.7546771E-02  0.1201319E+00
          2   -1    0    0  502    0 -0.00000000000E+00  0.00000000000E+00  0.87212736943E+03  0.87212736943E+03  0.00000000000E+00 0. -1.
         21   -1    0    0  501  502  0.00000000000E+00 -0.00000000000E+00 -0.75647038015E+03  0.75647038015E+03  0.00000000000E+00 0. -1.
         24    2    1    2    0    0 -0.15841883328E+02  0.65622212789E+01  0.44731857024E+03  0.45513142290E+03  0.82199031710E+02 0.  0.
         23    2    1    2    0    0 -0.12943953162E+03  0.42308792327E+02  0.39604324223E+03  0.42979343139E+03  0.96579074836E+02 0.  0.
        -13    1    3    3    0    0 -0.92369223299E+01 -0.30462048143E+02  0.83293246817E+02  0.89168503837E+02  0.00000000000E+00 0.  1.
         14    1    3    3    0    0 -0.66049609982E+01  0.37024269422E+02  0.36402532343E+03  0.36596291907E+03  0.00000000000E+00 0. -1.
        -11    1    4    4    0    0 -0.22684580328E+02 -0.27688568327E+02  0.12788638740E+03  0.13280126160E+03  0.00000000000E+00 0.  1.
         11    1    4    4    0    0 -0.10675495130E+03  0.69997360654E+02  0.26815685483E+03  0.29699216979E+03  0.00000000000E+00 0. -1.
          1    1    1    2  501    0  0.14528141495E+03 -0.48871013606E+02 -0.72770482319E+03  0.74367289529E+03  0.00000000000E+00 0. -1.
<scales pt_clust_5="13000.00000" pt_clust_6="13000.00000" pt_clust_7="13000.00000" pt_clust_8="13000.00000" pt_clust_9="152.95650"></scales>
<clustering>
<clus scale="   82.199">  5  6 -1 -1</clus>
<clus scale="   83.968">  1  5  2 -1</clus>
<clus scale="   96.579">  7  8 -1 -1</clus>
<clus scale="  152.956">  2  9  1 -1</clus>
<clus scale="  152.956">  2  5  1 -1</clus>
</clustering>
</event>
<event>
 9    2  0.1654290E-004  0.1003422E+03  0.7546771E-02  0.1285501E+00
         21   -1    0    0  501  502  0.00000000000E+00  0.00000000000E+00  0.52073876522E+03  0.52073876522E+03  0.00000000000E+00 0. -1.
          4   -1    0    0  502    0 -0.00000000000E+00 -0.00000000000E+00 -0.31709304630E+02  0.31709304630E+02  0.00000000000E+00 0. -1.
         23    2    1    2    0    0  0.59601295063E+01  0.45807190448E+02  0.14057279535E+03  0.17409710365E+03  0.91734774576E+02 0.  0.
         24    2    1    2    0    0  0.41741347755E+02 -0.27308459555E+02  0.25423108278E+03  0.27113112491E+03  0.79940924220E+02 0.  0.
        -13    1    4    4    0    0 -0.33205448823E+01  0.22862567495E+02  0.36510429747E+02  0.43205722897E+02  0.00000000000E+00 0.  1.
         14    1    4    4    0    0  0.45061892637E+02 -0.50171027050E+02  0.21772065303E+03  0.22792540201E+03  0.00000000000E+00 0. -1.
        -11    1    3    3    0    0 -0.34493522494E+02  0.41106813591E+02  0.11247151393E+03  0.12461707212E+03  0.00000000000E+00 0. -1.
         11    1    3    3    0    0  0.40453652000E+02  0.47003768566E+01  0.28101281413E+02  0.49480031526E+02  0.00000000000E+00 0.  1.
          3    1    1    2  501    0 -0.47701477261E+02 -0.18498730893E+02  0.94225582466E+02  0.10721984130E+03  0.00000000000E+00 0. -1.
<scales pt_clust_5="13000.00000" pt_clust_6="13000.00000" pt_clust_7="13000.00000" pt_clust_8="13000.00000" pt_clust_9="51.16284"></scales>
<clustering>
<clus scale="   51.163">  1  9  2 -1</clus>
<clus scale="   79.941">  5  6 -1 -1</clus>
<clus scale="   89.687">  1  5  2 -1</clus>
<clus scale="   91.735">  7  8 -1 -1</clus>
<clus scale="   51.163">  1  5  2 -1</clus>
</clustering>
</event>
<event>
 9    2  0.1654290E-004  0.1155274E+03  0.7546771E-02  0.1254679E+00
         21   -1    0    0  501  502  0.00000000000E+00  0.00000000000E+00  0.36523620853E+03  0.36523620853E+03  0.00000000000E+00 0. -1.
          2   -1    0    0  502    0 -0.00000000000E+00 -0.00000000000E+00 -0.10492770641E+04  0.10492770641E+04  0.00000000000E+00 0. -1.
         24    2    1    2    0    0 -0.27307127721E+02 -0.66321645013E+02 -0.99216825474E+03  0.99801857130E+03  0.80616270861E+02 0.  0.
         23    2    1    2    0    0 -0.32428998760E+02  0.47654392093E+02  0.68736992526E+01  0.10880872033E+03  0.92029934438E+02 0.  0.
        -11    1    3    3    0    0 -0.35835178715E+02 -0.49070315312E+02 -0.32855770266E+03  0.33412904671E+03  0.00000000000E+00 0.  1.
         12    1    3    3    0    0  0.85280509933E+01 -0.17251329701E+02 -0.66361055208E+03  0.66388952459E+03  0.00000000000E+00 0. -1.
        -13    1    4    4    0    0  0.26625419783E+02  0.48083021036E+01 -0.17104360286E+02  0.32009246922E+02  0.00000000000E+00 0.  1.
         13    1    4    4    0    0 -0.59054418543E+02  0.42846089990E+02  0.23978059538E+02  0.76799473410E+02  0.00000000000E+00 0. -1.
          1    1    1    2  501    0  0.59736126481E+02  0.18667252920E+02  0.30125369995E+03  0.30768598095E+03  0.00000000000E+00 0. -1.
<scales pt_clust_5="13000.00000" pt_clust_6="13000.00000" pt_clust_7="13000.00000" pt_clust_8="13000.00000" pt_clust_9="62.58491"></scales>
<clustering>
<clus scale="   62.585">  1  9  2 -1</clus>
<clus scale="   80.616">  5  6 -1 -1</clus>
<clus scale="   92.030">  7  8 -1 -1</clus>
<clus scale="  106.659">  2  5  1 -1</clus>
<clus scale="   62.585">  1  5  2 -1</clus>
</clustering>
</event>
<event>
 9    2  0.1654290E-004  0.1051355E+03  0.7546771E-02  0.1278776E+00
          2   -1    0    0  502    0 -0.00000000000E+00  0.00000000000E+00  0.52802512997E+03  0.52802512997E+03  0.00000000000E+00 0. -1.
         21   -1    0    0  501  502  0.00000000000E+00 -0.00000000000E+00 -0.12492207054E+03  0.12492207054E+03  0.00000000000E+00 0. -1.
         23    2    1    2    0    0  0.48852646845E+02  0.41417517601E+02  0.27799675495E+03  0.30131090298E+03  0.96974597828E+02 0.  0.
         24    2    1    2    0    0 -0.32702585354E+02  0.45547800271E+02  0.20866311470E+03  0.22995831459E+03  0.78717658852E+02 0.  0.
        -11    1    4    4    0    0 -0.28848338089E+02  0.48014723248E+01  0.16693548165E+02  0.33674252736E+02  0.00000000000E+00 0.  1.
         12    1    4    4    0    0 -0.38542472654E+01  0.40746327946E+02  0.19196956653E+03  0.19628406185E+03  0.00000000000E+00 0. -1.
        -11    1    3    3    0    0  0.44452863235E+02  0.71968280418E+02  0.18758653205E+03  0.20577705762E+03  0.00000000000E+00 0. -1.
         11    1    3    3    0    0  0.43997836106E+01 -0.30550762817E+02  0.90410222903E+02  0.95533845363E+02  0.00000000000E+00 0.  1.
          1    1    1    2  501    0 -0.16150061491E+02 -0.86965317872E+02 -0.83556810215E+02  0.12167798294E+03  0.00000000000E+00 0. -1.
<scales pt_clust_5="13000.00000" pt_clust_6="13000.00000" pt_clust_7="13000.00000" pt_clust_8="13000.00000" pt_clust_9="88.45220"></scales>
<clustering>
<clus scale="   78.718">  5  6 -1 -1</clus>
<clus scale="   88.452">  2  9  1 -1</clus>
<clus scale="   88.577">  2  5  1 -1</clus>
<clus scale="   96.975">  7  8 -1 -1</clus>
<clus scale="   88.452">  2  5  1 -1</clus>
</clustering>
</event>
<event>
 9    2  0.1654290E-004  0.1344886E+03  0.7546771E-02  0.1222272E+00
          2   -1    0    0  502    0 -0.00000000000E+00  0.00000000000E+00  0.58417007221E+03  0.58417007221E+03  0.00000000000E+00 0. -1.
         21   -1    0    0  501  502  0.00000000000E+00 -0.00000000000E+00 -0.15876754474E+03  0.15876754474E+03  0.00000000000E+00 0.  1.
         24    2    1    2    0    0 -0.89189674491E+02  0.50851781200E+02  0.29047381559E+03  0.31841011855E+03  0.80431737284E+02 0.  0.
         23    2    1    2    0    0  0.15017326392E+03  0.62952052879E+02 -0.57272713685E+02  0.19298549612E+03  0.86303347698E+02 0.  0.
        -11    1    3    3    0    0 -0.72526036274E+02 -0.25270542193E+01  0.19058794491E+03  0.20393669774E+03  0.00000000000E+00 0.  1.
         12    1    3    3    0    0 -0.16663638216E+02  0.53378835419E+02  0.99885870679E+02  0.11447342080E+03  0.00000000000E+00 0. -1.
        -11    1    4    4    0    0  0.92817214047E+02  0.40798425239E+02 -0.78193315309E+02  0.12803804624E+03  0.00000000000E+00 0.  1.
         11    1    4    4    0    0  0.57356049870E+02  0.22153627640E+02  0.20920601624E+02  0.64947449886E+02  0.00000000000E+00 0. -1.
          1    1    1    2  501    0 -0.60983589427E+02 -0.11380383408E+03  0.19220142556E+03  0.23154200228E+03  0.00000000000E+00 0. -1.
<scales pt_clust_5="13000.00000" pt_clust_6="13000.00000" pt_clust_7="13000.00000" pt_clust_8="13000.00000" pt_clust_9="129.11362"></scales>
<clustering>
<clus scale="   80.432">  5  6 -1 -1</clus>
<clus scale="   86.303">  7  8 -1 -1</clus>
<clus scale="  129.114">  2  9  1 -1</clus>
<clus scale="  130.798">  1  5  2 -1</clus>
<clus scale="  129.114">  2  5  1 -1</clus>
</clustering>
</event>
<event>
 9    2  0.1654290E-004  0.9458972E+02  0.7546771E-02  0.1295520E+00
          2   -1    0    0  502    0 -0.00000000000E+00  0.00000000000E+00  0.25857440790E+03  0.25857440790E+03  0.00000000000E+00 0. -1.
         21   -1    0    0  501  502  0.00000000000E+00 -0.00000000000E+00 -0.62611320065E+02  0.62611320065E+02  0.00000000000E+00 0. -1.
         23    2    1    2    0    0 -0.67605483273E+01 -0.28524414005E+02  0.17969387032E+03  0.20321316551E+03  0.90257168123E+02 0.  0.
         24    2    1    2    0    0  0.25307384984E+02  0.17434653086E+02 -0.21325326239E+01  0.89589603566E+02  0.84126800181E+02 0.  0.
        -11    1    4    4    0    0  0.13102699608E+02 -0.34093686318E+02 -0.27939294569E+01  0.36631492265E+02  0.00000000000E+00 0.  1.
         12    1    4    4    0    0  0.12204685376E+02  0.51528339403E+02  0.66139683295E+00  0.52958111301E+02  0.00000000000E+00 0. -1.
        -11    1    3    3    0    0 -0.39191737900E+02  0.28381525409E+01  0.38599715662E+02  0.55081625599E+02  0.00000000000E+00 0.  1.
         11    1    3    3    0    0  0.32431189572E+02 -0.31362566546E+02  0.14109415466E+03  0.14813153991E+03  0.00000000000E+00 0. -1.
          1    1    1    2  501    0 -0.18546836657E+02  0.11089760919E+02  0.18401750141E+02  0.28382958892E+02  0.00000000000E+00 0. -1.
<scales pt_clust_5="13000.00000" pt_clust_6="13000.00000" pt_clust_7="13000.00000" pt_clust_8="13000.00000" pt_clust_9="21.60945"></scales>
<clustering>
<clus scale="   21.609">  2  9  1 -1</clus>
<clus scale="   84.127">  5  6 -1 -1</clus>
<clus scale="   88.759">  2  5  1 -1</clus>
<clus scale="   90.257">  7  8 -1 -1</clus>
<clus scale="   21.609">  2  5  1 -1</clus>
</clustering>
</event>
<event>
 9    2  0.1654290E-004  0.1049643E+03  0.7546771E-02  0.1273874E+00
         21   -1    0    0  501  502  0.00000000000E+00  0.00000000000E+00  0.26563241459E+02  0.26563241459E+02  0.00000000000E+00 0. -1.
          2   -1    0    0  502    0 -0.00000000000E+00 -0.00000000000E+00 -0.69499169174E+03  0.69499169174E+03  0.00000000000E+00 0. -1.
         24    2    1    2    0    0  0.64458003867E+02 -0.18574380178E+02 -0.44496586396E+03  0.45709193460E+03  0.80240729819E+02 0.  0.
         23    2    1    2    0    0 -0.26819619465E+02  0.27302309718E+02 -0.19054713884E+03  0.21370621170E+03  0.88867455753E+02 0.  0.
        -13    1    3    3    0    0  0.36863039701E+02 -0.15575826598E+02 -0.66522863710E+02  0.77632348066E+02  0.00000000000E+00 0.  1.
         14    1    3    3    0    0  0.27594964167E+02 -0.29985535808E+01 -0.37844300025E+03  0.37945958653E+03  0.00000000000E+00 0. -1.
        -13    1    4    4    0    0 -0.46714499595E+02  0.48597733838E+02 -0.12646773309E+03  0.14331110117E+03  0.00000000000E+00 0.  1.
         13    1    4    4    0    0  0.19894880130E+02 -0.21295424120E+02 -0.64079405753E+02  0.70395110523E+02  0.00000000000E+00 0. -1.
          1    1    1    2  501    0 -0.37638384402E+02 -0.87279295393E+01 -0.32915447477E+02  0.50756786907E+02  0.00000000000E+00 0. -1.
<scales pt_clust_5="13000.00000" pt_clust_6="13000.00000" pt_clust_7="13000.00000" pt_clust_8="13000.00000" pt_clust_9="38.63709"></scales>
<clustering>
<clus scale="   38.637">  1  9  2 -1</clus>
<clus scale="   80.241">  5  6 -1 -1</clus>
<clus scale="   88.867">  7  8 -1 -1</clus>
<clus scale="   97.768">  2  5  1 -1</clus>
<clus scale="   38.637">  1  5  2 -1</clus>
</clustering>
</event>
<event>
 9    2  0.1654290E-004  0.1040824E+03  0.7546771E-02  0.1277510E+00
         21   -1    0    0  501  502  0.00000000000E+00  0.00000000000E+00  0.68272305846E+03  0.68272305846E+03  0.00000000000E+00 0.  1.
         -1   -1    0    0    0  501 -0.00000000000E+00 -0.00000000000E+00 -0.31421899007E+02  0.31421899007E+02  0.00000000000E+00 0.  1.
         23    2    1    2    0    0 -0.12176877772E+02 -0.45750284494E+02  0.83520600576E+02  0.13307004474E+03  0.92144349814E+02 0.  0.
         24    2    1    2    0    0 -0.63117723876E+01  0.56219505924E+02  0.51379456570E+03  0.52305834405E+03  0.80029395973E+02 0.  0.
        -13    1    4    4    0    0  0.32977180564E+01  0.69756645884E+02  0.27645776513E+03  0.28514164987E+03  0.00000000000E+00 0.  1.
         14    1    4    4    0    0 -0.96094904440E+01 -0.13537139960E+02  0.23733680057E+03  0.23791669418E+03  0.00000000000E+00 0. -1.
        -13    1    3    3    0    0 -0.37337512771E+02  0.12908429269E+02  0.36578358168E+02  0.53839517943E+02  0.00000000000E+00 0. -1.
         13    1    3    3    0    0  0.25160634999E+02 -0.58658713763E+02  0.46942242408E+02  0.79230526795E+02  0.00000000000E+00 0.  1.
         -2    1    1    2    0  502  0.18488650160E+02 -0.10469221429E+02  0.53985993175E+02  0.58016568677E+02  0.00000000000E+00 0.  1.
<scales pt_clust_5="13000.00000" pt_clust_6="13000.00000" pt_clust_7="13000.00000" pt_clust_8="13000.00000" pt_clust_9="21.24699"></scales>
<clustering>
<clus scale="   21.247">  1  9  2 -1</clus>
<clus scale="   80.029">  5  6 -1 -1</clus>
<clus scale="   92.144">  7  8 -1 -1</clus>
<clus scale="   93.527">  1  5  2 -1</clus>
<clus scale="   21.247">  1  5  2 -1</clus>
</clustering>
</event>
<event>
 9    2  0.1654290E-004  0.9663362E+02  0.7546771E-02  0.1287580E+00
         -3   -1    0    0    0  501 -0.00000000000E+00  0.00000000000E+00  0.29380256735E+02  0.29380256735E+02  0.00000000000E+00 0.  1.
         21   -1    0    0  501  502  0.00000000000E+00 -0.00000000000E+00 -0.56186645646E+03  0.56186645646E+03  0.00000000000E+00 0. -1.
         23    2    1    2    0    0  0.19253793187E+02 -0.23994247453E+02 -0.11803082383E+03  0.15057064509E+03  0.88282565253E+02 0.  0.
         24    2    1    2    0    0 -0.55352478852E+02  0.20317689441E+02 -0.23957438624E+03  0.26207037746E+03  0.88364533499E+02 0.  0.
        -11    1    4    4    0    0  0.19137585147E+02  0.23219987974E+02 -0.49869810523E+02  0.58244424698E+02  0.00000000000E+00 0.  1.
         12    1    4    4    0    0 -0.74490063999E+02 -0.29022985335E+01 -0.18970457571E+03  0.20382595276E+03  0.00000000000E+00 0. -1.
        -11    1    3    3    0    0 -0.34688337140E+02 -0.18338486548E+02 -0.48263739840E+02  0.62201040231E+02  0.00000000000E+00 0. -1.
         11    1    3    3    0    0  0.53942130327E+02 -0.56557609055E+01 -0.69767083985E+02  0.88369604862E+02  0.00000000000E+00 0.  1.
         -4    1    1    2    0  502  0.36098685665E+02  0.36765580129E+01 -0.17488098966E+03  0.17860569065E+03  0.00000000000E+00 0.  1.
<scales pt_clust_5="13000.00000" pt_clust_6="13000.00000" pt_clust_7="13000.00000" pt_clust_8="13000.00000" pt_clust_9="36.28543"></scales>
<clustering>
<clus scale="   36.285">  2  9  1 -1</clus>
<clus scale="   88.283">  7  8 -1 -1</clus>
<clus scale="   88.365">  5  6 -1 -1</clus>
<clus scale="   96.559">  1  7  2 -1</clus>
<clus scale="   36.285">  2  5  1 -1</clus>
</clustering>
</event>
<event>
 9    2  0.1654290E-004  0.1569284E+03  0.7546771E-02  0.1208003E+00
         21   -1    0    0  501  502  0.00000000000E+00  0.00000000000E+00  0.37743633215E+02  0.37743633215E+02  0.00000000000E+00 0. -1.
          2   -1    0    0  502    0 -0.00000000000E+00 -0.00000000000E+00 -0.21399285438E+04  0.21399285438E+04  0.00000000000E+00 0. -1.
         23    2    1    2    0    0 -0.13093160301E+02 -0.60939410809E+02 -0.22928029625E+03  0.25489491198E+03  0.92287156557E+02 0.  0.
         24    2    1    2    0    0 -0.11763871002E+03  0.12806518453E+02 -0.16734363964E+04  0.16794766954E+04  0.79055198691E+02 0.  0.
        -13    1    4    4    0    0 -0.42845701120E+02  0.14573316492E+02 -0.24915831878E+03  0.25323507552E+03  0.00000000000E+00 0.  1.
         14    1    4    4    0    0 -0.74793008897E+02 -0.17667980391E+01 -0.14242780776E+04  0.14262416198E+04  0.00000000000E+00 0. -1.
        -11    1    3    3    0    0 -0.41247730835E+02 -0.66729777372E+02 -0.13296921731E+03  0.15438604613E+03  0.00000000000E+00 0. -1.
         11    1    3    3    0    0  0.28154570534E+02  0.57903665627E+01 -0.96311078946E+02  0.10050886585E+03  0.00000000000E+00 0.  1.
          1    1    1    2  501    0  0.13073187032E+03  0.48132892357E+02 -0.19946821794E+03  0.24330056969E+03  0.00000000000E+00 0. -1.
<scales pt_clust_5="13000.00000" pt_clust_6="13000.00000" pt_clust_7="13000.00000" pt_clust_8="13000.00000" pt_clust_9="135.56108"></scales>
<clustering>
<clus scale="   79.055">  5  6 -1 -1</clus>
<clus scale="   92.287">  7  8 -1 -1</clus>
<clus scale="  111.364">  2  7  1 -1</clus>
<clus scale="  135.561">  1  9  2 -1</clus>
<clus scale="  135.561">  1  5  2 -1</clus>
</clustering>
</event>
<event>
 9    2  0.1654290E-004  0.9173477E+02  0.7546771E-02  0.1303792E+00
          4   -1    0    0  502    0 -0.00000000000E+00  0.00000000000E+00  0.18339987567E+03  0.18339987567E+03  0.00000000000E+00 0. -1.
         21   -1    0    0  501  502  0.00000000000E+00 -0.00000000000E+00 -0.28071660272E+03  0.28071660272E+03  0.00000000000E+00 0. -1.
         24    2    1    2    0    0  0.10054301012E+02  0.33484274836E+00  0.11886833582E+03  0.14526815583E+03  0.82897254184E+02 0.  0.
         23    2    1    2    0    0  0.14565614322E+02 -0.43922863479E+02 -0.55834951343E+01  0.10237874937E+03  0.91152936581E+02 0.  0.
        -11    1    3    3    0    0  0.83359973212E+01  0.38344229034E+02  0.87718239442E+02  0.96095048167E+02  0.00000000000E+00 0.  1.
         12    1    3    3    0    0  0.17183036905E+01 -0.38009386286E+02  0.31150096374E+02  0.49173107666E+02  0.00000000000E+00 0. -1.
        -11    1    4    4    0    0 -0.36880231997E+02 -0.74131496009E+01 -0.10635450469E+02  0.39092443078E+02  0.00000000000E+00 0.  1.
         11    1    4    4    0    0  0.51445846319E+02 -0.36509713878E+02  0.50519553351E+01  0.63286306289E+02  0.00000000000E+00 0. -1.
          3    1    1    2  501    0 -0.24619915334E+02  0.43588020731E+02 -0.21060156773E+03  0.21646957318E+03  0.00000000000E+00 0. -1.
<scales pt_clust_5="13000.00000" pt_clust_6="13000.00000" pt_clust_7="13000.00000" pt_clust_8="13000.00000" pt_clust_9="50.06052"></scales>
<clustering>
<clus scale="   50.061">  2  9  1 -1</clus>
<clus scale="   82.897">  5  6 -1 -1</clus>
<clus scale="   83.537">  1  5  2 -1</clus>
<clus scale="   91.153">  7  8 -1 -1</clus>
<clus scale="   50.061">  2  5  1 -1</clus>
</clustering>
</event>
<event>
 9    2  0.1654290E-004  0.1663084E+03  0.7546771E-02  0.1192310E+00
         21   -1    0    0  501  502  0.00000000000E+00  0.00000000000E+00  0.49254533256E+02  0.49254533256E+02  0.00000000000E+00 0. -1.
          2   -1    0    0  502    0 -0.00000000000E+00 -0.00000000000E+00 -0.11103951588E+04  0.11103951588E+04  0.00000000000E+00 0. -1.
         24    2    1    2    0    0  0.87245272475E+02 -0.57079436271E+02 -0.46133580228E+03  0.47972566388E+03  0.80225871819E+02 0.  0.
         23    2    1    2    0    0  0.77682731279E+02  0.86662633142E+02 -0.32354753282E+03  0.35682264704E+03  0.95364441628E+02 0.  0.
        -11    1    3    3    0    0  0.12697512999E+02 -0.27872590159E+02 -0.37619414902E+02  0.48511117242E+02  0.00000000000E+00 0.  1.
         12    1    3    3    0    0  0.74547759476E+02 -0.29206846112E+02 -0.42371638738E+03  0.43121454664E+03  0.00000000000E+00 0. -1.
        -13    1    4    4    0    0  0.44125927157E+02  0.25857540524E+02 -0.25189967767E+03  0.25703921385E+03  0.00000000000E+00 0.  1.
         13    1    4    4    0    0  0.33556804122E+02  0.60805092618E+02 -0.71647855152E+02  0.99783433189E+02  0.00000000000E+00 0. -1.
          1    1    1    2  501    0 -0.16492800375E+03 -0.29583196871E+02 -0.27625729040E+03  0.32310138108E+03  0.00000000000E+00 0. -1.
<scales pt_clust_5="13000.00000" pt_clust_6="13000.00000" pt_clust_7="13000.00000" pt_clust_8="13000.00000" pt_clust_9="136.25021"></scales>
<clustering>
<clus scale="   80.226">  5  6 -1 -1</clus>
<clus scale="   95.364">  7  8 -1 -1</clus>
<clus scale="  131.552">  2  5  1 -1</clus>
<clus scale="  136.250">  1  9  2 -1</clus>
<clus scale="  136.250">  1  5  2 -1</clus>
</clustering>
</event>
<event>
 9    2  0.1654290E-004  0.1923631E+03  0.7546771E-02  0.1186524E+00
         21   -1    0    0  501  502  0.00000000000E+00  0.00000000000E+00  0.77089615700E+02  0.77089615700E+02  0.00000000000E+00 0. -1.
          2   -1    0    0  502    0 -0.00000000000E+00 -0.00000000000E+00 -0.10691001681E+04  0.10691001681E+04  0.00000000000E+00 0. -1.
         24    2    1    2    0    0  0.51002403409E+02 -0.24088317683E+02 -0.55117654166E+02  0.11123224191E+03  0.78442103726E+02 0.  0.
         23    2    1    2    0    0 -0.17692517163E+03  0.43681243144E+02 -0.19556130489E+03  0.28275214602E+03  0.92162816529E+02 0.  0.
        -11    1    3    3    0    0 -0.59397623291E+01 -0.33922317577E+02 -0.51146315289E+01  0.34816143698E+02  0.00000000000E+00 0.  1.
         12    1    3    3    0    0  0.56942165738E+02  0.98339998941E+01 -0.50003022637E+02  0.76416098211E+02  0.00000000000E+00 0. -1.
        -11    1    4    4    0    0 -0.11114407100E+03  0.69895682239E+02 -0.10708157559E+03  0.16942513020E+03  0.00000000000E+00 0.  1.
         11    1    4    4    0    0 -0.65781100634E+02 -0.26214439095E+02 -0.88479729294E+02  0.11332701582E+03  0.00000000000E+00 0. -1.
          1    1    1    2  501    0  0.12592276822E+03 -0.19592925461E+02 -0.74133159338E+03  0.75220539591E+03  0.00000000000E+00 0. -1.
<scales pt_clust_5="13000.00000" pt_clust_6="13000.00000" pt_clust_7="13000.00000" pt_clust_8="13000.00000" pt_clust_9="168.84785"></scales>
<clustering>
<clus scale="   78.442">  5  6 -1 -1</clus>
<clus scale="   92.163">  7  8 -1 -1</clus>
<clus scale="   96.616">  2  5  1 -1</clus>
<clus scale="  168.848">  1  9  2 -1</clus>
<clus scale="  168.848">  1  5  2 -1</clus>
</clustering>
</event>
<event>
 9    2  0.1654290E-004  0.1246565E+03  0.7546771E-02  0.1237790E+00
         21   -1    0    0  501  502  0.00000000000E+00  0.00000000000E+00  0.91822022293E+02  0.91822022293E+02  0.00000000000E+00 0. -1.
          2   -1    0    0  502    0 -0.00000000000E+00 -0.00000000000E+00 -0.46403303335E+03  0.46403303335E+03  0.00000000000E+00 0. -1.
         24    2    1    2    0    0 -0.45488414331E+02  0.69464935265E+02 -0.37286977173E+03  0.39088899172E+03  0.82871974193E+02 0.  0.
         23    2    1    2    0    0  0.64783595633E+02 -0.85102336775E+02  0.13145772614E+01  0.14012129701E+03  0.90514793124E+02 0.  0.
        -11    1    3    3    0    0  0.58153020079E+01  0.50883551432E+02 -0.97161092621E+02  0.10983274313E+03  0.00000000000E+00 0.  1.
         12    1    3    3    0    0 -0.51303716339E+02  0.18581383833E+02 -0.27570867911E+03  0.28105624859E+03  0.00000000000E+00 0. -1.
        -13    1    4    4    0    0  0.87300157233E+02 -0.61070997376E+02 -0.47008140938E+01  0.10664465212E+03  0.00000000000E+00 0. -1.
         13    1    4    4    0    0 -0.22516561600E+02 -0.24031339399E+02  0.60153913552E+01  0.33476644885E+02  0.00000000000E+00 0.  1.
          1    1    1    2  501    0 -0.19295181302E+02  0.15637401511E+02 -0.65581658313E+00  0.24844766911E+02  0.00000000000E+00 0. -1.
<scales pt_clust_5="13000.00000" pt_clust_6="13000.00000" pt_clust_7="13000.00000" pt_clust_8="13000.00000" pt_clust_9="24.83611"></scales>
<clustering>
<clus scale="   24.836">  1  9  2 -1</clus>
<clus scale="   82.872">  5  6 -1 -1</clus>
<clus scale="   90.515">  7  8 -1 -1</clus>
<clus scale="  119.223">  2  5  1 -1</clus>
<clus scale="   24.836">  1  5  2 -1</clus>
</clustering>
</event>
<event>
 9    2  0.1654290E-004  0.1670603E+03  0.7546771E-02  0.1208429E+00
         21   -1    0    0  501  502  0.00000000000E+00  0.00000000000E+00  0.14903674794E+03  0.14903674794E+03  0.00000000000E+00 0.  1.
          2   -1    0    0  502    0 -0.00000000000E+00 -0.00000000000E+00 -0.31907417002E+03  0.31907417002E+03  0.00000000000E+00 0. -1.
         24    2    1    2    0    0 -0.41499589003E+02 -0.13210211248E+02 -0.60005951237E+02  0.10939355216E+03  0.80433261159E+02 0.  0.
         23    2    1    2    0    0 -0.72732862063E+02  0.10934429189E+03  0.14790486066E+02  0.16411177683E+03  0.97301970290E+02 0.  0.
        -11    1    3    3    0    0 -0.17838746534E+00  0.27460101604E+02 -0.39060896621E+02  0.47747697819E+02  0.00000000000E+00 0.  1.
         12    1    3    3    0    0 -0.41321201538E+02 -0.40670312852E+02 -0.20945054616E+02  0.61645854337E+02  0.00000000000E+00 0. -1.
        -11    1    4    4    0    0 -0.42213037751E+02 -0.59508305070E+01 -0.59886127549E+01  0.43049000251E+02  0.00000000000E+00 0.  1.
         11    1    4    4    0    0 -0.30519824313E+02  0.11529512239E+03  0.20779098821E+02  0.12106277657E+03  0.00000000000E+00 0. -1.
          1    1    1    2  501    0  0.11423245107E+03 -0.96134080640E+02 -0.12482195691E+03  0.19460558898E+03  0.00000000000E+00 0. -1.
<scales pt_clust_5="13000.00000" pt_clust_6="13000.00000" pt_clust_7="13000.00000" pt_clust_8="13000.00000" pt_clust_9="135.79944"></scales>
<clustering>
<clus scale="   80.433">  5  6 -1 -1</clus>
<clus scale="   91.467">  2  5  1 -1</clus>
<clus scale="   97.302">  7  8 -1 -1</clus>
<clus scale="  135.799">  1  9  2 -1</clus>
<clus scale="  135.799">  1  5  2 -1</clus>
</clustering>
</event>
<event>
 9    2  0.1654290E-004  0.2059530E+03  0.7546771E-02  0.1168301E+00
          2   -1    0    0  502    0 -0.00000000000E+00  0.00000000000E+00  0.86065252601E+03  0.86065252601E+03  0.00000000000E+00 0. -1.
         21   -1    0    0  501  502  0.00000000000E+00 -0.00000000000E+00 -0.96607763682E+02  0.96607763682E+02  0.00000000000E+00 0. -1.
         23    2    1    2    0    0 -0.74287642558E+02  0.15784175780E+02  0.35643291840E+02  0.12403281064E+03  0.91355896473E+02 0.  0.
         24    2    1    2    0    0  0.27418046547E+02 -0.19862242335E+03  0.40814318722E+03  0.46148569796E+03  0.78648406332E+02 0.  0.
        -11    1    4    4    0    0  0.78267725982E+01 -0.25066828716E+02  0.12661184248E+02  0.29153213506E+02  0.00000000000E+00 0.  1.
         12    1    4    4    0    0  0.19591273949E+02 -0.17355559463E+03  0.39548200297E+03  0.43233248446E+03  0.00000000000E+00 0. -1.
        -13    1    3    3    0    0 -0.28820629121E+02 -0.14079005350E+02  0.57151912923E+02  0.65537685383E+02  0.00000000000E+00 0.  1.
         13    1    3    3    0    0 -0.45467013437E+02  0.29863181129E+02 -0.21508621083E+02  0.58495125258E+02  0.00000000000E+00 0. -1.
          1    1    1    2  501    0  0.46869596011E+02  0.18283824757E+03  0.32025828327E+03  0.37174178109E+03  0.00000000000E+00 0. -1.
<scales pt_clust_5="13000.00000" pt_clust_6="13000.00000" pt_clust_7="13000.00000" pt_clust_8="13000.00000" pt_clust_9="190.34457"></scales>
<clustering>
<clus scale="   78.648">  5  6 -1 -1</clus>
<clus scale="   91.356">  7  8 -1 -1</clus>
<clus scale="  118.801">  1  7  2 -1</clus>
<clus scale="  190.345">  2  9  1 -1</clus>
<clus scale="  190.345">  2  5  1 -1</clus>
</clustering>
</event>
<event>
 9    2  0.1654290E-004  0.9587667E+02  0.7546771E-02  0.1295043E+00
          2   -1    0    0  502    0 -0.00000000000E+00  0.00000000000E+00  0.62330183443E+02  0.62330183443E+02  0.00000000000E+00 0. -1.
         21   -1    0    0  501  502  0.00000000000E+00 -0.00000000000E+00 -0.32929169911E+03  0.32929169911E+03  0.00000000000E+00 0. -1.
         24    2    1    2    0    0  0.36773874497E+02 -0.72629915225E+01 -0.12485788570E+02  0.89863923801E+02  0.80712830413E+02 0.  0.
         23    2    1    2    0    0 -0.19564737956E+01 -0.41501971169E+02 -0.18166095279E+03  0.20745915528E+03  0.91172133587E+02 0.  0.
        -13    1    3    3    0    0 -0.20363049315E+02 -0.17469934787E+01 -0.23785139022E+02  0.31359824647E+02  0.00000000000E+00 0.  1.
         14    1    3    3    0    0  0.57136923812E+02 -0.55159980437E+01  0.11299350453E+02  0.58504099153E+02  0.00000000000E+00 0. -1.
        -13    1    4    4    0    0 -0.40770730130E+02 -0.37422949708E+02 -0.70378560613E+02  0.89531398929E+02  0.00000000000E+00 0.  1.
         13    1    4    4    0    0  0.38814256335E+02 -0.40790214610E+01 -0.11128239217E+03  0.11792775635E+03  0.00000000000E+00 0. -1.
          1    1    1    2  501    0 -0.34817400701E+02  0.48764962692E+02 -0.72814774312E+02  0.94298803471E+02  0.00000000000E+00 0. -1.
<scales pt_clust_5="13000.00000" pt_clust_6="13000.00000" pt_clust_7="13000.00000" pt_clust_8="13000.00000" pt_clust_9="59.91889"></scales>
<clustering>
<clus scale="   59.919">  2  9  1 -1</clus>
<clus scale="   80.713">  5  6 -1 -1</clus>
<clus scale="   85.992">  1  5  2 -1</clus>
<clus scale="   91.172">  7  8 -1 -1</clus>
<clus scale="   59.919">  2  5  1 -1</clus>
</clustering>
</event>
<event>
 9    2  0.1654290E-004  0.9740044E+02  0.7546771E-02  0.1291069E+00
          2   -1    0    0  502    0 -0.00000000000E+00  0.00000000000E+00  0.12143704261E+03  0.12143704261E+03  0.00000000000E+00 0. -1.
         21   -1    0    0  501  502  0.00000000000E+00 -0.00000000000E+00 -0.15208154643E+03  0.15208154643E+03  0.00000000000E+00 0.  1.
         24    2    1    2    0    0 -0.33766150282E+01 -0.37918886301E+02  0.58708940991E+02  0.10753910428E+03  0.81661960109E+02 0.  0.
         23    2    1    2    0    0 -0.22246910752E+02  0.21197606966E+02 -0.33114783024E+02  0.10195641599E+03  0.91401631980E+02 0.  0.
        -11    1    3    3    0    0 -0.35471573429E+02 -0.58897366999E+01  0.35447263661E+01  0.36131518166E+02  0.00000000000E+00 0.  1.
         12    1    3    3    0    0  0.32094958401E+02 -0.32029149601E+02  0.55164214625E+02  0.71407586111E+02  0.00000000000E+00 0. -1.
        -13    1    4    4    0    0 -0.55596414518E+02  0.32623162987E+01 -0.31659844326E+02  0.64062077375E+02  0.00000000000E+00 0.  1.
         13    1    4    4    0    0  0.33349503766E+02  0.17935290668E+02 -0.14549386984E+01  0.37894338619E+02  0.00000000000E+00 0. -1.
          1    1    1    2  501    0  0.25623525780E+02  0.16721279335E+02 -0.56238661787E+02  0.64023068777E+02  0.00000000000E+00 0. -1.
<scales pt_clust_5="13000.00000" pt_clust_6="13000.00000" pt_clust_7="13000.00000" pt_clust_8="13000.00000" pt_clust_9="30.59683"></scales>
<clustering>
<clus scale="   30.597">  2  9  1 -1</clus>
<clus scale="   81.662">  5  6 -1 -1</clus>
<clus scale="   88.325">  1  5  2 -1</clus>
<clus scale="   91.402">  7  8 -1 -1</clus>
<clus scale="   30.597">  2  5  1 -1</clus>
</clustering>
</event>
<event>
 9    2  0.1654290E-004  0.9899424E+02  0.7546771E-02  0.1286617E+00
         -3   -1    0    0    0  501 -0.00000000000E+00  0.00000000000E+00  0.40284853510E+02  0.40284853510E+02  0.00000000000E+00 0.  1.
         21   -1    0    0  501  502  0.00000000000E+00 -0.00000000000E+00 -0.37682097887E+03  0.37682097887E+03  0.00000000000E+00 0.  1.
         24    2    1    2    0    0 -0.14683170826E+02  0.41120321974E+02 -0.95325848037E+02  0.13309172463E+03  0.81975078383E+02 0.  0.
         23    2    1    2    0    0 -0.29203915716E+02 -0.39344249765E+02 -0.13974505313E+03  0.17344999731E+03  0.90307159235E+02 0.  0.
        -13    1    3    3    0    0 -0.27565518957E+02 -0.41691901528E+01 -0.12698203443E+01  0.27907927648E+02  0.00000000000E+00 0.  1.
         14    1    3    3    0    0  0.12882348131E+02  0.45289512126E+02 -0.94056027692E+02  0.10518379698E+03  0.00000000000E+00 0. -1.
        -11    1    4    4    0    0  0.20009743169E+02  0.89703463150E+01 -0.77519470887E+02  0.80561313924E+02  0.00000000000E+00 0. -1.
         11    1    4    4    0    0 -0.49213658885E+02 -0.48314596080E+02 -0.62225582243E+02  0.92888683383E+02  0.00000000000E+00 0.  1.
         -4    1    1    2    0  502  0.43887086542E+02 -0.17760722090E+01 -0.10146522419E+03  0.11056411045E+03  0.00000000000E+00 0.  1.
<scales pt_clust_5="13000.00000" pt_clust_6="13000.00000" pt_clust_7="13000.00000" pt_clust_8="13000.00000" pt_clust_9="43.92301"></scales>
<clustering>
<clus scale="   43.923">  2  9  1 -1</clus>
<clus scale="   81.975">  5  6 -1 -1</clus>
<clus scale="   90.307">  7  8 -1 -1</clus>
<clus scale="   91.457">  1  5  2 -1</clus>
<clus scale="   43.923">  2  5  1 -1</clus>
</clustering>
</event>
<event>
 9    2  0.1654290E-004  0.1652139E+03  0.7546771E-02  0.1184446E+00
          2   -1    0    0  502    0 -0.00000000000E+00  0.00000000000E+00  0.12969507765E+03  0.12969507765E+03  0.00000000000E+00 0. -1.
         21   -1    0    0  501  502  0.00000000000E+00 -0.00000000000E+00 -0.35420885455E+03  0.35420885455E+03  0.00000000000E+00 0.  1.
         24    2    1    2    0    0  0.99297290175E+02  0.96407726037E+02  0.16244141611E+02  0.16055435203E+03  0.79746011455E+02 0.  0.
         23    2    1    2    0    0 -0.66728645476E+02 -0.12724195847E+03 -0.17491639016E+03  0.24368419644E+03  0.90238660936E+02 0.  0.
        -11    1    3    3    0    0 -0.49690018144E+00  0.29305511260E+02 -0.19373884042E+02  0.35134132733E+02  0.00000000000E+00 0.  1.
         12    1    3    3    0    0  0.99794190356E+02  0.67102214777E+02  0.35618025653E+02  0.12542021930E+03  0.00000000000E+00 0. -1.
        -13    1    4    4    0    0 -0.47270704317E+01 -0.84446366638E+02 -0.51300841299E+02  0.98920727612E+02  0.00000000000E+00 0. -1.
         13    1    4    4    0    0 -0.62001575044E+02 -0.42795591834E+02 -0.12361554886E+03  0.14476346883E+03  0.00000000000E+00 0.  1.
          1    1    1    2  501    0 -0.32568644699E+02  0.30834232435E+02 -0.65841528356E+02  0.79665383722E+02  0.00000000000E+00 0. -1.
<scales pt_clust_5="13000.00000" pt_clust_6="13000.00000" pt_clust_7="13000.00000" pt_clust_8="13000.00000" pt_clust_9="44.84938"></scales>
<clustering>
<clus scale="   44.849">  2  9  1 -1</clus>
<clus scale="   79.746">  5  6 -1 -1</clus>
<clus scale="   90.239">  7  8 -1 -1</clus>
<clus scale="  159.725">  1  5  2 -1</clus>
<clus scale="   44.849">  2  5  1 -1</clus>
</clustering>
</event>
<event>
 9    2  0.1654290E-004  0.2549328E+03  0.7546771E-02  0.1147251E+00
         -1   -1    0    0    0  501 -0.00000000000E+00  0.00000000000E+00  0.29710470849E+03  0.29710470849E+03  0.00000000000E+00 0.  1.
         21   -1    0    0  501  502  0.00000000000E+00 -0.00000000000E+00 -0.33982121696E+03  0.33982121696E+03  0.00000000000E+00 0.  1.
         24    2    1    2    0    0 -0.62920808880E+02  0.12834323346E+02 -0.39109473083E+02  0.10966141437E+03  0.79826855573E+02 0.  0.
         23    2    1    2    0    0 -0.64934158451E+02 -0.22092442016E+03  0.93042857759E+02  0.26460582969E+03  0.91297466391E+02 0.  0.
        -13    1    3    3    0    0 -0.50871105539E+02  0.25041919674E+02  0.10059741257E+02  0.57586157312E+02  0.00000000000E+00 0.  1.
         14    1    3    3    0    0 -0.12049703340E+02 -0.12207596328E+02 -0.49169214341E+02  0.52075257057E+02  0.00000000000E+00 0. -1.
        -13    1    4    4    0    0 -0.16187965253E+02 -0.16741567955E+03  0.34940412356E+02  0.17178734643E+03  0.00000000000E+00 0.  1.
         13    1    4    4    0    0 -0.48746193198E+02 -0.53508740614E+02  0.58102445403E+02  0.92818483263E+02  0.00000000000E+00 0. -1.
         -2    1    1    2    0  502  0.12785496733E+03  0.20809009682E+03 -0.96649893143E+02  0.26265868139E+03  0.00000000000E+00 0.  1.
<scales pt_clust_5="13000.00000" pt_clust_6="13000.00000" pt_clust_7="13000.00000" pt_clust_8="13000.00000" pt_clust_9="238.02412"></scales>
<clustering>
<clus scale="   79.827">  5  6 -1 -1</clus>
<clus scale="   91.297">  7  8 -1 -1</clus>
<clus scale="  102.450">  1  5  2 -1</clus>
<clus scale="  238.024">  2  9  1 -1</clus>
<clus scale="  238.024">  2  5  1 -1</clus>
</clustering>
</event>
<event>
 9    2  0.1654290E-004  0.9183561E+02  0.7546771E-02  0.1305583E+00
          2   -1    0    0  502    0 -0.00000000000E+00  0.00000000000E+00  0.39998773095E+03  0.39998773095E+03  0.00000000000E+00 0. -1.
         21   -1    0    0  501  502  0.00000000000E+00 -0.00000000000E+00 -0.51648983367E+02  0.51648983367E+02  0.00000000000E+00 0.  1.
         23    2    1    2    0    0 -0.33374776059E+01  0.47442226300E+01  0.24243411028E+03  0.25916208379E+03  0.91416855371E+02 0.  0.
         24    2    1    2    0    0 -0.17177080214E+02  0.53877372030E+02  0.56915357731E+02  0.11337160937E+03  0.80099566559E+02 0.  0.
        -11    1    4    4    0    0 -0.10865926999E+02  0.43989737191E+02 -0.91892958296E+01  0.46234278469E+02  0.00000000000E+00 0.  1.
         12    1    4    4    0    0 -0.63111532149E+01  0.98876348392E+01  0.66104653561E+02  0.67137330897E+02  0.00000000000E+00 0. -1.
        -13    1    3    3    0    0  0.24704840796E+02  0.39673421275E+02  0.12888729638E+03  0.13709939709E+03  0.00000000000E+00 0. -1.
         13    1    3    3    0    0 -0.28042318402E+02 -0.34929198645E+02  0.11354681390E+03  0.12206268670E+03  0.00000000000E+00 0.  1.
          1    1    1    2  501    0  0.20514557820E+02 -0.58621594660E+02  0.48989279580E+02  0.79103021161E+02  0.00000000000E+00 0. -1.
<scales pt_clust_5="13000.00000" pt_clust_6="13000.00000" pt_clust_7="13000.00000" pt_clust_8="13000.00000" pt_clust_9="62.10747"></scales>
<clustering>
<clus scale="   62.107">  2  9  1 -1</clus>
<clus scale="   80.100">  5  6 -1 -1</clus>
<clus scale="   80.577">  2  5  1 -1</clus>
<clus scale="   91.417">  7  8 -1 -1</clus>
<clus scale="   62.107">  2  5  1 -1</clus>
</clustering>
</event>
<event>
 9    2  0.1654290E-004  0.1534907E+03  0.7546771E-02  0.1222786E+00
          2   -1    0    0  502    0 -0.00000000000E+00  0.00000000000E+00  0.89809674421E+03  0.89809674421E+03  0.00000000000E+00 0. -1.
         21   -1    0    0  501  502  0.00000000000E+00 -0.00000000000E+00 -0.11909076727E+03  0.11909076727E+03  0.00000000000E+00 0. -1.
         24    2    1    2    0    0  0.11892382479E+02 -0.62804765643E+02  0.66372849337E+02  0.10946322808E+03  0.59084480398E+02 0.  0.
         23    2    1    2    0    0  0.99987932789E+02 -0.66159881796E+02 -0.23168864467E+02  0.15237426073E+03  0.91139466689E+02 0.  0.
        -13    1    3    3    0    0  0.32922808510E+02 -0.19726771253E+02  0.36590746928E+02  0.53027724683E+02  0.00000000000E+00 0.  1.
         14    1    3    3    0    0 -0.21030426031E+02 -0.43077994390E+02  0.29782102409E+02  0.56435503397E+02  0.00000000000E+00 0. -1.
        -11    1    4    4    0    0  0.56303911694E+02 -0.81379411462E+02  0.34211340926E+01  0.99017388576E+02  0.00000000000E+00 0.  1.
         11    1    4    4    0    0  0.43684021095E+02  0.15219529665E+02 -0.26589998559E+02  0.53356872150E+02  0.00000000000E+00 0. -1.
          1    1    1    2  501    0 -0.11188031527E+03  0.12896464744E+03  0.73580199207E+03  0.75535002268E+03  0.00000000000E+00 0. -1.
<scales pt_clust_5="13000.00000" pt_clust_6="13000.00000" pt_clust_7="13000.00000" pt_clust_8="13000.00000" pt_clust_9="123.50303"></scales>
<clustering>
<clus scale="   59.084">  5  6 -1 -1</clus>
<clus scale="   87.045">  1  5  2 -1</clus>
<clus scale="   91.139">  7  8 -1 -1</clus>
<clus scale="  123.503">  2  9  1 -1</clus>
<clus scale="  123.503">  2  5  1 -1</clus>
</clustering>
</event>
<event>
 9    2  0.1654290E-004  0.2365441E+03  0.7546771E-02  0.1122763E+00
          2   -1    0    0  502    0 -0.00000000000E+00  0.00000000000E+00  0.18417775956E+03  0.18417775956E+03  0.00000000000E+00 0. -1.
         21   -1    0    0  501  502  0.00000000000E+00 -0.00000000000E+00 -0.56426071734E+03  0.56426071734E+03  0.00000000000E+00 0.  1.
         23    2    1    2    0    0  0.92412277858E+02 -0.14247831368E+03 -0.17452927583E+03  0.26001245544E+03  0.91136764774E+02 0.  0.
         24    2    1    2    0    0 -0.20910767063E+03  0.19403924222E+03 -0.20566847397E+03  0.36084719396E+03  0.80832733241E+02 0.  0.
        -13    1    4    4    0    0 -0.17351834376E+03  0.16703944069E+03 -0.20481905033E+03  0.31616709782E+03  0.00000000000E+00 0.  1.
         14    1    4    4    0    0 -0.35589326874E+02  0.26999801535E+02 -0.84942363657E+00  0.44680096136E+02  0.00000000000E+00 0. -1.
        -13    1    3    3    0    0  0.99605382521E+02 -0.83416186486E+02 -0.14094511718E+03  0.19168990180E+03  0.00000000000E+00 0. -1.
         13    1    3    3    0    0 -0.71931046629E+01 -0.59062127197E+02 -0.33584158650E+02  0.68322553640E+02  0.00000000000E+00 0.  1.
          1    1    1    2  501    0  0.11669539277E+03 -0.51560928540E+02  0.11479202507E+00  0.12757882749E+03  0.00000000000E+00 0. -1.
<scales pt_clust_5="13000.00000" pt_clust_6="13000.00000" pt_clust_7="13000.00000" pt_clust_8="13000.00000" pt_clust_9="127.57884"></scales>
<clustering>
<clus scale="   80.833">  5  6 -1 -1</clus>
<clus scale="   91.137">  7  8 -1 -1</clus>
<clus scale="  127.579">  2  9  1 -1</clus>
<clus scale="  232.768">  2  5  1 -1</clus>
<clus scale="  127.579">  2  5  1 -1</clus>
</clustering>
</event>
<event>
 9    2  0.1654290E-004  0.1359027E+03  0.7546771E-02  0.1221006E+00
          2   -1    0    0  502    0 -0.00000000000E+00  0.00000000000E+00  0.90722992003E+03  0.90722992003E+03  0.00000000000E+00 0. -1.
         21   -1    0    0  501  502  0.00000000000E+00 -0.00000000000E+00 -0.99327006817E+02  0.99327006817E+02  0.00000000000E+00 0. -1.
         23    2    1    2    0    0 -0.37720149979E+02  0.10677571759E+03  0.56446471591E+03  0.58271058629E+03  0.90040814570E+02 0.  0.
         24    2    1    2    0    0 -0.90746286451E+01 -0.92145328277E+02  0.31437409779E+03  0.33761582637E+03  0.81118816854E+02 0.  0.
        -13    1    4    4    0    0  0.33438365488E+02 -0.24232449956E+02  0.13467302202E+03  0.14086219783E+03  0.00000000000E+00 0.  1.
         14    1    4    4    0    0 -0.42512994133E+02 -0.67912878321E+02  0.17970107577E+03  0.19675362854E+03  0.00000000000E+00 0. -1.
        -13    1    3    3    0    0 -0.42775962628E+02  0.20587751660E+02  0.10539655245E+03  0.11559442792E+03  0.00000000000E+00 0.  1.
         13    1    3    3    0    0  0.50558126486E+01  0.86187965926E+02  0.45906816346E+03  0.46711615837E+03  0.00000000000E+00 0. -1.
          1    1    1    2  501    0  0.46794778624E+02 -0.14630389309E+02 -0.70935900489E+02  0.86230514181E+02  0.00000000000E+00 0. -1.
<scales pt_clust_5="13000.00000" pt_clust_6="13000.00000" pt_clust_7="13000.00000" pt_clust_8="13000.00000" pt_clust_9="49.02856"></scales>
<clustering>
<clus scale="   49.029">  2  9  1 -1</clus>
<clus scale="   81.119">  5  6 -1 -1</clus>
<clus scale="   90.041">  7  8 -1 -1</clus>
<clus scale="  130.163">  2  5  1 -1</clus>
<clus scale="   49.029">  2  5  1 -1</clus>
</clustering>
</event>
<event>
 9    2  0.1654290E-004  0.1062614E+03  0.7546771E-02  0.1272822E+00
         21   -1    0    0  501  502  0.00000000000E+00  0.00000000000E+00  0.13495352433E+03  0.13495352433E+03  0.00000000000E+00 0.  1.
         -3   -1    0    0    0  501 -0.00000000000E+00 -0.00000000000E+00 -0.22932715637E+03  0.22932715637E+03  0.00000000000E+00 0.  1.
         23    2    1    2    0    0  0.25673470858E+02 -0.43580066920E+02 -0.88934567339E+02  0.13792485976E+03  0.92496272004E+02 0.  0.
         24    2    1    2    0    0  0.12240046477E+02  0.71735730716E+02  0.75733267595E+02  0.13244563124E+03  0.80687567902E+02 0.  0.
        -11    1    4    4    0    0 -0.12811735794E+02  0.62514525344E+02  0.14204797171E+02  0.65375704323E+02  0.00000000000E+00 0.  1.
         12    1    4    4    0    0  0.25051782271E+02  0.92212053721E+01  0.61528470424E+02  0.67069926914E+02  0.00000000000E+00 0. -1.
        -11    1    3    3    0    0 -0.22279040938E+02  0.16726379125E+02 -0.29848729011E+02  0.40829818115E+02  0.00000000000E+00 0. -1.
         11    1    3    3    0    0  0.47952511796E+02 -0.60306446045E+02 -0.59085838328E+02  0.97095041650E+02  0.00000000000E+00 0.  1.
         -4    1    1    2    0  502 -0.37913517335E+02 -0.28155663796E+02 -0.81172332287E+02  0.93910189699E+02  0.00000000000E+00 0.  1.
<scales pt_clust_5="13000.00000" pt_clust_6="13000.00000" pt_clust_7="13000.00000" pt_clust_8="13000.00000" pt_clust_9="47.22477"></scales>
<clustering>
<clus scale="   47.225">  1  9  2 -1</clus>
<clus scale="   80.688">  5  6 -1 -1</clus>
<clus scale="   92.496">  7  8 -1 -1</clus>
<clus scale="   96.158">  1  5  2 -1</clus>
<clus scale="   47.225">  1  5  2 -1</clus>
</clustering>
</event>
<event>
 9    2  0.1654290E-004  0.1387878E+03  0.7546771E-02  0.1217300E+00
         21   -1    0    0  501  502  0.00000000000E+00  0.00000000000E+00  0.36090276502E+02  0.36090276502E+02  0.00000000000E+00 0.  1.
          2   -1    0    0  502    0 -0.00000000000E+00 -0.00000000000E+00 -0.72434686925E+03  0.72434686925E+03  0.00000000000E+00 0. -1.
         24    2    1    2    0    0  0.11192263304E+02  0.11141067563E+03 -0.47019615158E+03  0.48979814103E+03  0.79247666187E+02 0.  0.
         23    2    1    2    0    0 -0.28908406572E+02 -0.89979927059E+02 -0.19446884666E+03  0.23417392488E+03  0.89928924862E+02 0.  0.
        -13    1    3    3    0    0  0.10795094710E+02  0.43936153301E+02 -0.66059982288E+02  0.80067726936E+02  0.00000000000E+00 0.  1.
         14    1    3    3    0    0  0.39716859391E+00  0.67474522330E+02 -0.40413616929E+03  0.40973041409E+03  0.00000000000E+00 0. -1.
        -11    1    4    4    0    0  0.42130122403E+01 -0.58953142461E+02 -0.35705937214E+02  0.69051693900E+02  0.00000000000E+00 0.  1.
         11    1    4    4    0    0 -0.33121418812E+02 -0.31026784598E+02 -0.15876290945E+03  0.16512223098E+03  0.00000000000E+00 0. -1.
          1    1    1    2  501    0  0.17716143267E+02 -0.21430748572E+02 -0.23591594511E+02  0.36465079846E+02  0.00000000000E+00 0. -1.
<scales pt_clust_5="13000.00000" pt_clust_6="13000.00000" pt_clust_7="13000.00000" pt_clust_8="13000.00000" pt_clust_9="27.80537"></scales>
<clustering>
<clus scale="   27.805">  1  9  2 -1</clus>
<clus scale="   79.248">  5  6 -1 -1</clus>
<clus scale="   89.929">  7  8 -1 -1</clus>
<clus scale="  132.118">  2  5  1 -1</clus>
<clus scale="   27.805">  1  5  2 -1</clus>
</clustering>
</event>
<event>
 9    2  0.1654290E-004  0.1028094E+03  0.7546771E-02  0.1279214E+00
         -3   -1    0    0    0  501 -0.00000000000E+00  0.00000000000E+00  0.18601843060E+03  0.18601843060E+03  0.00000000000E+00 0.  1.
         21   -1    0    0  501  502  0.00000000000E+00 -0.00000000000E+00 -0.19766726473E+03  0.19766726473E+03  0.00000000000E+00 0.  1.
         24    2    1    2    0    0 -0.20011477017E+01 -0.14532485315E+02  0.35625793759E+02  0.90111107364E+02  0.81459295159E+02 0.  0.
         23    2    1    2    0    0 -0.90121309454E+01  0.90689037447E+02  0.74800799495E+02  0.14927100967E+03  0.91547554346E+02 0.  0.
        -13    1    3    3    0    0  0.25327967269E+02  0.84861408501E+01  0.45746330353E+02  0.52974024326E+02  0.00000000000E+00 0.  1.
         14    1    3    3    0    0 -0.27329114970E+02 -0.23018626165E+02 -0.10120536594E+02  0.37137083038E+02  0.00000000000E+00 0. -1.
        -11    1    4    4    0    0  0.33967285616E+02  0.25712110320E+02  0.53723994034E+02  0.68564981180E+02  0.00000000000E+00 0. -1.
         11    1    4    4    0    0 -0.42979416562E+02  0.64976927127E+02  0.21076805461E+02  0.80706028494E+02  0.00000000000E+00 0.  1.
         -4    1    1    2    0  502  0.11013278647E+02 -0.76156552132E+02 -0.12207542738E+03  0.14430357830E+03  0.00000000000E+00 0.  1.
<scales pt_clust_5="13000.00000" pt_clust_6="13000.00000" pt_clust_7="13000.00000" pt_clust_8="13000.00000" pt_clust_9="76.94877"></scales>
<clustering>
<clus scale="   76.949">  2  9  1 -1</clus>
<clus scale="   81.459">  5  6 -1 -1</clus>
<clus scale="   91.548">  7  8 -1 -1</clus>
<clus scale="   93.938">  1  5  2 -1</clus>
<clus scale="   76.949">  2  5  1 -1</clus>
</clustering>
</event>
<event>
 9    2  0.1654290E-004  0.1014562E+03  0.7546771E-02  0.1284088E+00
          2   -1    0    0  502    0 -0.00000000000E+00  0.00000000000E+00  0.68839628289E+03  0.68839628289E+03  0.00000000000E+00 0. -1.
         21   -1    0    0  501  502  0.00000000000E+00 -0.00000000000E+00 -0.95376453675E+02  0.95376453675E+02  0.00000000000E+00 0. -1.
         24    2    1    2    0    0  0.26300956579E+02 -0.27004023279E+02  0.45078429255E+03  0.45957870237E+03  0.81148922780E+02 0.  0.
         23    2    1    2    0    0 -0.39239837253E+02  0.71645305588E+01  0.22008035080E+03  0.24282551945E+03  0.94539815743E+02 0.  0.
        -13    1    3    3    0    0 -0.22497293730E+02  0.58799398151E+01  0.59289816990E+02  0.63686610179E+02  0.00000000000E+00 0.  1.
         14    1    3    3    0    0  0.48798250309E+02 -0.32883963095E+02  0.39149447556E+03  0.39589209219E+03  0.00000000000E+00 0. -1.
        -11    1    4    4    0    0 -0.45693890474E+02 -0.36442407137E+02  0.12062920341E+03  0.13404247603E+03  0.00000000000E+00 0. -1.
         11    1    4    4    0    0  0.64540532204E+01  0.43606937696E+02  0.99451147392E+02  0.10878304342E+03  0.00000000000E+00 0.  1.
          1    1    1    2  501    0  0.12938880674E+02  0.19839492721E+02 -0.77844814137E+02  0.81368514750E+02  0.00000000000E+00 0. -1.
<scales pt_clust_5="13000.00000" pt_clust_6="13000.00000" pt_clust_7="13000.00000" pt_clust_8="13000.00000" pt_clust_9="23.68586"></scales>
<clustering>
<clus scale="   23.686">  2  9  1 -1</clus>
<clus scale="   81.149">  5  6 -1 -1</clus>
<clus scale="   89.111">  1  5  2 -1</clus>
<clus scale="   94.540">  7  8 -1 -1</clus>
<clus scale="   23.686">  2  5  1 -1</clus>
</clustering>
</event>
<event>
 9    2  0.1654290E-004  0.2723936E+03  0.7546771E-02  0.1113924E+00
         21   -1    0    0  501  502  0.00000000000E+00  0.00000000000E+00  0.74679890618E+02  0.74679890618E+02  0.00000000000E+00 0. -1.
          2   -1    0    0  502    0 -0.00000000000E+00 -0.00000000000E+00 -0.20387617250E+04  0.20387617250E+04  0.00000000000E+00 0. -1.
         24    2    1    2    0    0  0.11064855233E+03  0.13229382486E+03 -0.31267502565E+03  0.36601625401E+03  0.80358374249E+02 0.  0.
         23    2    1    2    0    0 -0.31908790802E+03 -0.20326560391E+02 -0.10450330584E+04  0.10965238649E+04  0.89667335413E+02 0.  0.
        -13    1    3    3    0    0  0.41933025643E+02  0.15144474075E+02 -0.34211927503E+02  0.56197773248E+02  0.00000000000E+00 0.  1.
         14    1    3    3    0    0  0.68715526683E+02  0.11714935078E+03 -0.27846309815E+03  0.30981848077E+03  0.00000000000E+00 0. -1.
        -11    1    4    4    0    0 -0.25720370106E+03 -0.88590395636E+01 -0.93490420623E+03  0.96967938064E+03  0.00000000000E+00 0. -1.
         11    1    4    4    0    0 -0.61884206960E+02 -0.11467520828E+02 -0.11012885216E+03  0.12684448424E+03  0.00000000000E+00 0.  1.
          1    1    1    2  501    0  0.20843935570E+03 -0.11196726447E+03 -0.60637375030E+03  0.65090149667E+03  0.00000000000E+00 0. -1.
<scales pt_clust_5="13000.00000" pt_clust_6="13000.00000" pt_clust_7="13000.00000" pt_clust_8="13000.00000" pt_clust_9="257.21210"></scales>
<clustering>
<clus scale="   80.358">  5  6 -1 -1</clus>
<clus scale="   89.667">  7  8 -1 -1</clus>
<clus scale="  190.269">  2  5  1 -1</clus>
<clus scale="  257.212">  1  9  2 -1</clus>
<clus scale="  257.212">  1  5  2 -1</clus>
</clustering>
</event>
<event>
 9    2  0.1654290E-004  0.1066885E+03  0.7546771E-02  0.1270850E+00
          2   -1    0    0  502    0 -0.00000000000E+00  0.00000000000E+00  0.14931979539E+04  0.14931979539E+04  0.00000000000E+00 0. -1.
         21   -1    0    0  501  502  0.00000000000E+00 -0.00000000000E+00 -0.13764668887E+02  0.13764668887E+02  0.00000000000E+00 0. -1.
         24    2    1    2    0    0  0.58225031243E+02  0.51454598091E+02  0.77960190423E+03  0.78771533904E+03  0.81722679501E+02 0.  0.
         23    2    1    2    0    0 -0.34296634994E+02  0.11544557913E+02  0.38814594269E+03  0.40035972658E+03  0.91220073693E+02 0.  0.
        -13    1    3    3    0    0  0.21972172834E+02  0.43090158792E+02  0.16384286988E+03  0.17083332278E+03  0.00000000000E+00 0.  1.
         14    1    3    3    0    0  0.36252858408E+02  0.83644392990E+01  0.61575903435E+03  0.61688201625E+03  0.00000000000E+00 0. -1.
        -13    1    4    4    0    0  0.20912629554E+02 -0.24198894225E+02  0.14410346588E+03  0.14761007227E+03  0.00000000000E+00 0.  1.
         13    1    4    4    0    0 -0.55209264548E+02  0.35743452137E+02  0.24404247682E+03  0.25274965431E+03  0.00000000000E+00 0. -1.
          1    1    1    2  501    0 -0.23928396249E+02 -0.62999156003E+02  0.31168543807E+03  0.31888755715E+03  0.00000000000E+00 0. -1.
<scales pt_clust_5="13000.00000" pt_clust_6="13000.00000" pt_clust_7="13000.00000" pt_clust_8="13000.00000" pt_clust_9="67.39037"></scales>
<clustering>
<clus scale="   67.390">  2  9  1 -1</clus>
<clus scale="   81.723">  5  6 -1 -1</clus>
<clus scale="   91.220">  7  8 -1 -1</clus>
<clus scale="   98.691">  1  5  2 -1</clus>
<clus scale="   67.390">  2  5  1 -1</clus>
</clustering>
</event>
<event>
 9    2  0.1654290E-004  0.4306101E+03  0.7546771E-02  0.1075195E+00
          4   -1    0    0  502    0 -0.00000000000E+00  0.00000000000E+00  0.31407820285E+03  0.31407820285E+03  0.00000000000E+00 0. -1.
         21   -1    0    0  501  502  0.00000000000E+00 -0.00000000000E+00 -0.14523269390E+04  0.14523269390E+04  0.00000000000E+00 0. -1.
         23    2    1    2    0    0  0.17296177390E+02  0.96433164422E+02 -0.43410779352E+03  0.45401154794E+03  0.89879899389E+02 0.  0.
         24    2    1    2    0    0 -0.20236623875E+03 -0.45784783210E+03 -0.87043405449E+01  0.50709640831E+03  0.80587032659E+02 0.  0.
        -13    1    4    4    0    0 -0.28036536140E+02 -0.15482068701E+03  0.16797371198E+01  0.15734774864E+03  0.00000000000E+00 0.  1.
         14    1    4    4    0    0 -0.17432970261E+03 -0.30302714509E+03 -0.10384077665E+02  0.34974865967E+03  0.00000000000E+00 0. -1.
        -13    1    3    3    0    0  0.32706739822E+02  0.27181535569E+00 -0.15463436827E+03  0.15805566287E+03  0.00000000000E+00 0.  1.
         13    1    3    3    0    0 -0.15410562432E+02  0.96161349067E+02 -0.27947342524E+03  0.29595588507E+03  0.00000000000E+00 0. -1.
          3    1    1    2  501    0  0.18507006136E+03  0.36141466767E+03 -0.69543660213E+03  0.80529718564E+03  0.00000000000E+00 0. -1.
<scales pt_clust_5="13000.00000" pt_clust_6="13000.00000" pt_clust_7="13000.00000" pt_clust_8="13000.00000" pt_clust_9="423.00208"></scales>
<clustering>
<clus scale="   80.587">  5  6 -1 -1</clus>
<clus scale="   89.880">  7  8 -1 -1</clus>
<clus scale="  132.955">  1  7  2 -1</clus>
<clus scale="  423.002">  2  9  1 -1</clus>
<clus scale="  423.002">  2  5  1 -1</clus>
</clustering>
</event>
<event>
 9    2  0.1654290E-004  0.1359033E+03  0.7546771E-02  0.1221579E+00
         21   -1    0    0  501  502  0.00000000000E+00  0.00000000000E+00  0.10747186374E+03  0.10747186374E+03  0.00000000000E+00 0.  1.
         -1   -1    0    0    0  501 -0.00000000000E+00 -0.00000000000E+00 -0.30194391334E+03  0.30194391334E+03  0.00000000000E+00 0.  1.
         24    2    1    2    0    0 -0.14748357443E+02 -0.11741409814E+03 -0.19178824177E+03  0.23928835923E+03  0.80452499601E+02 0.  0.
         23    2    1    2    0    0  0.49430106950E+01  0.56852969273E+02  0.61082826911E+01  0.10815084154E+03  0.91665696634E+02 0.  0.
        -11    1    3    3    0    0  0.15421260399E+02 -0.55296325022E+02 -0.33196017063E+02  0.66313455513E+02  0.00000000000E+00 0.  1.
         12    1    3    3    0    0 -0.30169617842E+02 -0.62117773116E+02 -0.15859222471E+03  0.17297490372E+03  0.00000000000E+00 0. -1.
        -13    1    4    4    0    0  0.16565092048E+02  0.19601146835E+02 -0.40137739986E+02  0.47640795574E+02  0.00000000000E+00 0. -1.
         13    1    4    4    0    0 -0.11622081353E+02  0.37251822438E+02  0.46246022677E+02  0.60510045970E+02  0.00000000000E+00 0.  1.
         -2    1    1    2    0  502  0.98053467476E+01  0.60561128865E+02 -0.87920905170E+01  0.61976576301E+02  0.00000000000E+00 0.  1.
<scales pt_clust_5="13000.00000" pt_clust_6="13000.00000" pt_clust_7="13000.00000" pt_clust_8="13000.00000" pt_clust_9="61.34978"></scales>
<clustering>
<clus scale="   61.350">  1  9  2 -1</clus>
<clus scale="   80.452">  5  6 -1 -1</clus>
<clus scale="   91.666">  7  8 -1 -1</clus>
<clus scale="  128.607">  2  5  1 -1</clus>
<clus scale="   61.350">  1  5  2 -1</clus>
</clustering>
</event>
<event>
 9    2  0.1654290E-004  0.1268328E+03  0.7546771E-02  0.1236495E+00
          2   -1    0    0  502    0 -0.00000000000E+00  0.00000000000E+00  0.50464756747E+03  0.50464756747E+03  0.00000000000E+00 0. -1.
         21   -1    0    0  501  502  0.00000000000E+00 -0.00000000000E+00 -0.22756085892E+03  0.22756085892E+03  0.00000000000E+00 0. -1.
         23    2    1    2    0    0  0.87692094256E+02  0.15757309532E+01  0.47236004360E+03  0.48968951074E+03  0.94759800651E+02 0.  0.
         24    2    1    2    0    0 -0.40832900964E+02  0.81171354226E+01 -0.92691859434E+02  0.12932574097E+03  0.80000954900E+02 0.  0.
        -13    1    4    4    0    0 -0.14798564896E+02 -0.25865351944E+02 -0.30108252499E+01  0.29951277483E+02  0.00000000000E+00 0.  1.
         14    1    4    4    0    0 -0.26034336068E+02  0.33982487366E+02 -0.89681034184E+02  0.99374463492E+02  0.00000000000E+00 0. -1.
        -13    1    3    3    0    0  0.72006997489E+02  0.23516839516E+02  0.44451761726E+03  0.45092567180E+03  0.00000000000E+00 0. -1.
         13    1    3    3    0    0  0.15685096767E+02 -0.21941108563E+02  0.27842426337E+02  0.38763838946E+02  0.00000000000E+00 0.  1.
          1    1    1    2  501    0 -0.46859193292E+02 -0.96928663758E+01 -0.10258147561E+03  0.11319317467E+03  0.00000000000E+00 0. -1.
<scales pt_clust_5="13000.00000" pt_clust_6="13000.00000" pt_clust_7="13000.00000" pt_clust_8="13000.00000" pt_clust_9="47.85118"></scales>
<clustering>
<clus scale="   47.851">  2  9  1 -1</clus>
<clus scale="   80.001">  5  6 -1 -1</clus>
<clus scale="   94.760">  7  8 -1 -1</clus>
<clus scale="  116.221">  2  5  1 -1</clus>
<clus scale="   47.851">  2  5  1 -1</clus>
</clustering>
</event>
<event>
 9    2  0.1654290E-004  0.1183263E+03  0.7546771E-02  0.1250457E+00
         21   -1    0    0  501  502  0.00000000000E+00  0.00000000000E+00  0.29245723495E+02  0.29245723495E+02  0.00000000000E+00 0.  1.
         -1   -1    0    0    0  501 -0.00000000000E+00 -0.00000000000E+00 -0.13678424574E+04  0.13678424574E+04  0.00000000000E+00 0.  1.
         23    2    1    2    0    0 -0.40471579328E+02 -0.45797876315E+02 -0.53364705163E+03  0.54504767078E+03  0.92533202098E+02 0.  0.
         24    2    1    2    0    0  0.13360056743E+03  0.20305077312E+02 -0.30431381896E+03  0.34217860837E+03  0.78853610150E+02 0.  0.
        -13    1    4    4    0    0  0.12638727503E+03  0.36196188867E+02 -0.29362578742E+03  0.32171417503E+03  0.00000000000E+00 0.  1.
         14    1    4    4    0    0  0.72132924005E+01 -0.15891111555E+02 -0.10688031542E+02  0.20464433341E+02  0.00000000000E+00 0. -1.
        -13    1    3    3    0    0 -0.34188748213E+02 -0.73706897357E+02 -0.42503934204E+03  0.43273550756E+03  0.00000000000E+00 0.  1.
         13    1    3    3    0    0 -0.62828311150E+01  0.27909021042E+02 -0.10860770960E+03  0.11231216322E+03  0.00000000000E+00 0. -1.
         -2    1    1    2    0  502 -0.93128988100E+02  0.25492799003E+02 -0.50063586332E+03  0.50986190176E+03  0.00000000000E+00 0.  1.
<scales pt_clust_5="13000.00000" pt_clust_6="13000.00000" pt_clust_7="13000.00000" pt_clust_8="13000.00000" pt_clust_9="96.55517"></scales>
<clustering>
<clus scale="   78.854">  5  6 -1 -1</clus>
<clus scale="   92.533">  7  8 -1 -1</clus>
<clus scale="   96.555">  1  9  2 -1</clus>
<clus scale="  107.966">  1  5  2 -1</clus>
<clus scale="   96.555">  1  5  2 -1</clus>
</clustering>
</event>
<event>
 9    2  0.1654290E-004  0.1059557E+03  0.7546771E-02  0.1272556E+00
         -3   -1    0    0    0  501 -0.00000000000E+00  0.00000000000E+00  0.63527542299E+03  0.63527542299E+03  0.00000000000E+00 0.  1.
         21   -1    0    0  501  502  0.00000000000E+00 -0.00000000000E+00 -0.52861734570E+02  0.52861734570E+02  0.00000000000E+00 0. -1.
         24    2    1    2    0    0 -0.86423546880E+01 -0.38989356752E+02  0.21895020638E+03  0.23671784917E+03  0.80630558781E+02 0.  0.
         23    2    1    2    0    0 -0.27807979027E+02  0.11905246618E+03  0.12407530908E+03  0.19637926119E+03  0.90682735415E+02 0.  0.
        -13    1    3    3    0    0 -0.25787804777E+02 -0.51400828119E+02  0.20067959908E+03  0.20875669449E+03  0.00000000000E+00 0.  1.
         14    1    3    3    0    0  0.17145450089E+02  0.12411471367E+02  0.18270607297E+02  0.27961154683E+02  0.00000000000E+00 0. -1.
        -11    1    4    4    0    0 -0.44465424270E+02  0.81914297211E+02  0.12468609589E+03  0.15567192602E+03  0.00000000000E+00 0.  1.
         11    1    4    4    0    0  0.16657445243E+02  0.37138168967E+02 -0.61078680879E+00  0.40707335171E+02  0.00000000000E+00 0. -1.
         -4    1    1    2    0  502  0.36450333715E+02 -0.80063109426E+02  0.23938817297E+03  0.25504004720E+03  0.00000000000E+00 0.  1.
<scales pt_clust_5="13000.00000" pt_clust_6="13000.00000" pt_clust_7="13000.00000" pt_clust_8="13000.00000" pt_clust_9="87.97009"></scales>
<clustering>
<clus scale="   80.631">  5  6 -1 -1</clus>
<clus scale="   87.970">  2  9  1 -1</clus>
<clus scale="   90.683">  7  8 -1 -1</clus>
<clus scale="   97.491">  1  5  2 -1</clus>
<clus scale="   87.970">  2  5  1 -1</clus>
</clustering>
</event>
<event>
 9    2  0.1656901E-004  0.1033518E+03  0.7546771E-02  0.1279335E+00
         21   -1    0    0  501  502  0.00000000000E+00  0.00000000000E+00  0.93048765093E+02  0.93048765093E+02  0.00000000000E+00 0. -1.
          2   -1    0    0  502    0 -0.00000000000E+00 -0.00000000000E+00 -0.11564912813E+04  0.11564912813E+04  0.00000000000E+00 0. -1.
         24    2    1    2    0    0 -0.35262852409E+02  0.38348551264E+02 -0.94132308493E+03  0.94608610757E+03  0.79219268908E+02 0.  0.
         23    2    1    2    0    0  0.43296721037E+02  0.15205316221E+02 -0.19037786673E+03  0.21632315335E+03  0.91903029547E+02 0.  0.
        -13    1    3    3    0    0 -0.90194441498E+01 -0.21963052641E+02 -0.13392514493E+03  0.13601349381E+03  0.00000000000E+00 0.  1.
         14    1    3    3    0    0 -0.26243408259E+02  0.60311603905E+02 -0.80739794001E+03  0.81007261376E+03  0.00000000000E+00 0. -1.
        -11    1    4    4    0    0  0.70132670858E+02 -0.20942475946E+01 -0.14150520509E+03  0.15794524514E+03  0.00000000000E+00 0. -1.
         11    1    4    4    0    0 -0.26835949821E+02  0.17299563816E+02 -0.48872661644E+02  0.58377908212E+02  0.00000000000E+00 0.  1.
          1    1    1    2  501    0 -0.80338686280E+01 -0.53553867485E+02  0.68258435451E+02  0.87130785478E+02  0.00000000000E+00 0. -1.
<scales pt_clust_5="13000.00000" pt_clust_6="13000.00000" pt_clust_7="13000.00000" pt_clust_8="13000.00000" pt_clust_9="54.15311"></scales>
<clustering>
<clus scale="   54.153">  1  9  2 -1</clus>
<clus scale="   79.219">  5  6 -1 -1</clus>
<clus scale="   91.903">  7  8 -1 -1</clus>
<clus scale="   92.256">  2  5  1 -1</clus>
<clus scale="   54.153">  1  5  2 -1</clus>
</clustering>
</event>
<event>
 9    2  0.1654290E-004  0.1213618E+03  0.7546771E-02  0.1244506E+00
         -1   -1    0    0    0  501 -0.00000000000E+00  0.00000000000E+00  0.70001965092E+03  0.70001965092E+03  0.00000000000E+00 0.  1.
         21   -1    0    0  501  502  0.00000000000E+00 -0.00000000000E+00 -0.33786661254E+02  0.33786661254E+02  0.00000000000E+00 0.  1.
         23    2    1    2    0    0  0.55920476360E+02 -0.99154677934E+01  0.23549119964E+03  0.25890871154E+03  0.91390369443E+02 0.  0.
         24    2    1    2    0    0 -0.10136531402E+03  0.50622367841E+02  0.28324902142E+03  0.31528431242E+03  0.79603005663E+02 0.  0.
        -13    1    4    4    0    0 -0.55745662342E+02  0.69500901009E+02  0.18108472517E+03  0.20181583635E+03  0.00000000000E+00 0.  1.
         14    1    4    4    0    0 -0.45619651682E+02 -0.18878533167E+02  0.10216429625E+03  0.11346847608E+03  0.00000000000E+00 0. -1.
        -11    1    3    3    0    0  0.52326376946E+02 -0.41272387784E+02  0.10277773805E+03  0.12249376783E+03  0.00000000000E+00 0.  1.
         11    1    3    3    0    0  0.35940994137E+01  0.31356919991E+02  0.13271346159E+03  0.13641494371E+03  0.00000000000E+00 0. -1.
         -2    1    1    2    0  502  0.45444837665E+02 -0.40706900048E+02  0.14749276861E+03  0.15961328821E+03  0.00000000000E+00 0.  1.
<scales pt_clust_5="13000.00000" pt_clust_6="13000.00000" pt_clust_7="13000.00000" pt_clust_8="13000.00000" pt_clust_9="61.01056"></scales>
<clustering>
<clus scale="   61.011">  2  9  1 -1</clus>
<clus scale="   79.603">  5  6 -1 -1</clus>
<clus scale="   91.390">  7  8 -1 -1</clus>
<clus scale="  112.753">  2  5  1 -1</clus>
<clus scale="   61.011">  2  5  1 -1</clus>
</clustering>
</event>
<event>
 9    2  0.1654290E-004  0.1821631E+03  0.7546771E-02  0.1179780E+00
         21   -1    0    0  501  502  0.00000000000E+00  0.00000000000E+00  0.49631433742E+02  0.49631433742E+02  0.00000000000E+00 0. -1.
          2   -1    0    0  502    0 -0.00000000000E+00 -0.00000000000E+00 -0.20551432732E+04  0.20551432732E+04  0.00000000000E+00 0. -1.
         23    2    1    2    0    0 -0.72986083126E+02  0.58253866577E+02 -0.58338367996E+03  0.59819407016E+03  0.93697098310E+02 0.  0.
         24    2    1    2    0    0 -0.13617954135E+03 -0.79812246613E+02 -0.20191666635E+03  0.26838391969E+03  0.79653788386E+02 0.  0.
        -11    1    4    4    0    0 -0.11830972427E+03 -0.51612798372E+02 -0.19568582790E+03  0.23442272726E+03  0.00000000000E+00 0.  1.
         12    1    4    4    0    0 -0.17869817082E+02 -0.28199448241E+02 -0.62308384513E+01  0.33961192433E+02  0.00000000000E+00 0. -1.
        -13    1    3    3    0    0 -0.26222647234E+02 -0.25362696506E+02 -0.16092301741E+03  0.16500639726E+03  0.00000000000E+00 0.  1.
         13    1    3    3    0    0 -0.46763435891E+02  0.83616563082E+02 -0.42246066254E+03  0.43318767290E+03  0.00000000000E+00 0. -1.
          1    1    1    2  501    0  0.20916562448E+03  0.21558380036E+02 -0.12202114931E+04  0.12381967171E+04  0.00000000000E+00 0. -1.
<scales pt_clust_5="13000.00000" pt_clust_6="13000.00000" pt_clust_7="13000.00000" pt_clust_8="13000.00000" pt_clust_9="163.82515"></scales>
<clustering>
<clus scale="   79.654">  5  6 -1 -1</clus>
<clus scale="   93.697">  7  8 -1 -1</clus>
<clus scale="  132.286">  2  7  1 -1</clus>
<clus scale="  163.825">  1  9  2 -1</clus>
<clus scale="  163.825">  1  5  2 -1</clus>
</clustering>
</event>
<event>
 9    2  0.1654290E-004  0.1375818E+03  0.7546771E-02  0.1220188E+00
         21   -1    0    0  501  502  0.00000000000E+00  0.00000000000E+00  0.96537568712E+02  0.96537568712E+02  0.00000000000E+00 0.  1.
          2   -1    0    0  502    0 -0.00000000000E+00 -0.00000000000E+00 -0.42956521576E+03  0.42956521576E+03  0.00000000000E+00 0. -1.
         23    2    1    2    0    0 -0.84337355294E+02 -0.10668598420E+03 -0.19497557196E+03  0.25498300230E+03  0.92228895033E+02 0.  0.
         24    2    1    2    0    0  0.88165193239E+02 -0.84300584031E+01 -0.56616893111E+02  0.13005935373E+03  0.76588482973E+02 0.  0.
        -13    1    4    4    0    0  0.69599520729E+02 -0.10172316238E+02  0.11752355721E+00  0.70339058247E+02  0.00000000000E+00 0.  1.
         14    1    4    4    0    0  0.18565672510E+02  0.17422578345E+01 -0.56734416668E+02  0.59720295484E+02  0.00000000000E+00 0. -1.
        -11    1    3    3    0    0 -0.23589048659E+02 -0.97888957542E+02 -0.10009155731E+03  0.14197538896E+03  0.00000000000E+00 0. -1.
         11    1    3    3    0    0 -0.60748306635E+02 -0.87970266551E+01 -0.94884014655E+02  0.11300761335E+03  0.00000000000E+00 0.  1.
          1    1    1    2  501    0 -0.38278379449E+01  0.11511604260E+03 -0.81435181974E+02  0.14106042844E+03  0.00000000000E+00 0. -1.
<scales pt_clust_5="13000.00000" pt_clust_6="13000.00000" pt_clust_7="13000.00000" pt_clust_8="13000.00000" pt_clust_9="115.17967"></scales>
<clustering>
<clus scale="   76.588">  5  6 -1 -1</clus>
<clus scale="   92.229">  7  8 -1 -1</clus>
<clus scale="  115.180">  1  9  2 -1</clus>
<clus scale="  127.626">  1  5  2 -1</clus>
<clus scale="  115.180">  1  5  2 -1</clus>
</clustering>
</event>
<event>
 9    2  0.1654290E-004  0.1109245E+03  0.7546771E-02  0.1263464E+00
         21   -1    0    0  501  502  0.00000000000E+00  0.00000000000E+00  0.74669441935E+03  0.74669441935E+03  0.00000000000E+00 0. -1.
          4   -1    0    0  502    0 -0.00000000000E+00 -0.00000000000E+00 -0.43518631876E+02  0.43518631876E+02  0.00000000000E+00 0. -1.
         24    2    1    2    0    0 -0.51915230324E+02 -0.14654083052E+02  0.49434465079E+02  0.10910661008E+03  0.80935485016E+02 0.  0.
         23    2    1    2    0    0  0.95357637833E+02  0.52708134576E+01  0.35568663211E+03  0.37975633426E+03  0.92633863064E+02 0.  0.
        -13    1    3    3    0    0 -0.85601541302E+01 -0.30235729725E+02  0.54344341854E+02  0.62775656765E+02  0.00000000000E+00 0.  1.
         14    1    3    3    0    0 -0.43355076194E+02  0.15581646672E+02 -0.49098767743E+01  0.46330953311E+02  0.00000000000E+00 0. -1.
        -13    1    4    4    0    0  0.54015743535E+02  0.48122175411E+02  0.21973424710E+03  0.23133651607E+03  0.00000000000E+00 0.  1.
         13    1    4    4    0    0  0.41341894297E+02 -0.42851361953E+02  0.13595238500E+03  0.14841981820E+03  0.00000000000E+00 0. -1.
          3    1    1    2  501    0 -0.43442407509E+02  0.93832695946E+01  0.29805469028E+03  0.30135010688E+03  0.00000000000E+00 0. -1.
<scales pt_clust_5="13000.00000" pt_clust_6="13000.00000" pt_clust_7="13000.00000" pt_clust_8="13000.00000" pt_clust_9="44.44422"></scales>
<clustering>
<clus scale="   44.444">  1  9  2 -1</clus>
<clus scale="   80.935">  5  6 -1 -1</clus>
<clus scale="   92.634">  7  8 -1 -1</clus>
<clus scale="  101.360">  2  5  1 -1</clus>
<clus scale="   44.444">  1  5  2 -1</clus>
</clustering>
</event>
<event>
 9    2  0.1654290E-004  0.1577540E+03  0.7546771E-02  0.1222325E+00
          2   -1    0    0  502    0 -0.00000000000E+00  0.00000000000E+00  0.59958614904E+03  0.59958614904E+03  0.00000000000E+00 0. -1.
         21   -1    0    0  501  502  0.00000000000E+00 -0.00000000000E+00 -0.13029512330E+03  0.13029512330E+03  0.00000000000E+00 0. -1.
         24    2    1    2    0    0  0.23174687318E+02 -0.23711146705E+02  0.36539621483E+03  0.37425648420E+03  0.73852809965E+02 0.  0.
         23    2    1    2    0    0  0.10355452842E+03  0.55194083454E+02  0.15491058731E+03  0.21543178236E+03  0.92971154582E+02 0.  0.
        -11    1    3    3    0    0 -0.16303763477E+02 -0.19599510079E+02  0.47656056901E+02  0.54046769175E+02  0.00000000000E+00 0.  1.
         12    1    3    3    0    0  0.39478450795E+02 -0.41116366257E+01  0.31774015793E+03  0.32020971502E+03  0.00000000000E+00 0. -1.
        -13    1    4    4    0    0  0.85139317626E+02 -0.27648349012E+00  0.60694831472E+02  0.10455927705E+03  0.00000000000E+00 0. -1.
         13    1    4    4    0    0  0.18415210794E+02  0.55470566944E+02  0.94215755843E+02  0.11087250531E+03  0.00000000000E+00 0.  1.
          1    1    1    2  501    0 -0.12672921574E+03 -0.31482936749E+02 -0.51015776412E+02  0.14019300578E+03  0.00000000000E+00 0. -1.
<scales pt_clust_5="13000.00000" pt_clust_6="13000.00000" pt_clust_7="13000.00000" pt_clust_8="13000.00000" pt_clust_9="127.44685"></scales>
<clustering>
<clus scale="   73.853">  5  6 -1 -1</clus>
<clus scale="   80.954">  1  5  2 -1</clus>
<clus scale="   92.971">  7  8 -1 -1</clus>
<clus scale="  127.447">  2  9  1 -1</clus>
<clus scale="  127.447">  2  5  1 -1</clus>
</clustering>
</event>
<event>
 9    2  0.1654290E-004  0.8511267E+02  0.7546771E-02  0.1321250E+00
         21   -1    0    0  501  502  0.00000000000E+00  0.00000000000E+00  0.37559454075E+03  0.37559454075E+03  0.00000000000E+00 0. -1.
         -1   -1    0    0    0  501 -0.00000000000E+00 -0.00000000000E+00 -0.32070046843E+02  0.32070046843E+02  0.00000000000E+00 0.  1.
         23    2    1    2    0    0 -0.32436678452E+01  0.19250898110E+02  0.65455820011E+02  0.99050994744E+02  0.71732257229E+02 0.  0.
         24    2    1    2    0    0  0.24059772253E+02 -0.30968116094E+02  0.12708767069E+03  0.15575461624E+03  0.81057557229E+02 0.  0.
        -11    1    4    4    0    0  0.44984300932E+02 -0.41842039006E+01  0.33667231608E+02  0.56343388048E+02  0.00000000000E+00 0.  1.
         12    1    4    4    0    0 -0.20924528679E+02 -0.26783912193E+02  0.93420439078E+02  0.99411228190E+02  0.00000000000E+00 0. -1.
        -11    1    3    3    0    0  0.26408227010E+02  0.94281461031E+01  0.17453179754E+01  0.28095026741E+02  0.00000000000E+00 0.  1.
         11    1    3    3    0    0 -0.29651894855E+02  0.98227520074E+01  0.63710502036E+02  0.70955968002E+02  0.00000000000E+00 0. -1.
         -2    1    1    2    0  502 -0.20816104408E+02  0.11717217983E+02  0.15098100321E+03  0.15285897661E+03  0.00000000000E+00 0.  1.
<scales pt_clust_5="13000.00000" pt_clust_6="13000.00000" pt_clust_7="13000.00000" pt_clust_8="13000.00000" pt_clust_9="23.88731"></scales>
<clustering>
<clus scale="   23.887">  1  9  2 -1</clus>
<clus scale="   71.732">  7  8 -1 -1</clus>
<clus scale="   76.285">  2  7  1 -1</clus>
<clus scale="   81.058">  5  6 -1 -1</clus>
<clus scale="   23.887">  1  5  2 -1</clus>
</clustering>
</event>
<event>
 9    2  0.1654290E-004  0.9532333E+02  0.7546771E-02  0.1296097E+00
          2   -1    0    0  502    0 -0.00000000000E+00  0.00000000000E+00  0.43665136399E+03  0.43665136399E+03  0.00000000000E+00 0. -1.
         21   -1    0    0  501  502  0.00000000000E+00 -0.00000000000E+00 -0.10965631828E+03  0.10965631828E+03  0.00000000000E+00 0. -1.
         23    2    1    2    0    0 -0.42673749988E+02  0.41418390956E+01  0.31210794337E+03  0.32777593546E+03  0.90484759940E+02 0.  0.
         24    2    1    2    0    0 -0.84464354454E+01  0.43360023077E+02  0.81022032276E+02  0.12238847233E+03  0.80392378826E+02 0.  0.
        -11    1    4    4    0    0  0.10644747657E+01 -0.22718035640E+02  0.33304980542E+02  0.40329443076E+02  0.00000000000E+00 0.  1.
         12    1    4    4    0    0 -0.95109102111E+01  0.66078058717E+02  0.47717051733E+02  0.82059029259E+02  0.00000000000E+00 0. -1.
        -13    1    3    3    0    0  0.20697802559E+02  0.12234584553E+01  0.19821589953E+02  0.28684339100E+02  0.00000000000E+00 0.  1.
         13    1    3    3    0    0 -0.63371552547E+02  0.29183806403E+01  0.29228635342E+03  0.29909159636E+03  0.00000000000E+00 0. -1.
          1    1    1    2  501    0  0.51120185433E+02 -0.47501862173E+02 -0.66134929936E+02  0.96143274472E+02  0.00000000000E+00 0. -1.
<scales pt_clust_5="13000.00000" pt_clust_6="13000.00000" pt_clust_7="13000.00000" pt_clust_8="13000.00000" pt_clust_9="69.78324"></scales>
<clustering>
<clus scale="   69.783">  2  9  1 -1</clus>
<clus scale="   80.392">  5  6 -1 -1</clus>
<clus scale="   85.802">  2  5  1 -1</clus>
<clus scale="   90.485">  7  8 -1 -1</clus>
<clus scale="   69.783">  2  5  1 -1</clus>
</clustering>
</event>
<event>
 9    2  0.1654290E-004  0.1348425E+03  0.7546771E-02  0.1223935E+00
         -1   -1    0    0    0  501 -0.00000000000E+00  0.00000000000E+00  0.84889002982E+03  0.84889002982E+03  0.00000000000E+00 0.  1.
         21   -1    0    0  501  502  0.00000000000E+00 -0.00000000000E+00 -0.39458982781E+02  0.39458982781E+02  0.00000000000E+00 0.  1.
         24    2    1    2    0    0  0.57692599589E+02 -0.45226934369E+02  0.21614340159E+03  0.24025918627E+03  0.75050615554E+02 0.  0.
         23    2    1    2    0    0 -0.52342932863E+02  0.12759116304E+03  0.48320822755E+03  0.51050362301E+03  0.90024832290E+02 0.  0.
        -11    1    3    3    0    0  0.46478760579E+02 -0.62904566345E+01  0.17984072008E+03  0.18585620686E+03  0.00000000000E+00 0.  1.
         12    1    3    3    0    0  0.11213839010E+02 -0.38936477735E+02  0.36302681518E+02  0.54402979414E+02  0.00000000000E+00 0. -1.
        -11    1    4    4    0    0 -0.21892710325E+02  0.12937693048E+03  0.42489139642E+03  0.44469133076E+03  0.00000000000E+00 0.  1.
         11    1    4    4    0    0 -0.30450222538E+02 -0.17857674325E+01  0.58316831131E+02  0.65812292249E+02  0.00000000000E+00 0. -1.
         -2    1    1    2    0  502 -0.53496667264E+01 -0.82364228676E+02  0.11007941789E+03  0.13758620332E+03  0.00000000000E+00 0.  1.
<scales pt_clust_5="13000.00000" pt_clust_6="13000.00000" pt_clust_7="13000.00000" pt_clust_8="13000.00000" pt_clust_9="82.53778"></scales>
<clustering>
<clus scale="   75.051">  5  6 -1 -1</clus>
<clus scale="   82.538">  2  9  1 -1</clus>
<clus scale="   90.025">  7  8 -1 -1</clus>
<clus scale="  125.342">  1  5  2 -1</clus>
<clus scale="   82.538">  2  5  1 -1</clus>
</clustering>
</event>
<event>
 9    2  0.1654290E-004  0.1319491E+03  0.7546771E-02  0.1227720E+00
         21   -1    0    0  501  502  0.00000000000E+00  0.00000000000E+00  0.22817642598E+03  0.22817642598E+03  0.00000000000E+00 0.  1.
         -1   -1    0    0    0  501 -0.00000000000E+00 -0.00000000000E+00 -0.40268515622E+03  0.40268515622E+03  0.00000000000E+00 0.  1.
         24    2    1    2    0    0  0.10217024221E+03  0.22335021837E+02 -0.25202121429E+03  0.28411633041E+03  0.79181974975E+02 0.  0.
         23    2    1    2    0    0 -0.68981876119E+02  0.10430434330E+03 -0.51101687475E+02  0.16322249690E+03  0.91609528795E+02 0.  0.
        -13    1    3    3    0    0 -0.22496585542E+01  0.21275015286E+02 -0.80618024657E+02  0.83408351732E+02  0.00000000000E+00 0.  1.
         14    1    3    3    0    0  0.10441990076E+03  0.10600065502E+01 -0.17140318963E+03  0.20070797868E+03  0.00000000000E+00 0. -1.
        -13    1    4    4    0    0 -0.26277851050E+02  0.47917184347E+02 -0.71138325209E+02  0.89706428561E+02  0.00000000000E+00 0. -1.
         13    1    4    4    0    0 -0.42704025069E+02  0.56387158955E+02  0.20036637733E+02  0.73516068337E+02  0.00000000000E+00 0.  1.
         -2    1    1    2    0  502 -0.33188366090E+02 -0.12663936514E+03  0.12861417152E+03  0.18352275489E+03  0.00000000000E+00 0.  1.
<scales pt_clust_5="13000.00000" pt_clust_6="13000.00000" pt_clust_7="13000.00000" pt_clust_8="13000.00000" pt_clust_9="130.91599"></scales>
<clustering>
<clus scale="   79.182">  5  6 -1 -1</clus>
<clus scale="   91.610">  7  8 -1 -1</clus>
<clus scale="  130.916">  1  9  2 -1</clus>
<clus scale="  123.645">  2  5  1 -1</clus>
<clus scale="  130.916">  1  5  2 -1</clus>
</clustering>
</event>
<event>
 9    2  0.1654290E-004  0.2146134E+03  0.7546771E-02  0.1140485E+00
         21   -1    0    0  501  502  0.00000000000E+00  0.00000000000E+00  0.76833656497E+02  0.76833656497E+02  0.00000000000E+00 0. -1.
          2   -1    0    0  502    0 -0.00000000000E+00 -0.00000000000E+00 -0.12670261750E+04  0.12670261750E+04  0.00000000000E+00 0. -1.
         24    2    1    2    0    0  0.11129161007E+03  0.16437784885E+03 -0.84445028287E+03  0.87124504395E+03  0.81029295357E+02 0.  0.
         23    2    1    2    0    0  0.34245390697E+01 -0.17266678099E+03 -0.25148489435E+03  0.32391055879E+03  0.10884784465E+03 0.  0.
        -11    1    3    3    0    0  0.76453217027E+02  0.58696218160E+02 -0.50199203685E+03  0.51116176058E+03  0.00000000000E+00 0.  1.
         12    1    3    3    0    0  0.34838393041E+02  0.10568163069E+03 -0.34245824602E+03  0.36008328337E+03  0.00000000000E+00 0. -1.
        -13    1    4    4    0    0  0.23724660853E+02 -0.98798154640E+02 -0.21758087032E+03  0.24013614892E+03  0.00000000000E+00 0.  1.
         13    1    4    4    0    0 -0.20300121783E+02 -0.73868626346E+02 -0.33904024036E+02  0.83774409867E+02  0.00000000000E+00 0. -1.
          1    1    1    2  501    0 -0.11471614914E+03  0.82889321333E+01 -0.94257341324E+02  0.14870422880E+03  0.00000000000E+00 0. -1.
<scales pt_clust_5="13000.00000" pt_clust_6="13000.00000" pt_clust_7="13000.00000" pt_clust_8="13000.00000" pt_clust_9="115.01522"></scales>
<clustering>
<clus scale="   81.029">  5  6 -1 -1</clus>
<clus scale="  108.848">  7  8 -1 -1</clus>
<clus scale="  115.015">  1  9  2 -1</clus>
<clus scale="  201.933">  2  5  1 -1</clus>
<clus scale="  115.015">  1  5  2 -1</clus>
</clustering>
</event>
<event>
 9    2  0.1654290E-004  0.9074878E+02  0.7546771E-02  0.1307111E+00
          2   -1    0    0  502    0 -0.00000000000E+00  0.00000000000E+00  0.32658552207E+03  0.32658552207E+03  0.00000000000E+00 0. -1.
         21   -1    0    0  501  502  0.00000000000E+00 -0.00000000000E+00 -0.42676825786E+02  0.42676825786E+02  0.00000000000E+00 0. -1.
         24    2    1    2    0    0  0.15875465792E+02  0.16931868628E+02  0.20037271353E+03  0.21696912895E+03  0.79922837799E+02 0.  0.
         23    2    1    2    0    0  0.62915338409E+00  0.15315024803E+02  0.63650562238E+02  0.11096895800E+03  0.89597822231E+02 0.  0.
        -11    1    3    3    0    0  0.24722708822E+02 -0.21949029320E+02  0.40920208608E+02  0.52606422537E+02  0.00000000000E+00 0.  1.
         12    1    3    3    0    0 -0.88472430308E+01  0.38880897948E+02  0.15945250492E+03  0.16436270641E+03  0.00000000000E+00 0. -1.
        -13    1    4    4    0    0  0.14339448512E+02 -0.20327440941E+02  0.68119807329E+02  0.72519878581E+02  0.00000000000E+00 0.  1.
         13    1    4    4    0    0 -0.13710295128E+02  0.35642465744E+02 -0.44692450914E+01  0.38449079423E+02  0.00000000000E+00 0. -1.
          1    1    1    2  501    0 -0.16504619176E+02 -0.32246893431E+02  0.19885420523E+02  0.41324260907E+02  0.00000000000E+00 0. -1.
<scales pt_clust_5="13000.00000" pt_clust_6="13000.00000" pt_clust_7="13000.00000" pt_clust_8="13000.00000" pt_clust_9="36.22519"></scales>
<clustering>
<clus scale="   36.225">  2  9  1 -1</clus>
<clus scale="   79.923">  5  6 -1 -1</clus>
<clus scale="   81.211">  1  5  2 -1</clus>
<clus scale="   89.598">  7  8 -1 -1</clus>
<clus scale="   36.225">  2  5  1 -1</clus>
</clustering>
</event>
<event>
 9    2  0.1654290E-004  0.9092170E+02  0.7546771E-02  0.1305433E+00
          2   -1    0    0  502    0 -0.00000000000E+00  0.00000000000E+00  0.75785083227E+03  0.75785083227E+03  0.00000000000E+00 0. -1.
         21   -1    0    0  501  502  0.00000000000E+00 -0.00000000000E+00 -0.23022038942E+02  0.23022038942E+02  0.00000000000E+00 0. -1.
         24    2    1    2    0    0  0.33600776899E+02 -0.12209399967E+02  0.21544150016E+03  0.23329413224E+03  0.82055045510E+02 0.  0.
         23    2    1    2    0    0  0.12371749469E+02 -0.14963271367E+02  0.16221127009E+03  0.18643259305E+03  0.89820130996E+02 0.  0.
        -13    1    3    3    0    0  0.38575390630E+02  0.20625845892E+02  0.59464254629E+02  0.73820619475E+02  0.00000000000E+00 0.  1.
         14    1    3    3    0    0 -0.49746137307E+01 -0.32835245860E+02  0.15597724553E+03  0.15947351277E+03  0.00000000000E+00 0. -1.
        -13    1    4    4    0    0 -0.32734595093E+01 -0.46635979724E+02  0.48514405374E+02  0.67374161744E+02  0.00000000000E+00 0. -1.
         13    1    4    4    0    0  0.15645208979E+02  0.31672708356E+02  0.11369686472E+03  0.11905843131E+03  0.00000000000E+00 0.  1.
          1    1    1    2  501    0 -0.45972526369E+02  0.27172671335E+02  0.35717602307E+03  0.36114614591E+03  0.00000000000E+00 0. -1.
<scales pt_clust_5="13000.00000" pt_clust_6="13000.00000" pt_clust_7="13000.00000" pt_clust_8="13000.00000" pt_clust_9="53.40253"></scales>
<clustering>
<clus scale="   53.403">  2  9  1 -1</clus>
<clus scale="   82.055">  5  6 -1 -1</clus>
<clus scale="   83.259">  1  5  2 -1</clus>
<clus scale="   89.820">  7  8 -1 -1</clus>
<clus scale="   53.403">  2  5  1 -1</clus>
</clustering>
</event>
<event>
 9    2  0.1654290E-004  0.1050562E+03  0.7546771E-02  0.1275405E+00
          2   -1    0    0  502    0 -0.00000000000E+00  0.00000000000E+00  0.27061472105E+03  0.27061472105E+03  0.00000000000E+00 0. -1.
         21   -1    0    0  501  502  0.00000000000E+00 -0.00000000000E+00 -0.84396722395E+02  0.84396722395E+02  0.00000000000E+00 0.  1.
         23    2    1    2    0    0  0.44111665210E+02  0.37494350183E+02  0.17672908412E+03  0.20744397703E+03  0.91913922397E+02 0.  0.
         24    2    1    2    0    0  0.40344261272E+01 -0.49567891162E+02  0.21491196495E+02  0.96500145404E+02  0.79857085521E+02 0.  0.
        -13    1    4    4    0    0 -0.66726599015E+01 -0.49763983481E+02 -0.19702910895E+02  0.53936843992E+02  0.00000000000E+00 0.  1.
         14    1    4    4    0    0  0.10707086029E+02  0.19609231979E+00  0.41194107390E+02  0.42563301412E+02  0.00000000000E+00 0. -1.
        -11    1    3    3    0    0 -0.25823703217E+02  0.26434435629E+02  0.73482736511E+02  0.82251781743E+02  0.00000000000E+00 0. -1.
         11    1    3    3    0    0  0.69935368427E+02  0.11059914555E+02  0.10324634761E+03  0.12519219529E+03  0.00000000000E+00 0.  1.
          1    1    1    2  501    0 -0.48146091337E+02  0.12073540978E+02 -0.12002281959E+02  0.51067321008E+02  0.00000000000E+00 0. -1.
<scales pt_clust_5="13000.00000" pt_clust_6="13000.00000" pt_clust_7="13000.00000" pt_clust_8="13000.00000" pt_clust_9="49.63685"></scales>
<clustering>
<clus scale="   49.637">  2  9  1 -1</clus>
<clus scale="   79.857">  5  6 -1 -1</clus>
<clus scale="   91.914">  7  8 -1 -1</clus>
<clus scale="   94.688">  2  5  1 -1</clus>
<clus scale="   49.637">  2  5  1 -1</clus>
</clustering>
</event>
<event>
 9    2  0.1654290E-004  0.9398089E+02  0.7546771E-02  0.1297363E+00
          2   -1    0    0  502    0 -0.00000000000E+00  0.00000000000E+00  0.25182728144E+03  0.25182728144E+03  0.00000000000E+00 0. -1.
         21   -1    0    0  501  502  0.00000000000E+00 -0.00000000000E+00 -0.10811574018E+03  0.10811574018E+03  0.00000000000E+00 0. -1.
         24    2    1    2    0    0  0.21891111136E+02  0.45156505794E+01  0.16954036819E+03  0.19071046245E+03  0.84421159639E+02 0.  0.
         23    2    1    2    0    0 -0.54981668553E+01 -0.58266194525E+02 -0.31323019076E+02  0.11276986579E+03  0.91163215410E+02 0.  0.
        -11    1    3    3    0    0 -0.15057061382E+02  0.25342935871E+02  0.20896185742E+02  0.36133503492E+02  0.00000000000E+00 0.  1.
         12    1    3    3    0    0  0.36948172518E+02 -0.20827285292E+02  0.14864418245E+03  0.15457695896E+03  0.00000000000E+00 0. -1.
        -11    1    4    4    0    0  0.33583327525E+02  0.20730182134E+01 -0.22181681743E+02  0.40300921789E+02  0.00000000000E+00 0.  1.
         11    1    4    4    0    0 -0.39081494380E+02 -0.60339212738E+02 -0.91413373331E+01  0.72468944004E+02  0.00000000000E+00 0. -1.
          1    1    1    2  501    0 -0.16392944281E+02  0.53750543946E+02  0.54941921454E+01  0.56462693382E+02  0.00000000000E+00 0. -1.
<scales pt_clust_5="13000.00000" pt_clust_6="13000.00000" pt_clust_7="13000.00000" pt_clust_8="13000.00000" pt_clust_9="56.19475"></scales>
<clustering>
<clus scale="   56.195">  2  9  1 -1</clus>
<clus scale="   84.421">  5  6 -1 -1</clus>
<clus scale="   87.456">  1  5  2 -1</clus>
<clus scale="   91.163">  7  8 -1 -1</clus>
<clus scale="   56.195">  2  5  1 -1</clus>
</clustering>
</event>
<event>
 9    2  0.1654290E-004  0.9706817E+02  0.7546771E-02  0.1294685E+00
         21   -1    0    0  501  502  0.00000000000E+00  0.00000000000E+00  0.16133480202E+03  0.16133480202E+03  0.00000000000E+00 0. -1.
         -1   -1    0    0    0  501 -0.00000000000E+00 -0.00000000000E+00 -0.18845702636E+03  0.18845702636E+03  0.00000000000E+00 0.  1.
         24    2    1    2    0    0  0.29633257123E+02  0.10321610719E+02 -0.13422445510E+03  0.15906168304E+03  0.79370958714E+02 0.  0.
         23    2    1    2    0    0 -0.19378465610E+01  0.77250548276E+01  0.17957071016E+02  0.95653453094E+02  0.93614608731E+02 0.  0.
        -13    1    3    3    0    0  0.96247012430E+01 -0.32573583952E+02 -0.81012529278E+02  0.87844767320E+02  0.00000000000E+00 0.  1.
         14    1    3    3    0    0  0.20008555880E+02  0.42895194670E+02 -0.53211925823E+02  0.71216915715E+02  0.00000000000E+00 0. -1.
        -13    1    4    4    0    0  0.13157036286E+02 -0.33135545867E+02 -0.17286343257E+02  0.39621833210E+02  0.00000000000E+00 0.  1.
         13    1    4    4    0    0 -0.15094882847E+02  0.40860600694E+02  0.35243414273E+02  0.56031619884E+02  0.00000000000E+00 0. -1.
         -2    1    1    2    0  502 -0.27695410562E+02 -0.18046665546E+02  0.89145159740E+02  0.95076692247E+02  0.00000000000E+00 0.  1.
<scales pt_clust_5="13000.00000" pt_clust_6="13000.00000" pt_clust_7="13000.00000" pt_clust_8="13000.00000" pt_clust_9="33.05628"></scales>
<clustering>
<clus scale="   33.056">  1  9  2 -1</clus>
<clus scale="   79.371">  5  6 -1 -1</clus>
<clus scale="   83.416">  2  5  1 -1</clus>
<clus scale="   93.615">  7  8 -1 -1</clus>
<clus scale="   33.056">  1  5  2 -1</clus>
</clustering>
</event>
<event>
 9    2  0.1654290E-004  0.1872849E+03  0.7546771E-02  0.1192430E+00
         21   -1    0    0  501  502  0.00000000000E+00  0.00000000000E+00  0.44945994456E+03  0.44945994456E+03  0.00000000000E+00 0.  1.
          2   -1    0    0  502    0 -0.00000000000E+00 -0.00000000000E+00 -0.20059202855E+03  0.20059202855E+03  0.00000000000E+00 0. -1.
         24    2    1    2    0    0 -0.67155681337E+01  0.56111426871E+02 -0.14734861388E+02  0.93045528443E+02  0.72434543846E+02 0.  0.
         23    2    1    2    0    0  0.16026660174E+03 -0.46539363144E+02  0.33660924891E+03  0.38671408075E+03  0.91600752409E+02 0.  0.
        -11    1    3    3    0    0 -0.35064689956E+02  0.44658481969E+02  0.44437315387E+01  0.56953131990E+02  0.00000000000E+00 0.  1.
         12    1    3    3    0    0  0.28349121822E+02  0.11452944902E+02 -0.19178592927E+02  0.36092396452E+02  0.00000000000E+00 0. -1.
        -11    1    4    4    0    0  0.59798858186E+02  0.17116767096E+02  0.63786128658E+02  0.89092970348E+02  0.00000000000E+00 0.  1.
         11    1    4    4    0    0  0.10046774356E+03 -0.63656130240E+02  0.27282312026E+03  0.29762111041E+03  0.00000000000E+00 0. -1.
          1    1    1    2  501    0 -0.15355103361E+03 -0.95720637272E+01 -0.73006471515E+02  0.17029236392E+03  0.00000000000E+00 0. -1.
<scales pt_clust_5="13000.00000" pt_clust_6="13000.00000" pt_clust_7="13000.00000" pt_clust_8="13000.00000" pt_clust_9="163.35532"></scales>
<clustering>
<clus scale="   72.435">  5  6 -1 -1</clus>
<clus scale="   91.601">  7  8 -1 -1</clus>
<clus scale="   91.871">  2  5  1 -1</clus>
<clus scale="  163.355">  1  9  2 -1</clus>
<clus scale="  163.355">  1  5  2 -1</clus>
</clustering>
</event>
<event>
 9    2  0.1654290E-004  0.4681704E+03  0.7546771E-02  0.1022438E+00
          2   -1    0    0  502    0 -0.00000000000E+00  0.00000000000E+00  0.49338215925E+03  0.49338215925E+03  0.00000000000E+00 0. -1.
         21   -1    0    0  501  502  0.00000000000E+00 -0.00000000000E+00 -0.37809371678E+03  0.37809371678E+03  0.00000000000E+00 0. -1.
         24    2    1    2    0    0  0.13808100275E+03  0.33285284281E+03  0.54030961483E+02  0.37318599507E+03  0.80567138642E+02 0.  0.
         23    2    1    2    0    0  0.15423591403E+02  0.29755980099E+02  0.37220890292E+02  0.10379453679E+03  0.90909876635E+02 0.  0.
        -11    1    3    3    0    0  0.78057190501E+02  0.90999051760E+02  0.22900136531E+02  0.12205805448E+03  0.00000000000E+00 0.  1.
         12    1    3    3    0    0  0.60023812251E+02  0.24185379105E+03  0.31130824952E+02  0.25112794059E+03  0.00000000000E+00 0. -1.
        -13    1    4    4    0    0  0.18418524372E+02 -0.17763923115E+02 -0.17694944508E+02  0.31111253039E+02  0.00000000000E+00 0.  1.
         13    1    4    4    0    0 -0.29949329690E+01  0.47519903214E+02  0.54915834801E+02  0.72683283751E+02  0.00000000000E+00 0. -1.
          1    1    1    2  501    0 -0.15350459415E+03 -0.36260882291E+03  0.24036590696E+02  0.39449534417E+03  0.00000000000E+00 0. -1.
<scales pt_clust_5="13000.00000" pt_clust_6="13000.00000" pt_clust_7="13000.00000" pt_clust_8="13000.00000" pt_clust_9="393.76239"></scales>
<clustering>
<clus scale="   80.567">  5  6 -1 -1</clus>
<clus scale="   90.910">  7  8 -1 -1</clus>
<clus scale="   93.579">  5  7 -1 -1</clus>
<clus scale="  393.762">  2  9  1 -1</clus>
<clus scale="  393.762">  2  5  1 -1</clus>
</clustering>
</event>
<event>
 9    2  0.1654290E-004  0.1200917E+03  0.7546771E-02  0.1246185E+00
          2   -1    0    0  502    0 -0.00000000000E+00  0.00000000000E+00  0.13686204243E+04  0.13686204243E+04  0.00000000000E+00 0. -1.
         21   -1    0    0  501  502  0.00000000000E+00 -0.00000000000E+00 -0.16398968228E+02  0.16398968228E+02  0.00000000000E+00 0.  1.
         24    2    1    2    0    0 -0.90283471284E+02  0.25619567125E+02  0.86746460956E+03  0.87617001770E+03  0.79822200357E+02 0.  0.
         23    2    1    2    0    0  0.47331022169E+02 -0.59819300018E+01  0.26264402351E+03  0.28177085136E+03  0.90204880393E+02 0.  0.
        -11    1    3    3    0    0 -0.93823748120E+02  0.26983082880E+01  0.55816655666E+03  0.56600360560E+03  0.00000000000E+00 0.  1.
         12    1    3    3    0    0  0.35402768358E+01  0.22921258837E+02  0.30929805291E+03  0.31016641210E+03  0.00000000000E+00 0. -1.
        -13    1    4    4    0    0  0.65595202372E+01 -0.44714812643E+02  0.13253470018E+03  0.14002817048E+03  0.00000000000E+00 0.  1.
         13    1    4    4    0    0  0.40771501932E+02  0.38732882641E+02  0.13010932332E+03  0.14174268088E+03  0.00000000000E+00 0. -1.
          1    1    1    2  501    0  0.42952449115E+02 -0.19637637123E+02  0.22211282296E+03  0.22707852343E+03  0.00000000000E+00 0. -1.
<scales pt_clust_5="13000.00000" pt_clust_6="13000.00000" pt_clust_7="13000.00000" pt_clust_8="13000.00000" pt_clust_9="47.22872"></scales>
<clustering>
<clus scale="   47.229">  2  9  1 -1</clus>
<clus scale="   79.822">  5  6 -1 -1</clus>
<clus scale="   90.205">  7  8 -1 -1</clus>
<clus scale="  112.502">  1  5  2 -1</clus>
<clus scale="   47.229">  2  5  1 -1</clus>
</clustering>
</event>
<event>
 9    2  0.1654290E-004  0.1057639E+03  0.7546771E-02  0.1277273E+00
         -1   -1    0    0    0  501 -0.00000000000E+00  0.00000000000E+00  0.30839136607E+03  0.30839136607E+03  0.00000000000E+00 0.  1.
         21   -1    0    0  501  502  0.00000000000E+00 -0.00000000000E+00 -0.25168270072E+03  0.25168270072E+03  0.00000000000E+00 0.  1.
         24    2    1    2    0    0  0.46068317394E+02 -0.15849883458E+02  0.24833607585E+03  0.26552003774E+03  0.80352817023E+02 0.  0.
         23    2    1    2    0    0  0.23072961277E+02 -0.28510581366E+02 -0.23371430549E+02  0.10731503192E+03  0.98107479423E+02 0.  0.
        -11    1    3    3    0    0  0.17120070979E+02  0.28883565559E+02  0.14962752685E+03  0.15334847238E+03  0.00000000000E+00 0.  1.
         12    1    3    3    0    0  0.28948246415E+02 -0.44733449017E+02  0.98708548998E+02  0.11217156537E+03  0.00000000000E+00 0. -1.
        -11    1    4    4    0    0  0.14078990142E+01 -0.38772008981E+02  0.29844824418E+02  0.48948589404E+02  0.00000000000E+00 0.  1.
         11    1    4    4    0    0  0.21665062263E+02  0.10261427615E+02 -0.53216254967E+02  0.58366442519E+02  0.00000000000E+00 0. -1.
         -2    1    1    2    0  502 -0.69141278671E+02  0.44360464823E+02 -0.16825597995E+03  0.18723899712E+03  0.00000000000E+00 0.  1.
<scales pt_clust_5="13000.00000" pt_clust_6="13000.00000" pt_clust_7="13000.00000" pt_clust_8="13000.00000" pt_clust_9="82.14845"></scales>
<clustering>
<clus scale="   80.353">  5  6 -1 -1</clus>
<clus scale="   82.148">  2  9  1 -1</clus>
<clus scale="   89.540">  1  5  2 -1</clus>
<clus scale="   98.107">  7  8 -1 -1</clus>
<clus scale="   82.148">  2  5  1 -1</clus>
</clustering>
</event>
<event>
 9    2  0.1654290E-004  0.9777521E+02  0.7546771E-02  0.1292118E+00
         21   -1    0    0  501  502  0.00000000000E+00  0.00000000000E+00  0.13445956720E+03  0.13445956720E+03  0.00000000000E+00 0. -1.
          2   -1    0    0  502    0 -0.00000000000E+00 -0.00000000000E+00 -0.23782626291E+03  0.23782626291E+03  0.00000000000E+00 0. -1.
         23    2    1    2    0    0  0.69029765392E+01  0.86839579900E+01 -0.55461652625E+02  0.10102131466E+03  0.83703338600E+02 0.  0.
         24    2    1    2    0    0  0.60631512342E+02 -0.52996373854E+02  0.57938321869E+02  0.13812055090E+03  0.96102245083E+02 0.  0.
        -13    1    4    4    0    0  0.75965158601E+02 -0.91989616614E+01  0.48997670571E+02  0.90863072468E+02  0.00000000000E+00 0.  1.
         14    1    4    4    0    0 -0.15333646259E+02 -0.43797412192E+02  0.89406512982E+01  0.47257478435E+02  0.00000000000E+00 0. -1.
        -11    1    3    3    0    0 -0.37575876972E+02 -0.12268116052E+01 -0.16463715849E+02  0.41042728180E+02  0.00000000000E+00 0.  1.
         11    1    3    3    0    0  0.44478853511E+02  0.99107695952E+01 -0.38997936776E+02  0.59978586482E+02  0.00000000000E+00 0. -1.
          1    1    1    2  501    0 -0.67534488881E+02  0.44312415864E+02 -0.10584336495E+03  0.13314396454E+03  0.00000000000E+00 0. -1.
<scales pt_clust_5="13000.00000" pt_clust_6="13000.00000" pt_clust_7="13000.00000" pt_clust_8="13000.00000" pt_clust_9="80.77440"></scales>
<clustering>
<clus scale="   80.774">  1  9  2 -1</clus>
<clus scale="   83.703">  7  8 -1 -1</clus>
<clus scale="   85.619">  2  7  1 -1</clus>
<clus scale="   96.102">  5  6 -1 -1</clus>
<clus scale="   80.774">  1  5  2 -1</clus>
</clustering>
</event>
<event>
 9    2  0.1654290E-004  0.1335290E+03  0.7546771E-02  0.1223706E+00
         21   -1    0    0  501  502  0.00000000000E+00  0.00000000000E+00  0.14117631282E+03  0.14117631282E+03  0.00000000000E+00 0.  1.
          2   -1    0    0  502    0 -0.00000000000E+00 -0.00000000000E+00 -0.56740638695E+03  0.56740638695E+03  0.00000000000E+00 0. -1.
         24    2    1    2    0    0  0.15502335800E+02 -0.13246852371E+03 -0.55280515704E+02  0.16711565365E+03  0.84163377360E+02 0.  0.
         23    2    1    2    0    0  0.63982991869E+01  0.49263919597E+02  0.48250651072E+02  0.11352842950E+03  0.89959474034E+02 0.  0.
        -11    1    3    3    0    0 -0.30887051406E+02 -0.77177985519E+02 -0.15029311210E+02  0.84476810953E+02  0.00000000000E+00 0.  1.
         12    1    3    3    0    0  0.46389387206E+02 -0.55290538189E+02 -0.40251204494E+02  0.82638842694E+02  0.00000000000E+00 0. -1.
        -13    1    4    4    0    0  0.24485142809E+02 -0.16139661342E+02  0.32675427532E+02  0.43905517318E+02  0.00000000000E+00 0.  1.
         13    1    4    4    0    0 -0.18086843622E+02  0.65403580939E+02  0.15575223541E+02  0.69622912178E+02  0.00000000000E+00 0. -1.
          1    1    1    2  501    0 -0.21900634987E+02  0.83204604111E+02 -0.41920020949E+03  0.42793861662E+03  0.00000000000E+00 0. -1.
<scales pt_clust_5="13000.00000" pt_clust_6="13000.00000" pt_clust_7="13000.00000" pt_clust_8="13000.00000" pt_clust_9="86.03866"></scales>
<clustering>
<clus scale="   84.163">  5  6 -1 -1</clus>
<clus scale="   86.039">  1  9  2 -1</clus>
<clus scale="   89.959">  7  8 -1 -1</clus>
<clus scale="  129.695">  2  5  1 -1</clus>
<clus scale="   86.039">  1  5  2 -1</clus>
</clustering>
</event>
<event>
 9    2  0.1654290E-004  0.9209862E+02  0.7546771E-02  0.1305351E+00
         21   -1    0    0  501  502  0.00000000000E+00  0.00000000000E+00  0.36554849563E+02  0.36554849563E+02  0.00000000000E+00 0.  1.
          2   -1    0    0  502    0 -0.00000000000E+00 -0.00000000000E+00 -0.74468303915E+03  0.74468303915E+03  0.00000000000E+00 0. -1.
         24    2    1    2    0    0 -0.22892372893E+00 -0.23681027646E+02 -0.40938349947E+03  0.41662345550E+03  0.73616645915E+02 0.  0.
         23    2    1    2    0    0 -0.26900773548E+02  0.89130903311E+02 -0.13073001525E+03  0.18227234353E+03  0.86399657333E+02 0.  0.
        -13    1    3    3    0    0 -0.33634647999E+02 -0.27466471307E+02 -0.21273267083E+03  0.21711951969E+03  0.00000000000E+00 0.  1.
         14    1    3    3    0    0  0.33405724270E+02  0.37854436612E+01 -0.19665082864E+03  0.19950393581E+03  0.00000000000E+00 0. -1.
        -13    1    4    4    0    0 -0.24071848149E+02 -0.69565804749E+01 -0.53087927955E+02  0.58704139376E+02  0.00000000000E+00 0.  1.
         13    1    4    4    0    0 -0.28289253989E+01  0.96087483786E+02 -0.77642087294E+02  0.12356820416E+03  0.00000000000E+00 0. -1.
          1    1    1    2  501    0  0.27129697277E+02 -0.65449875666E+02 -0.16801467487E+03  0.18234208969E+03  0.00000000000E+00 0. -1.
<scales pt_clust_5="13000.00000" pt_clust_6="13000.00000" pt_clust_7="13000.00000" pt_clust_8="13000.00000" pt_clust_9="70.84992"></scales>
<clustering>
<clus scale="   70.850">  1  9  2 -1</clus>
<clus scale="   73.617">  5  6 -1 -1</clus>
<clus scale="   80.229">  2  5  1 -1</clus>
<clus scale="   86.400">  7  8 -1 -1</clus>
<clus scale="   70.850">  1  5  2 -1</clus>
</clustering>
</event>
<event>
 9    2  0.1654290E-004  0.1697413E+03  0.7546771E-02  0.1179280E+00
         21   -1    0    0  501  502  0.00000000000E+00  0.00000000000E+00  0.62977220191E+02  0.62977220191E+02  0.00000000000E+00 0. -1.
          2   -1    0    0  502    0 -0.00000000000E+00 -0.00000000000E+00 -0.74620308269E+03  0.74620308269E+03  0.00000000000E+00 0. -1.
         23    2    1    2    0    0 -0.17488957183E+03  0.50888554754E+02 -0.43433138522E+03  0.47934214360E+03  0.89157899849E+02 0.  0.
         24    2    1    2    0    0  0.89413241852E+02 -0.46425977732E+02 -0.12787075298E+03  0.18160570864E+03  0.80495991926E+02 0.  0.
        -13    1    4    4    0    0  0.55359642982E+02 -0.56608889623E+02 -0.12220484388E+03  0.14561346202E+03  0.00000000000E+00 0.  1.
         14    1    4    4    0    0  0.34053598870E+02  0.10182911890E+02 -0.56659091029E+01  0.35992246617E+02  0.00000000000E+00 0. -1.
        -13    1    3    3    0    0 -0.79693582181E+02  0.13890927272E+02 -0.29927881590E+03  0.31001908739E+03  0.00000000000E+00 0. -1.
         13    1    3    3    0    0 -0.95195989645E+02  0.36997627482E+02 -0.13505256933E+03  0.16932305621E+03  0.00000000000E+00 0.  1.
          1    1    1    2  501    0  0.85476329974E+02 -0.44625770221E+01 -0.12102372430E+03  0.14823245064E+03  0.00000000000E+00 0. -1.
<scales pt_clust_5="13000.00000" pt_clust_6="13000.00000" pt_clust_7="13000.00000" pt_clust_8="13000.00000" pt_clust_9="85.59274"></scales>
<clustering>
<clus scale="   80.496">  5  6 -1 -1</clus>
<clus scale="   85.593">  1  9  2 -1</clus>
<clus scale="   89.158">  7  8 -1 -1</clus>
<clus scale="  165.356">  1  5  2 -1</clus>
<clus scale="   85.593">  1  5  2 -1</clus>
</clustering>
</event>
<event>
 9    2  0.1654290E-004  0.9718892E+02  0.7546771E-02  0.1300662E+00
         21   -1    0    0  501  502  0.00000000000E+00  0.00000000000E+00  0.94206093343E+02  0.94206093343E+02  0.00000000000E+00 0. -1.
          2   -1    0    0  502    0 -0.00000000000E+00 -0.00000000000E+00 -0.31707750353E+03  0.31707750353E+03  0.00000000000E+00 0. -1.
         24    2    1    2    0    0 -0.20349563855E+02  0.42948465513E+02 -0.24170259413E+03  0.25263789275E+03  0.56098889514E+02 0.  0.
         23    2    1    2    0    0  0.22811906053E+02 -0.66409426303E+02  0.49331746488E+02  0.12008712368E+03  0.84004173123E+02 0.  0.
        -13    1    3    3    0    0 -0.31253985220E+02  0.21174876149E+02 -0.20594092638E+03  0.20937252000E+03  0.00000000000E+00 0.  1.
         14    1    3    3    0    0  0.10904421365E+02  0.21773589364E+02 -0.35761667751E+02  0.43265372752E+02  0.00000000000E+00 0. -1.
        -11    1    4    4    0    0 -0.35878178126E+01 -0.68916917686E+02  0.60055220797E+02  0.91482476600E+02  0.00000000000E+00 0. -1.
         11    1    4    4    0    0  0.26399723866E+02  0.25074913826E+01 -0.10723474309E+02  0.28604647078E+02  0.00000000000E+00 0.  1.
          1    1    1    2  501    0 -0.24623421980E+01  0.23460960790E+02 -0.30500562547E+02  0.38558580445E+02  0.00000000000E+00 0. -1.
<scales pt_clust_5="13000.00000" pt_clust_6="13000.00000" pt_clust_7="13000.00000" pt_clust_8="13000.00000" pt_clust_9="23.58984"></scales>
<clustering>
<clus scale="   23.590">  1  9  2 -1</clus>
<clus scale="   56.099">  5  6 -1 -1</clus>
<clus scale="   74.405">  2  5  1 -1</clus>
<clus scale="   84.004">  7  8 -1 -1</clus>
<clus scale="   23.590">  1  5  2 -1</clus>
</clustering>
</event>
<event>
 9    2  0.1654290E-004  0.2449618E+03  0.7546771E-02  0.1143187E+00
          2   -1    0    0  502    0 -0.00000000000E+00  0.00000000000E+00  0.37704036022E+03  0.37704036022E+03  0.00000000000E+00 0. -1.
         21   -1    0    0  501  502  0.00000000000E+00 -0.00000000000E+00 -0.29850781330E+03  0.29850781330E+03  0.00000000000E+00 0. -1.
         24    2    1    2    0    0 -0.35669256539E+02  0.90215256019E+02  0.13353355942E+03  0.18445745045E+03  0.82354424632E+02 0.  0.
         23    2    1    2    0    0  0.63529528262E+02  0.17341084190E+03  0.43903695935E+02  0.20814716758E+03  0.85383767805E+02 0.  0.
        -11    1    3    3    0    0 -0.57842952765E+02  0.39405463691E+02  0.58828212919E+02  0.91429515959E+02  0.00000000000E+00 0.  1.
         12    1    3    3    0    0  0.22173696227E+02  0.50809792327E+02  0.74705346500E+02  0.93027934494E+02  0.00000000000E+00 0. -1.
        -11    1    4    4    0    0 -0.18404101902E+02  0.40309243126E+02  0.24541823160E+02  0.50654191655E+02  0.00000000000E+00 0. -1.
         11    1    4    4    0    0  0.81933630164E+02  0.13310159877E+03  0.19361872775E+02  0.15749297592E+03  0.00000000000E+00 0.  1.
          1    1    1    2  501    0 -0.27860271723E+02 -0.26362609792E+03 -0.98904708434E+02  0.28294355549E+03  0.00000000000E+00 0. -1.
<scales pt_clust_5="13000.00000" pt_clust_6="13000.00000" pt_clust_7="13000.00000" pt_clust_8="13000.00000" pt_clust_9="229.59943"></scales>
<clustering>
<clus scale="   82.354">  5  6 -1 -1</clus>
<clus scale="   85.384">  7  8 -1 -1</clus>
<clus scale="  127.253">  1  5  2 -1</clus>
<clus scale="  229.599">  2  9  1 -1</clus>
<clus scale="  229.599">  2  5  1 -1</clus>
</clustering>
</event>
<event>
 9    2  0.1654290E-004  0.9757340E+02  0.7546771E-02  0.1291561E+00
          2   -1    0    0  502    0 -0.00000000000E+00  0.00000000000E+00  0.51804147734E+03  0.51804147734E+03  0.00000000000E+00 0. -1.
         21   -1    0    0  501  502  0.00000000000E+00 -0.00000000000E+00 -0.39539727533E+02  0.39539727533E+02  0.00000000000E+00 0. -1.
         24    2    1    2    0    0  0.43333277513E+02 -0.75668198939E+01  0.33481779122E+03  0.34689221239E+03  0.79348749192E+02 0.  0.
         23    2    1    2    0    0 -0.50840938644E+01 -0.31178589785E+02  0.69206411562E+02  0.11843330522E+03  0.90768760665E+02 0.  0.
        -11    1    3    3    0    0 -0.19515895437E+02 -0.53482634357E+01  0.33958228346E+02  0.39530183011E+02  0.00000000000E+00 0.  1.
         12    1    3    3    0    0  0.62849172950E+02 -0.22185564582E+01  0.30085956287E+03  0.30736202938E+03  0.00000000000E+00 0. -1.
        -13    1    4    4    0    0 -0.83911416322E+01  0.18857339622E+02 -0.11342264862E+02  0.23551167438E+02  0.00000000000E+00 0.  1.
         13    1    4    4    0    0  0.33070477677E+01 -0.50035929407E+02  0.80548676424E+02  0.94882137782E+02  0.00000000000E+00 0. -1.
          1    1    1    2  501    0 -0.38249183648E+02  0.38745409679E+02  0.74477547025E+02  0.92255687260E+02  0.00000000000E+00 0. -1.
<scales pt_clust_5="13000.00000" pt_clust_6="13000.00000" pt_clust_7="13000.00000" pt_clust_8="13000.00000" pt_clust_9="54.44453"></scales>
<clustering>
<clus scale="   54.445">  2  9  1 -1</clus>
<clus scale="   79.349">  5  6 -1 -1</clus>
<clus scale="   87.051">  1  5  2 -1</clus>
<clus scale="   90.769">  7  8 -1 -1</clus>
<clus scale="   54.445">  2  5  1 -1</clus>
</clustering>
</event>
<event>
 9    2  0.1999423E-004  0.1820939E+03  0.7546771E-02  0.1194541E+00
         21   -1    0    0  501  502  0.00000000000E+00  0.00000000000E+00  0.97844227058E+02  0.97844227058E+02  0.00000000000E+00 0. -1.
          2   -1    0    0  502    0 -0.00000000000E+00 -0.00000000000E+00 -0.76297663225E+03  0.76297663225E+03  0.00000000000E+00 0. -1.
         24    2    1    2    0    0 -0.30504110317E+02  0.39596829661E+02 -0.33182698426E+03  0.34527595493E+03  0.81289162268E+02 0.  0.
         23    2    1    2    0    0 -0.12826873907E+02 -0.16721630935E+03 -0.43402622749E+02  0.19584514181E+03  0.91354852650E+02 0.  0.
        -13    1    3    3    0    0 -0.69062487499E+01  0.60721893850E+02 -0.17731346519E+03  0.18754975234E+03  0.00000000000E+00 0.  1.
         14    1    3    3    0    0 -0.23597861567E+02 -0.21125064190E+02 -0.15451351907E+03  0.15772620259E+03  0.00000000000E+00 0. -1.
        -11    1    4    4    0    0 -0.73480429081E+01 -0.52130084369E+02 -0.59570653521E+02  0.79499699320E+02  0.00000000000E+00 0.  1.
         11    1    4    4    0    0 -0.54788309993E+01 -0.11508622498E+03  0.16168030772E+02  0.11634544249E+03  0.00000000000E+00 0. -1.
          1    1    1    2  501    0  0.43330984224E+02  0.12761947969E+03 -0.28990279818E+03  0.31969976256E+03  0.00000000000E+00 0. -1.
<scales pt_clust_5="13000.00000" pt_clust_6="13000.00000" pt_clust_7="13000.00000" pt_clust_8="13000.00000" pt_clust_9="157.51984"></scales>
<clustering>
<clus scale="   81.289">  5  6 -1 -1</clus>
<clus scale="   91.355">  7  8 -1 -1</clus>
<clus scale="   95.427">  2  5  1 -1</clus>
<clus scale="  157.520">  1  9  2 -1</clus>
<clus scale="  157.520">  1  5  2 -1</clus>
</clustering>
</event>
<event>
 9    2  0.1654290E-004  0.9327992E+02  0.7546771E-02  0.1303383E+00
         21   -1    0    0  501  502  0.00000000000E+00  0.00000000000E+00  0.61940648268E+03  0.61940648268E+03  0.00000000000E+00 0.  1.
          2   -1    0    0  502    0 -0.00000000000E+00 -0.00000000000E+00 -0.89963643823E+02  0.89963643823E+02  0.00000000000E+00 0. -1.
         24    2    1    2    0    0  0.16412941173E+01  0.18060312903E+02 -0.54487382543E+02  0.96636889716E+02  0.77723515418E+02 0.  0.
         23    2    1    2    0    0 -0.65832961337E+02 -0.20917312441E+02  0.28822209043E+03  0.31012452689E+03  0.91289298422E+02 0.  0.
        -13    1    3    3    0    0  0.34541777189E+02 -0.10648616583E+02 -0.24620975805E+02  0.43734652806E+02  0.00000000000E+00 0.  1.
         14    1    3    3    0    0 -0.32900483071E+02  0.28708929487E+02 -0.29866406738E+02  0.52902236909E+02  0.00000000000E+00 0. -1.
        -11    1    4    4    0    0 -0.37359858855E+02 -0.54646568455E+02  0.21142624310E+03  0.22154697644E+03  0.00000000000E+00 0.  1.
         11    1    4    4    0    0 -0.28473102481E+02  0.33729256014E+02  0.76795847331E+02  0.88577550448E+02  0.00000000000E+00 0. -1.
          1    1    1    2  501    0  0.64191667219E+02  0.28569995373E+01  0.29570813097E+03  0.30260870990E+03  0.00000000000E+00 0. -1.
<scales pt_clust_5="13000.00000" pt_clust_6="13000.00000" pt_clust_7="13000.00000" pt_clust_8="13000.00000" pt_clust_9="64.25521"></scales>
<clustering>
<clus scale="   64.255">  1  9  2 -1</clus>
<clus scale="   77.724">  5  6 -1 -1</clus>
<clus scale="   80.052">  2  5  1 -1</clus>
<clus scale="   91.289">  7  8 -1 -1</clus>
<clus scale="   64.255">  1  5  2 -1</clus>
</clustering>
</event>
<event>
 9    2  0.1654290E-004  0.1526036E+03  0.7546771E-02  0.1199146E+00
         21   -1    0    0  501  502  0.00000000000E+00  0.00000000000E+00  0.40033682543E+02  0.40033682543E+02  0.00000000000E+00 0. -1.
         -1   -1    0    0    0  501 -0.00000000000E+00 -0.00000000000E+00 -0.11266533851E+04  0.11266533851E+04  0.00000000000E+00 0.  1.
         23    2    1    2    0    0  0.11298240175E+03  0.17165271383E+02 -0.56804597757E+03  0.58632830190E+03  0.89693786421E+02 0.  0.
         24    2    1    2    0    0 -0.13227633548E+03 -0.26012534459E+02 -0.53250612142E+03  0.55496897229E+03  0.79082930982E+02 0.  0.
        -11    1    4    4    0    0 -0.94721369941E+02  0.14039296014E+02 -0.40459621204E+03  0.41577317681E+03  0.00000000000E+00 0.  1.
         12    1    4    4    0    0 -0.37554965544E+02 -0.40051830473E+02 -0.12790990938E+03  0.13919579548E+03  0.00000000000E+00 0. -1.
        -13    1    3    3    0    0  0.69895597416E+02  0.54170966564E+02 -0.35314847711E+03  0.36405183016E+03  0.00000000000E+00 0.  1.
         13    1    3    3    0    0  0.43086804331E+02 -0.37005695182E+02 -0.21489750047E+03  0.22227647174E+03  0.00000000000E+00 0. -1.
         -2    1    1    2    0  502  0.19293933737E+02  0.88472630762E+01  0.13932396416E+02  0.25389793479E+02  0.00000000000E+00 0.  1.
<scales pt_clust_5="13000.00000" pt_clust_6="13000.00000" pt_clust_7="13000.00000" pt_clust_8="13000.00000" pt_clust_9="21.22569"></scales>
<clustering>
<clus scale="   21.226">  1  9  2 -1</clus>
<clus scale="   79.083">  5  6 -1 -1</clus>
<clus scale="   89.694">  7  8 -1 -1</clus>
<clus scale="  146.619">  1  5  2 -1</clus>
<clus scale="   21.226">  1  5  2 -1</clus>
</clustering>
</event>
<event>
 9    2  0.1654290E-004  0.9328929E+02  0.7546771E-02  0.1310988E+00
          2   -1    0    0  502    0 -0.00000000000E+00  0.00000000000E+00  0.18146874331E+03  0.18146874331E+03  0.00000000000E+00 0. -1.
         21   -1    0    0  501  502  0.00000000000E+00 -0.00000000000E+00 -0.85032788784E+02  0.85032788784E+02  0.00000000000E+00 0.  1.
         23    2    1    2    0    0 -0.15400584803E+02 -0.32578464723E+02  0.32918127449E+02  0.10441693139E+03  0.92307952369E+02 0.  0.
         24    2    1    2    0    0 -0.13705730446E+02 -0.89782321774E+01 -0.11803146951E+02  0.71269482065E+02  0.68348877795E+02 0.  0.
        -13    1    4    4    0    0 -0.46830203167E+01 -0.36401757863E+02  0.62353417128E+01  0.37227652908E+02  0.00000000000E+00 0.  1.
         14    1    4    4    0    0 -0.90227101292E+01  0.27423525685E+02 -0.18038488664E+02  0.34041829157E+02  0.00000000000E+00 0. -1.
        -13    1    3    3    0    0 -0.36117142786E+02 -0.10837244046E+02 -0.20659721410E+02  0.42996720227E+02  0.00000000000E+00 0.  1.
         13    1    3    3    0    0  0.20716557983E+02 -0.21741220677E+02  0.53577848859E+02  0.61420211165E+02  0.00000000000E+00 0. -1.
          1    1    1    2  501    0  0.29106315248E+02  0.41556696900E+02  0.75320974024E+02  0.90815118634E+02  0.00000000000E+00 0. -1.
<scales pt_clust_5="13000.00000" pt_clust_6="13000.00000" pt_clust_7="13000.00000" pt_clust_8="13000.00000" pt_clust_9="50.73598"></scales>
<clustering>
<clus scale="   50.736">  2  9  1 -1</clus>
<clus scale="   68.349">  5  6 -1 -1</clus>
<clus scale="   69.669">  2  5  1 -1</clus>
<clus scale="   92.308">  7  8 -1 -1</clus>
<clus scale="   50.736">  2  5  1 -1</clus>
</clustering>
</event>
<event>
 9    2  0.1654290E-004  0.1593241E+03  0.7546771E-02  0.1220261E+00
         21   -1    0    0  501  502  0.00000000000E+00  0.00000000000E+00  0.34569543012E+03  0.34569543012E+03  0.00000000000E+00 0.  1.
         -3   -1    0    0    0  501 -0.00000000000E+00 -0.00000000000E+00 -0.10766972378E+03  0.10766972378E+03  0.00000000000E+00 0.  1.
         24    2    1    2    0    0 -0.77676746624E+01 -0.14481893333E+02  0.10594270921E+03  0.13400451667E+03  0.80394594655E+02 0.  0.
         23    2    1    2    0    0  0.10797699873E+03  0.87981675231E+02  0.75287421724E+02  0.18272292664E+03  0.91212195557E+02 0.  0.
        -13    1    3    3    0    0  0.16557699045E+02 -0.41079359918E+02  0.44596042883E+02  0.62852830085E+02  0.00000000000E+00 0.  1.
         14    1    3    3    0    0 -0.24325373708E+02  0.26597466585E+02  0.61346666329E+02  0.71151686589E+02  0.00000000000E+00 0. -1.
        -13    1    4    4    0    0  0.56588805447E+02  0.97170632827E+02  0.38483665842E+02  0.11885039892E+03  0.00000000000E+00 0.  1.
         13    1    4    4    0    0  0.51388193285E+02 -0.91889575956E+01  0.36803755882E+02  0.63872527724E+02  0.00000000000E+00 0. -1.
         -4    1    1    2    0  502 -0.10020932407E+03 -0.73499781898E+02  0.56795575404E+02  0.13663771059E+03  0.00000000000E+00 0.  1.
<scales pt_clust_5="13000.00000" pt_clust_6="13000.00000" pt_clust_7="13000.00000" pt_clust_8="13000.00000" pt_clust_9="130.63117"></scales>
<clustering>
<clus scale="   80.395">  5  6 -1 -1</clus>
<clus scale="   82.057">  2  5  1 -1</clus>
<clus scale="   91.212">  7  8 -1 -1</clus>
<clus scale="  130.631">  1  9  2 -1</clus>
<clus scale="  130.631">  1  5  2 -1</clus>
</clustering>
</event>
<event>
 9    2  0.1654290E-004  0.4154912E+03  0.7546771E-02  0.1067245E+00
         21   -1    0    0  501  502  0.00000000000E+00  0.00000000000E+00  0.47747769388E+03  0.47747769388E+03  0.00000000000E+00 0.  1.
         -3   -1    0    0    0  501 -0.00000000000E+00 -0.00000000000E+00 -0.94145188609E+03  0.94145188609E+03  0.00000000000E+00 0.  1.
         24    2    1    2    0    0 -0.13846773835E+02 -0.16496896253E+03  0.73365087601E+02  0.19809723241E+03  0.80334212307E+02 0.  0.
         23    2    1    2    0    0  0.40772044325E+03  0.20221451635E+02  0.12517471615E+03  0.43660463560E+03  0.91159373166E+02 0.  0.
        -11    1    3    3    0    0  0.65028279481E+01 -0.61521336625E+02  0.68863886230E+02  0.92571034661E+02  0.00000000000E+00 0.  1.
         12    1    3    3    0    0 -0.20349601783E+02 -0.10344762591E+03  0.45012013704E+01  0.10552619775E+03  0.00000000000E+00 0. -1.
        -13    1    4    4    0    0  0.22339378346E+03  0.34291215722E+02  0.27944072368E+02  0.22773129154E+03  0.00000000000E+00 0.  1.
         13    1    4    4    0    0  0.18432665978E+03 -0.14069764086E+02  0.97230643783E+02  0.20887334406E+03  0.00000000000E+00 0. -1.
         -4    1    1    2    0  502 -0.39387366941E+03  0.14474751090E+03 -0.66251399596E+03  0.78422771196E+03  0.00000000000E+00 0.  1.
<scales pt_clust_5="13000.00000" pt_clust_6="13000.00000" pt_clust_7="13000.00000" pt_clust_8="13000.00000" pt_clust_9="405.36785"></scales>
<clustering>
<clus scale="   80.334">  5  6 -1 -1</clus>
<clus scale="   91.159">  7  8 -1 -1</clus>
<clus scale="  184.011">  2  5  1 -1</clus>
<clus scale="  405.368">  1  9  2 -1</clus>
<clus scale="  405.368">  1  5  2 -1</clus>
</clustering>
</event>
<event>
 9    2  0.1654290E-004  0.1958886E+03  0.7546771E-02  0.1173472E+00
          2   -1    0    0  502    0 -0.00000000000E+00  0.00000000000E+00  0.14153328484E+04  0.14153328484E+04  0.00000000000E+00 0. -1.
         21   -1    0    0  501  502  0.00000000000E+00 -0.00000000000E+00 -0.54580294427E+02  0.54580294427E+02  0.00000000000E+00 0. -1.
         23    2    1    2    0    0 -0.62702553192E+02 -0.51610479810E+02  0.22634157659E+03  0.25745610091E+03  0.91966748329E+02 0.  0.
         24    2    1    2    0    0 -0.47017598661E+02  0.18320874331E+03  0.31486107425E+03  0.37518847186E+03  0.76503562886E+02 0.  0.
        -11    1    4    4    0    0 -0.10732422093E+02  0.18684219906E+02  0.44484835657E+01  0.22001680925E+02  0.00000000000E+00 0.  1.
         12    1    4    4    0    0 -0.36285176568E+02  0.16452452340E+03  0.31041259068E+03  0.35318679094E+03  0.00000000000E+00 0. -1.
        -11    1    3    3    0    0  0.22356588089E+02  0.27488313664E+00  0.52944918444E+02  0.57472227909E+02  0.00000000000E+00 0.  1.
         11    1    3    3    0    0 -0.85059141281E+02 -0.51885362947E+02  0.17339665815E+03  0.19998387300E+03  0.00000000000E+00 0. -1.
          1    1    1    2  501    0  0.10972015185E+03 -0.13159826350E+03  0.81954990317E+03  0.83726857009E+03  0.00000000000E+00 0. -1.
<scales pt_clust_5="13000.00000" pt_clust_6="13000.00000" pt_clust_7="13000.00000" pt_clust_8="13000.00000" pt_clust_9="180.33189"></scales>
<clustering>
<clus scale="   76.504">  5  6 -1 -1</clus>
<clus scale="   91.967">  7  8 -1 -1</clus>
<clus scale="  122.691">  1  7  2 -1</clus>
<clus scale="  180.332">  2  9  1 -1</clus>
<clus scale="  180.332">  2  5  1 -1</clus>
</clustering>
</event>
<event>
 9    2  0.1654290E-004  0.1124299E+03  0.7546771E-02  0.1260916E+00
         21   -1    0    0  501  502  0.00000000000E+00  0.00000000000E+00  0.20935919397E+02  0.20935919397E+02  0.00000000000E+00 0.  1.
          2   -1    0    0  502    0 -0.00000000000E+00 -0.00000000000E+00 -0.86409883302E+03  0.86409883302E+03  0.00000000000E+00 0. -1.
         24    2    1    2    0    0  0.18573273111E+02 -0.61217989897E+02 -0.54073592592E+03  0.55039792872E+03  0.80311453713E+02 0.  0.
         23    2    1    2    0    0  0.66886272903E+01  0.65187556920E+02 -0.21047038572E+03  0.23919082995E+03  0.92845649091E+02 0.  0.
        -13    1    3    3    0    0  0.46313721729E+02 -0.52650642693E+02 -0.30936264910E+03  0.31721018214E+03  0.00000000000E+00 0.  1.
         14    1    3    3    0    0 -0.27740448618E+02 -0.85673472037E+01 -0.23137327683E+03  0.23318774658E+03  0.00000000000E+00 0. -1.
        -13    1    4    4    0    0  0.16872232833E+02 -0.15635281610E+02 -0.15096836987E+02  0.27514519055E+02  0.00000000000E+00 0.  1.
         13    1    4    4    0    0 -0.10183605543E+02  0.80822838530E+02 -0.19537354874E+03  0.21167631090E+03  0.00000000000E+00 0. -1.
          1    1    1    2  501    0 -0.25261900401E+02 -0.39695670232E+01 -0.91956601974E+02  0.95445993739E+02  0.00000000000E+00 0. -1.
<scales pt_clust_5="13000.00000" pt_clust_6="13000.00000" pt_clust_7="13000.00000" pt_clust_8="13000.00000" pt_clust_9="25.57189"></scales>
<clustering>
<clus scale="   25.572">  1  9  2 -1</clus>
<clus scale="   80.311">  5  6 -1 -1</clus>
<clus scale="   92.846">  7  8 -1 -1</clus>
<clus scale="  102.324">  2  5  1 -1</clus>
<clus scale="   25.572">  1  5  2 -1</clus>
</clustering>
</event>
<event>
 9    2  0.1654290E-004  0.1621696E+03  0.7546771E-02  0.1187543E+00
         -1   -1    0    0    0  501 -0.00000000000E+00  0.00000000000E+00  0.62836596391E+03  0.62836596391E+03  0.00000000000E+00 0.  1.
         21   -1    0    0  501  502  0.00000000000E+00 -0.00000000000E+00 -0.35028885371E+03  0.35028885371E+03  0.00000000000E+00 0. -1.
         23    2    1    2    0    0  0.84083346419E+02  0.10732342272E+03  0.55349203144E+03  0.57694553077E+03  0.89019045148E+02 0.  0.
         24    2    1    2    0    0  0.21264461116E+01 -0.14857734933E+03 -0.25182353587E+03  0.30326860291E+03  0.80479822232E+02 0.  0.
        -13    1    4    4    0    0 -0.20511472232E+02 -0.33839061905E+02 -0.21692993833E+02  0.45126362419E+02  0.00000000000E+00 0.  1.
         14    1    4    4    0    0  0.22637918343E+02 -0.11473828743E+03 -0.23013054204E+03  0.25814224049E+03  0.00000000000E+00 0. -1.
        -13    1    3    3    0    0  0.33634657829E+02 -0.76133165446E+01  0.80374109914E+02  0.87459992800E+02  0.00000000000E+00 0.  1.
         13    1    3    3    0    0  0.50448688590E+02  0.11493673926E+03  0.47311792153E+03  0.48948553797E+03  0.00000000000E+00 0. -1.
         -2    1    1    2    0  502 -0.86209792531E+02  0.41253926615E+02 -0.23591385376E+02  0.98440683934E+02  0.00000000000E+00 0.  1.
<scales pt_clust_5="13000.00000" pt_clust_6="13000.00000" pt_clust_7="13000.00000" pt_clust_8="13000.00000" pt_clust_9="95.57204"></scales>
<clustering>
<clus scale="   80.480">  5  6 -1 -1</clus>
<clus scale="   89.019">  7  8 -1 -1</clus>
<clus scale="   95.572">  2  9  1 -1</clus>
<clus scale="  157.644">  2  5  1 -1</clus>
<clus scale="   95.572">  2  5  1 -1</clus>
</clustering>
</event>
<event>
 9    2  0.1654290E-004  0.1151438E+03  0.7546771E-02  0.1255454E+00
          2   -1    0    0  502    0 -0.00000000000E+00  0.00000000000E+00  0.11671856212E+04  0.11671856212E+04  0.00000000000E+00 0. -1.
         21   -1    0    0  501  502  0.00000000000E+00 -0.00000000000E+00 -0.18846320926E+02  0.18846320926E+02  0.00000000000E+00 0.  1.
         24    2    1    2    0    0  0.74738155587E+02  0.84472017042E+01  0.64883276474E+03  0.65809954374E+03  0.80336204500E+02 0.  0.
         23    2    1    2    0    0 -0.57561532965E+02 -0.25875666138E+02  0.48855157116E+03  0.50112197168E+03  0.91965823223E+02 0.  0.
        -13    1    3    3    0    0  0.66639875962E+02 -0.25750751248E+02  0.35072320044E+03  0.35792560342E+03  0.00000000000E+00 0.  1.
         14    1    3    3    0    0  0.80982796256E+01  0.34197952953E+02  0.29810956429E+03  0.30017394031E+03  0.00000000000E+00 0. -1.
        -11    1    4    4    0    0 -0.39270370868E+02 -0.60644341303E+02  0.31792104568E+03  0.32602712992E+03  0.00000000000E+00 0.  1.
         11    1    4    4    0    0 -0.18291162097E+02  0.34768675165E+02  0.17063052548E+03  0.17509484176E+03  0.00000000000E+00 0. -1.
          1    1    1    2  501    0 -0.17176622622E+02  0.17428464434E+02  0.10954964418E+02  0.26810426752E+02  0.00000000000E+00 0. -1.
<scales pt_clust_5="13000.00000" pt_clust_6="13000.00000" pt_clust_7="13000.00000" pt_clust_8="13000.00000" pt_clust_9="24.47014"></scales>
<clustering>
<clus scale="   24.470">  2  9  1 -1</clus>
<clus scale="   80.336">  5  6 -1 -1</clus>
<clus scale="   91.966">  7  8 -1 -1</clus>
<clus scale="  106.086">  1  5  2 -1</clus>
<clus scale="   24.470">  2  5  1 -1</clus>
</clustering>
</event>
<event>
 9    2  0.1654290E-004  0.1246276E+03  0.7546771E-02  0.1239239E+00
         21   -1    0    0  501  502  0.00000000000E+00  0.00000000000E+00  0.74844148039E+02  0.74844148039E+02  0.00000000000E+00 0.  1.
          2   -1    0    0  502    0 -0.00000000000E+00 -0.00000000000E+00 -0.35954683722E+03  0.35954683722E+03  0.00000000000E+00 0. -1.
         24    2    1    2    0    0  0.27445268074E+02  0.95953037402E+02 -0.21961919027E+03  0.25383529836E+03  0.78990770561E+02 0.  0.
         23    2    1    2    0    0 -0.43305347322E+02 -0.38170753894E+02 -0.35887816468E+02  0.11390193776E+03  0.91396698487E+02 0.  0.
        -13    1    3    3    0    0  0.33808578818E+02  0.29711854833E+01 -0.53470252802E+02  0.63331792013E+02  0.00000000000E+00 0.  1.
         14    1    3    3    0    0 -0.63633107443E+01  0.92981851919E+02 -0.16614893747E+03  0.19050350635E+03  0.00000000000E+00 0. -1.
        -11    1    4    4    0    0 -0.47499121592E+02 -0.69042987726E+00  0.15670602395E+02  0.50022105362E+02  0.00000000000E+00 0.  1.
         11    1    4    4    0    0  0.41937742697E+01 -0.37480324017E+02 -0.51558418863E+02  0.63879832394E+02  0.00000000000E+00 0. -1.
          1    1    1    2  501    0  0.15860079248E+02 -0.57782283508E+02 -0.29195682447E+02  0.66653749142E+02  0.00000000000E+00 0. -1.
<scales pt_clust_5="13000.00000" pt_clust_6="13000.00000" pt_clust_7="13000.00000" pt_clust_8="13000.00000" pt_clust_9="59.91940"></scales>
<clustering>
<clus scale="   59.919">  1  9  2 -1</clus>
<clus scale="   78.991">  5  6 -1 -1</clus>
<clus scale="   91.397">  7  8 -1 -1</clus>
<clus scale="  115.837">  2  5  1 -1</clus>
<clus scale="   59.919">  1  5  2 -1</clus>
</clustering>
</event>
<event>
 9    2  0.1654290E-004  0.2571664E+03  0.7546771E-02  0.1109281E+00
          4   -1    0    0  502    0 -0.00000000000E+00  0.00000000000E+00  0.29832873066E+03  0.29832873066E+03  0.00000000000E+00 0. -1.
         21   -1    0    0  501  502  0.00000000000E+00 -0.00000000000E+00 -0.43165772699E+03  0.43165772699E+03  0.00000000000E+00 0. -1.
         23    2    1    2    0    0  0.21787888681E+03 -0.43143620541E+02 -0.80448297372E+02  0.25397445034E+03  0.93265811341E+02 0.  0.
         24    2    1    2    0    0 -0.25599732526E+03  0.78142718619E+02 -0.18347179098E+03  0.33554142131E+03  0.85353572382E+02 0.  0.
        -13    1    4    4    0    0 -0.83229310374E+02 -0.10190162131E+02 -0.33476884091E+02  0.90286539850E+02  0.00000000000E+00 0.  1.
         14    1    4    4    0    0 -0.17276801489E+03  0.88332880750E+02 -0.14999490689E+03  0.24525488146E+03  0.00000000000E+00 0. -1.
        -11    1    3    3    0    0  0.18194960025E+03 -0.69941860652E+02 -0.74839020596E+02  0.20880229862E+03  0.00000000000E+00 0. -1.
         11    1    3    3    0    0  0.35929286557E+02  0.26798240111E+02 -0.56092767760E+01  0.45172151725E+02  0.00000000000E+00 0.  1.
          3    1    1    2  501    0  0.38118438451E+02 -0.34999098078E+02  0.13059109202E+03  0.14047058600E+03  0.00000000000E+00 0. -1.
<scales pt_clust_5="13000.00000" pt_clust_6="13000.00000" pt_clust_7="13000.00000" pt_clust_8="13000.00000" pt_clust_9="51.74896"></scales>
<clustering>
<clus scale="   51.749">  2  9  1 -1</clus>
<clus scale="   85.354">  5  6 -1 -1</clus>
<clus scale="   93.266">  7  8 -1 -1</clus>
<clus scale="  254.404">  2  5  1 -1</clus>
<clus scale="   51.749">  2  5  1 -1</clus>
</clustering>
</event>
<event>
 9    2  0.1654290E-004  0.1936713E+03  0.7546771E-02  0.1177423E+00
          2   -1    0    0  502    0 -0.00000000000E+00  0.00000000000E+00  0.12835583632E+04  0.12835583632E+04  0.00000000000E+00 0. -1.
         21   -1    0    0  501  502  0.00000000000E+00 -0.00000000000E+00 -0.54151933177E+02  0.54151933177E+02  0.00000000000E+00 0. -1.
         24    2    1    2    0    0 -0.85765240439E+02  0.20635240877E+02  0.13886068862E+03  0.18098896360E+03  0.75453458951E+02 0.  0.
         23    2    1    2    0    0  0.92135816071E+02 -0.18029600102E+03  0.71216355792E+03  0.74598392355E+03  0.91210878570E+02 0.  0.
        -13    1    3    3    0    0 -0.10165683747E+02  0.28858311686E+02  0.77346921544E+02  0.83178660435E+02  0.00000000000E+00 0.  1.
         14    1    3    3    0    0 -0.75599556692E+02 -0.82230708091E+01  0.61513767077E+02  0.97810303167E+02  0.00000000000E+00 0. -1.
        -13    1    4    4    0    0  0.32430108696E+02 -0.12846730082E+03  0.54776153015E+03  0.56355856239E+03  0.00000000000E+00 0. -1.
         13    1    4    4    0    0  0.59705707375E+02 -0.51828700199E+02  0.16440202778E+03  0.18242536116E+03  0.00000000000E+00 0.  1.
          1    1    1    2  501    0 -0.63705756322E+01  0.15966076015E+03  0.37838218346E+03  0.41073740921E+03  0.00000000000E+00 0. -1.
<scales pt_clust_5="13000.00000" pt_clust_6="13000.00000" pt_clust_7="13000.00000" pt_clust_8="13000.00000" pt_clust_9="170.84831"></scales>
<clustering>
<clus scale="   75.453">  5  6 -1 -1</clus>
<clus scale="   91.211">  7  8 -1 -1</clus>
<clus scale="  116.081">  1  5  2 -1</clus>
<clus scale="  170.848">  2  9  1 -1</clus>
<clus scale="  170.848">  2  5  1 -1</clus>
</clustering>
</event>
<event>
 9    2  0.1654290E-004  0.2392489E+03  0.7546771E-02  0.1138902E+00
         -1   -1    0    0    0  501 -0.00000000000E+00  0.00000000000E+00  0.51139218053E+03  0.51139218053E+03  0.00000000000E+00 0.  1.
         21   -1    0    0  501  502  0.00000000000E+00 -0.00000000000E+00 -0.26067358782E+03  0.26067358782E+03  0.00000000000E+00 0. -1.
         24    2    1    2    0    0  0.67950849084E+02  0.11063178752E+03 -0.10409273555E+02  0.15179026286E+03  0.77943701611E+02 0.  0.
         23    2    1    2    0    0 -0.12599210404E+03  0.16236902474E+03 -0.14710307674E+02  0.22786637083E+03  0.97308680631E+02 0.  0.
        -13    1    3    3    0    0  0.29252519148E+02  0.21583503074E+02 -0.36227768649E+02  0.51322594466E+02  0.00000000000E+00 0.  1.
         14    1    3    3    0    0  0.38698329937E+02  0.89048284449E+02  0.25818495094E+02  0.10046766839E+03  0.00000000000E+00 0. -1.
        -13    1    4    4    0    0 -0.80335774103E+02  0.85720805760E+02  0.38933741682E+02  0.12376481480E+03  0.00000000000E+00 0.  1.
         13    1    4    4    0    0 -0.45656329940E+02  0.76648218977E+02 -0.53644049355E+02  0.10410155603E+03  0.00000000000E+00 0. -1.
         -2    1    1    2    0  502  0.58041254959E+02 -0.27300081226E+03  0.27583817394E+03  0.39240913467E+03  0.00000000000E+00 0.  1.
<scales pt_clust_5="13000.00000" pt_clust_6="13000.00000" pt_clust_7="13000.00000" pt_clust_8="13000.00000" pt_clust_9="218.56598"></scales>
<clustering>
<clus scale="   77.944">  5  6 -1 -1</clus>
<clus scale="   97.309">  7  8 -1 -1</clus>
<clus scale="  151.433">  1  5  2 -1</clus>
<clus scale="  218.566">  2  9  1 -1</clus>
<clus scale="  218.566">  2  5  1 -1</clus>
</clustering>
</event>
<event>
 9    2  0.1654290E-004  0.1495860E+03  0.7546771E-02  0.1224425E+00
          2   -1    0    0  502    0 -0.00000000000E+00  0.00000000000E+00  0.12353130365E+04  0.12353130365E+04  0.00000000000E+00 0. -1.
         21   -1    0    0  501  502  0.00000000000E+00 -0.00000000000E+00 -0.26991959805E+02  0.26991959805E+02  0.00000000000E+00 0.  1.
         23    2    1    2    0    0  0.14475726499E+02 -0.18841332994E+02  0.21028631819E+03  0.22908351374E+03  0.87717604623E+02 0.  0.
         24    2    1    2    0    0 -0.19481336720E+02  0.12689878608E+03  0.57197743532E+03  0.59364633320E+03  0.93674745888E+02 0.  0.
        -13    1    4    4    0    0 -0.56865509114E+02  0.89387837934E+02  0.37632742930E+03  0.39095550353E+03  0.00000000000E+00 0.  1.
         14    1    4    4    0    0  0.37384172394E+02  0.37510948149E+02  0.19565000602E+03  0.20269082967E+03  0.00000000000E+00 0. -1.
        -13    1    3    3    0    0 -0.36043472643E+02 -0.17203054794E+02  0.10351139847E+03  0.11094902716E+03  0.00000000000E+00 0. -1.
         13    1    3    3    0    0  0.50519199142E+02 -0.16382782000E+01  0.10677491973E+03  0.11813448658E+03  0.00000000000E+00 0.  1.
          1    1    1    2  501    0  0.50056102211E+01 -0.10805745309E+03  0.42605732314E+03  0.43957514932E+03  0.00000000000E+00 0. -1.
<scales pt_clust_5="13000.00000" pt_clust_6="13000.00000" pt_clust_7="13000.00000" pt_clust_8="13000.00000" pt_clust_9="116.62340"></scales>
<clustering>
<clus scale="   87.718">  7  8 -1 -1</clus>
<clus scale="   90.879">  1  7  2 -1</clus>
<clus scale="   93.675">  5  6 -1 -1</clus>
<clus scale="  116.623">  2  9  1 -1</clus>
<clus scale="  116.623">  2  5  1 -1</clus>
</clustering>
</event>
<event>
 9    2  0.1654290E-004  0.1405781E+03  0.7546771E-02  0.1234407E+00
         21   -1    0    0  501  502  0.00000000000E+00  0.00000000000E+00  0.56508401006E+02  0.56508401006E+02  0.00000000000E+00 0.  1.
         -3   -1    0    0    0  501 -0.00000000000E+00 -0.00000000000E+00 -0.57708164736E+03  0.57708164736E+03  0.00000000000E+00 0.  1.
         23    2    1    2    0    0  0.91946556254E+01 -0.18871087799E+02 -0.20663939763E+03  0.22502228456E+03  0.86570943444E+02 0.  0.
         24    2    1    2    0    0 -0.81077033301E+02  0.99534907570E+02 -0.20735083324E+03  0.25679929795E+03  0.80441458372E+02 0.  0.
        -11    1    4    4    0    0 -0.95330225275E+02  0.86474633431E+02 -0.19569012941E+03  0.23422284437E+03  0.00000000000E+00 0.  1.
         12    1    4    4    0    0  0.14253191974E+02  0.13060274139E+02 -0.11660703834E+02  0.22576453573E+02  0.00000000000E+00 0. -1.
        -11    1    3    3    0    0 -0.20116171096E+02 -0.40416393069E+02 -0.15775552079E+03  0.16408823695E+03  0.00000000000E+00 0.  1.
         11    1    3    3    0    0  0.29310826721E+02  0.21545305270E+02 -0.48883876841E+02  0.60934047602E+02  0.00000000000E+00 0. -1.
         -4    1    1    2    0  502  0.71882377675E+02 -0.80663819771E+02 -0.10658301548E+03  0.15176846586E+03  0.00000000000E+00 0.  1.
<scales pt_clust_5="13000.00000" pt_clust_6="13000.00000" pt_clust_7="13000.00000" pt_clust_8="13000.00000" pt_clust_9="115.28820"></scales>
<clustering>
<clus scale="   80.441">  5  6 -1 -1</clus>
<clus scale="   86.571">  7  8 -1 -1</clus>
<clus scale="   89.080">  2  7  1 -1</clus>
<clus scale="  115.288">  1  9  2 -1</clus>
<clus scale="  115.288">  1  5  2 -1</clus>
</clustering>
</event>
<event>
 9    2  0.1654290E-004  0.2326742E+03  0.7546771E-02  0.1166705E+00
         21   -1    0    0  501  502  0.00000000000E+00  0.00000000000E+00  0.96987076091E+02  0.96987076091E+02  0.00000000000E+00 0.  1.
          2   -1    0    0  502    0 -0.00000000000E+00 -0.00000000000E+00 -0.11117751573E+04  0.11117751573E+04  0.00000000000E+00 0. -1.
         24    2    1    2    0    0  0.24688798818E+01  0.26709533419E+02 -0.47337513465E+01  0.85599068389E+02  0.81149846358E+02 0.  0.
         23    2    1    2    0    0 -0.14228938833E+03 -0.16872134570E+03 -0.28850251220E+03  0.37459509529E+03  0.91512968190E+02 0.  0.
        -13    1    3    3    0    0 -0.51128965581E+01  0.39486851639E+02  0.28653771332E+02  0.49054987261E+02  0.00000000000E+00 0.  1.
         14    1    3    3    0    0  0.75817764400E+01 -0.12777318221E+02 -0.33387522679E+02  0.36544081128E+02  0.00000000000E+00 0. -1.
        -13    1    4    4    0    0 -0.10367843811E+03 -0.16832695680E+03 -0.21859072317E+03  0.29472883668E+03  0.00000000000E+00 0.  1.
         13    1    4    4    0    0 -0.38610950222E+02 -0.39438889765E+00 -0.69911789029E+02  0.79866258613E+02  0.00000000000E+00 0. -1.
          1    1    1    2  501    0  0.13982050845E+03  0.14201181228E+03 -0.72155181766E+03  0.74856806970E+03  0.00000000000E+00 0. -1.
<scales pt_clust_5="13000.00000" pt_clust_6="13000.00000" pt_clust_7="13000.00000" pt_clust_8="13000.00000" pt_clust_9="213.92222"></scales>
<clustering>
<clus scale="   81.150">  5  6 -1 -1</clus>
<clus scale="   85.468">  2  5  1 -1</clus>
<clus scale="   91.513">  7  8 -1 -1</clus>
<clus scale="  213.922">  1  9  2 -1</clus>
<clus scale="  213.922">  1  5  2 -1</clus>
</clustering>
</event>
<event>
 9    2  0.1654290E-004  0.1573119E+03  0.7546771E-02  0.1194678E+00
         21   -1    0    0  501  502  0.00000000000E+00  0.00000000000E+00  0.27000467633E+03  0.27000467633E+03  0.00000000000E+00 0.  1.
          2   -1    0    0  502    0 -0.00000000000E+00 -0.00000000000E+00 -0.14466628687E+03  0.14466628687E+03  0.00000000000E+00 0. -1.
         23    2    1    2    0    0  0.19849720610E+02 -0.14849996307E+03 -0.23202729034E+02  0.17947919325E+03  0.96063331899E+02 0.  0.
         24    2    1    2    0    0 -0.11346528432E+02  0.87911034075E+02  0.79501247645E+02  0.14294304986E+03  0.79089654861E+02 0.  0.
        -11    1    4    4    0    0 -0.37321892291E+02  0.22880341976E+02  0.51329460969E+02  0.67462191311E+02  0.00000000000E+00 0.  1.
         12    1    4    4    0    0  0.25975363860E+02  0.65030692099E+02  0.28171786676E+02  0.75480858547E+02  0.00000000000E+00 0. -1.
        -13    1    3    3    0    0 -0.80762623068E+01 -0.33025203947E+02  0.33595151099E+02  0.47796697437E+02  0.00000000000E+00 0.  1.
         13    1    3    3    0    0  0.27925982917E+02 -0.11547475912E+03 -0.56797880132E+02  0.13168249581E+03  0.00000000000E+00 0. -1.
          1    1    1    2  501    0 -0.85031921785E+01  0.60588928990E+02  0.69039870846E+02  0.92248720099E+02  0.00000000000E+00 0. -1.
<scales pt_clust_5="13000.00000" pt_clust_6="13000.00000" pt_clust_7="13000.00000" pt_clust_8="13000.00000" pt_clust_9="61.18270"></scales>
<clustering>
<clus scale="   61.183">  1  9  2 -1</clus>
<clus scale="   79.090">  5  6 -1 -1</clus>
<clus scale="   96.063">  7  8 -1 -1</clus>
<clus scale="  147.560">  1  5  2 -1</clus>
<clus scale="   61.183">  1  5  2 -1</clus>
</clustering>
</event>
<event>
 9    2  0.1654290E-004  0.1041975E+03  0.7546771E-02  0.1275816E+00
         21   -1    0    0  501  502  0.00000000000E+00  0.00000000000E+00  0.11048657642E+03  0.11048657642E+03  0.00000000000E+00 0.  1.
         -3   -1    0    0    0  501 -0.00000000000E+00 -0.00000000000E+00 -0.42961675177E+03  0.42961675177E+03  0.00000000000E+00 0.  1.
         23    2    1    2    0    0  0.73730215813E+01 -0.48708788045E+02 -0.32399878524E+03  0.34007193473E+03  0.90811896078E+02 0.  0.
         24    2    1    2    0    0  0.46594110418E+02  0.61716291978E+02 -0.49029743819E+02  0.12265776082E+03  0.81615554205E+02 0.  0.
        -13    1    4    4    0    0  0.68388564886E+02  0.48087065724E+02 -0.49096160582E+02  0.96952538291E+02  0.00000000000E+00 0.  1.
         14    1    4    4    0    0 -0.21794454468E+02  0.13629226255E+02  0.66416763594E-01  0.25705222525E+02  0.00000000000E+00 0. -1.
        -13    1    3    3    0    0 -0.11183523322E+02  0.24724153395E+02 -0.72328557522E+02  0.77251376610E+02  0.00000000000E+00 0. -1.
         13    1    3    3    0    0  0.18556544903E+02 -0.73432941439E+02 -0.25167022772E+03  0.26282055812E+03  0.00000000000E+00 0.  1.
         -4    1    1    2    0  502 -0.53967131999E+02 -0.13007503934E+02  0.53898353712E+02  0.77373632639E+02  0.00000000000E+00 0.  1.
<scales pt_clust_5="13000.00000" pt_clust_6="13000.00000" pt_clust_7="13000.00000" pt_clust_8="13000.00000" pt_clust_9="55.51258"></scales>
<clustering>
<clus scale="   55.513">  1  9  2 -1</clus>
<clus scale="   81.616">  5  6 -1 -1</clus>
<clus scale="   90.812">  7  8 -1 -1</clus>
<clus scale="   96.288">  1  5  2 -1</clus>
<clus scale="   55.513">  1  5  2 -1</clus>
</clustering>
</event>
<event>
 9    2  0.1654290E-004  0.1145436E+03  0.7546771E-02  0.1255268E+00
          2   -1    0    0  502    0 -0.00000000000E+00  0.00000000000E+00  0.10117183665E+04  0.10117183665E+04  0.00000000000E+00 0. -1.
         21   -1    0    0  501  502  0.00000000000E+00 -0.00000000000E+00 -0.32064512355E+02  0.32064512355E+02  0.00000000000E+00 0.  1.
         24    2    1    2    0    0 -0.20953840488E+00  0.69094885517E+02  0.72100598626E+03  0.72904814809E+03  0.82990498889E+02 0.  0.
         23    2    1    2    0    0 -0.51143556482E+02 -0.68048685026E+02  0.15407374654E+03  0.19822729861E+03  0.91154021522E+02 0.  0.
        -11    1    3    3    0    0  0.33871111262E+02  0.63447764734E+02  0.42633209456E+03  0.43235624881E+03  0.00000000000E+00 0.  1.
         12    1    3    3    0    0 -0.34080649667E+02  0.56471207831E+01  0.29467389169E+03  0.29669189928E+03  0.00000000000E+00 0. -1.
        -13    1    4    4    0    0 -0.54434514747E+02  0.18675117663E+01  0.73824076599E+02  0.91742020261E+02  0.00000000000E+00 0.  1.
         13    1    4    4    0    0  0.32909582649E+01 -0.69916196793E+02  0.80249669937E+02  0.10648527835E+03  0.00000000000E+00 0. -1.
          1    1    1    2  501    0  0.51353094887E+02 -0.10462004905E+01  0.10457412133E+03  0.11650743213E+03  0.00000000000E+00 0. -1.
<scales pt_clust_5="13000.00000" pt_clust_6="13000.00000" pt_clust_7="13000.00000" pt_clust_8="13000.00000" pt_clust_9="51.36375"></scales>
<clustering>
<clus scale="   51.364">  2  9  1 -1</clus>
<clus scale="   82.990">  5  6 -1 -1</clus>
<clus scale="   91.154">  7  8 -1 -1</clus>
<clus scale="  108.160">  1  5  2 -1</clus>
<clus scale="   51.364">  2  5  1 -1</clus>
</clustering>
</event>
<event>
 9    2  0.1654290E-004  0.1770370E+03  0.7546771E-02  0.1190547E+00
         21   -1    0    0  501  502  0.00000000000E+00  0.00000000000E+00  0.20736871242E+03  0.20736871242E+03  0.00000000000E+00 0.  1.
          2   -1    0    0  502    0 -0.00000000000E+00 -0.00000000000E+00 -0.33496443931E+03  0.33496443931E+03  0.00000000000E+00 0. -1.
         24    2    1    2    0    0  0.71413243282E+02  0.57615110947E+02 -0.11827575296E+03  0.16383969470E+03  0.66595341411E+02 0.  0.
         23    2    1    2    0    0 -0.17348714846E+03 -0.63919436799E+01  0.10029744227E+03  0.22019351097E+03  0.91032728856E+02 0.  0.
        -13    1    3    3    0    0  0.66503913407E+02  0.64265577175E+02 -0.12332835609E+03  0.15415160824E+03  0.00000000000E+00 0.  1.
         14    1    3    3    0    0  0.49093298751E+01 -0.66504662281E+01  0.50526031322E+01  0.96880864615E+01  0.00000000000E+00 0. -1.
        -11    1    4    4    0    0 -0.24918516450E+02 -0.10851714754E+02 -0.15936270542E+02  0.31506457972E+02  0.00000000000E+00 0. -1.
         11    1    4    4    0    0 -0.14856863201E+03  0.44597710744E+01  0.11623371281E+03  0.18868705300E+03  0.00000000000E+00 0.  1.
          1    1    1    2  501    0  0.10207390518E+03 -0.51223167267E+02 -0.10961741620E+03  0.15829994605E+03  0.00000000000E+00 0. -1.
<scales pt_clust_5="13000.00000" pt_clust_6="13000.00000" pt_clust_7="13000.00000" pt_clust_8="13000.00000" pt_clust_9="151.83925"></scales>
<clustering>
<clus scale="   66.595">  5  6 -1 -1</clus>
<clus scale="   91.033">  7  8 -1 -1</clus>
<clus scale="  113.377">  2  5  1 -1</clus>
<clus scale="  151.839">  1  9  2 -1</clus>
<clus scale="  151.839">  1  5  2 -1</clus>
</clustering>
</event>
<event>
 9    2  0.1654290E-004  0.9484827E+02  0.7546771E-02  0.1295170E+00
         -1   -1    0    0    0  501 -0.00000000000E+00  0.00000000000E+00  0.24274718323E+03  0.24274718323E+03  0.00000000000E+00 0.  1.
         21   -1    0    0  501  502  0.00000000000E+00 -0.00000000000E+00 -0.11496008710E+03  0.11496008710E+03  0.00000000000E+00 0.  1.
         23    2    1    2    0    0  0.44697941351E+01 -0.75149284695E+01 -0.15590041260E+02  0.88033858695E+02  0.86200102557E+02 0.  0.
         24    2    1    2    0    0  0.76914788128E+02  0.23227265781E+02  0.10899160941E+02  0.11340203865E+03  0.79283290495E+02 0.  0.
        -13    1    4    4    0    0  0.91194402631E+02  0.21678921191E+02  0.20724761402E+02  0.95999533491E+02  0.00000000000E+00 0.  1.
         14    1    4    4    0    0 -0.14279614503E+02  0.15483445896E+01 -0.98256004606E+01  0.17402505157E+02  0.00000000000E+00 0. -1.
        -11    1    3    3    0    0 -0.37489349164E+02 -0.18537882875E+02  0.32586315788E+00  0.41823564997E+02  0.00000000000E+00 0.  1.
         11    1    3    3    0    0  0.41959143299E+02  0.11022954405E+02 -0.15915904417E+02  0.46210293698E+02  0.00000000000E+00 0. -1.
         -2    1    1    2    0  502 -0.81384582263E+02 -0.15712337311E+02  0.13247797645E+03  0.15627137299E+03  0.00000000000E+00 0.  1.
<scales pt_clust_5="13000.00000" pt_clust_6="13000.00000" pt_clust_7="13000.00000" pt_clust_8="13000.00000" pt_clust_9="82.88748"></scales>
<clustering>
<clus scale="   79.283">  5  6 -1 -1</clus>
<clus scale="   82.887">  2  9  1 -1</clus>
<clus scale="   86.200">  7  8 -1 -1</clus>
<clus scale="   88.609">  2  5  1 -1</clus>
<clus scale="   82.887">  2  5  1 -1</clus>
</clustering>
</event>
<event>
 9    2  0.1654290E-004  0.1692259E+03  0.7546771E-02  0.1180145E+00
          2   -1    0    0  502    0 -0.00000000000E+00  0.00000000000E+00  0.40175494965E+03  0.40175494965E+03  0.00000000000E+00 0. -1.
         21   -1    0    0  501  502  0.00000000000E+00 -0.00000000000E+00 -0.24447921836E+03  0.24447921836E+03  0.00000000000E+00 0. -1.
         24    2    1    2    0    0 -0.13537366412E+03 -0.16493403488E+02  0.17237415088E+03  0.23383759624E+03  0.79806717942E+02 0.  0.
         23    2    1    2    0    0  0.18983049934E+03 -0.26433739482E+02 -0.15067484402E+03  0.26011639129E+03  0.90682232734E+02 0.  0.
        -13    1    3    3    0    0 -0.56017746007E+02  0.31864454277E+02  0.81008884654E+02  0.10351700685E+03  0.00000000000E+00 0.  1.
         14    1    3    3    0    0 -0.79355918117E+02 -0.48357857765E+02  0.91365266225E+02  0.13032058939E+03  0.00000000000E+00 0. -1.
        -13    1    4    4    0    0  0.49215940139E+01  0.19452080144E+02 -0.24218682328E+02  0.31450756481E+02  0.00000000000E+00 0.  1.
         13    1    4    4    0    0  0.18490890533E+03 -0.45885819626E+02 -0.12645616170E+03  0.22866563481E+03  0.00000000000E+00 0. -1.
          1    1    1    2  501    0 -0.54456835216E+02  0.42927142970E+02  0.13557642443E+03  0.15228018048E+03  0.00000000000E+00 0. -1.
<scales pt_clust_5="13000.00000" pt_clust_6="13000.00000" pt_clust_7="13000.00000" pt_clust_8="13000.00000" pt_clust_9="69.34184"></scales>
<clustering>
<clus scale="   69.342">  2  9  1 -1</clus>
<clus scale="   79.807">  5  6 -1 -1</clus>
<clus scale="   90.682">  7  8 -1 -1</clus>
<clus scale="  163.656">  1  5  2 -1</clus>
<clus scale="   69.342">  2  5  1 -1</clus>
</clustering>
</event>
<event>
 9    2  0.1892084E-004  0.1006572E+03  0.7546771E-02  0.1292312E+00
         21   -1    0    0  501  502  0.00000000000E+00  0.00000000000E+00  0.53996128265E+03  0.53996128265E+03  0.00000000000E+00 0. -1.
          2   -1    0    0  502    0 -0.00000000000E+00 -0.00000000000E+00 -0.13300240258E+03  0.13300240258E+03  0.00000000000E+00 0. -1.
         24    2    1    2    0    0  0.17150114003E+02 -0.36728981610E+02 -0.10206325257E+03  0.12883353522E+03  0.67364885299E+02 0.  0.
         23    2    1    2    0    0  0.53805595846E+02  0.46874813380E+02  0.26090536338E+03  0.28586752815E+03  0.92500512070E+02 0.  0.
        -13    1    3    3    0    0 -0.11974062535E+02 -0.21851510591E+02 -0.37179828902E+01  0.25193056295E+02  0.00000000000E+00 0.  1.
         14    1    3    3    0    0  0.29124176538E+02 -0.14877471018E+02 -0.98345269682E+02  0.10364047893E+03  0.00000000000E+00 0. -1.
        -11    1    4    4    0    0 -0.26306927935E+02  0.10540063490E+02  0.75755222386E+02  0.80882637905E+02  0.00000000000E+00 0.  1.
         11    1    4    4    0    0  0.80112523782E+02  0.36334749890E+02  0.18515014100E+03  0.20498489024E+03  0.00000000000E+00 0. -1.
          1    1    1    2  501    0 -0.70955709849E+02 -0.10145831770E+02  0.24811676926E+03  0.25826262186E+03  0.00000000000E+00 0. -1.
<scales pt_clust_5="13000.00000" pt_clust_6="13000.00000" pt_clust_7="13000.00000" pt_clust_8="13000.00000" pt_clust_9="71.67741"></scales>
<clustering>
<clus scale="   67.365">  5  6 -1 -1</clus>
<clus scale="   71.677">  1  9  2 -1</clus>
<clus scale="   78.189">  2  5  1 -1</clus>
<clus scale="   92.501">  7  8 -1 -1</clus>
<clus scale="   71.677">  1  5  2 -1</clus>
</clustering>
</event>
<event>
 9    2  0.1654290E-004  0.1085936E+03  0.7546771E-02  0.1267194E+00
         -3   -1    0    0    0  501 -0.00000000000E+00  0.00000000000E+00  0.47092390079E+03  0.47092390079E+03  0.00000000000E+00 0.  1.
         21   -1    0    0  501  502  0.00000000000E+00 -0.00000000000E+00 -0.12571072480E+03  0.12571072480E+03  0.00000000000E+00 0.  1.
         24    2    1    2    0    0 -0.55785098305E+01 -0.53608471919E+02  0.33566236144E+03  0.34954025948E+03  0.81266131195E+02 0.  0.
         23    2    1    2    0    0  0.12214510278E+02  0.80034280874E+02  0.96817499319E+02  0.15567317518E+03  0.91136320525E+02 0.  0.
        -11    1    3    3    0    0  0.22812189628E+02 -0.62383597813E+02  0.20301908867E+03  0.21360912817E+03  0.00000000000E+00 0.  1.
         12    1    3    3    0    0 -0.28390699459E+02  0.87751258937E+01  0.13264327277E+03  0.13593113131E+03  0.00000000000E+00 0. -1.
        -13    1    4    4    0    0  0.48544281228E+02  0.32738112847E+02  0.67053823234E+02  0.89019921832E+02  0.00000000000E+00 0.  1.
         13    1    4    4    0    0 -0.36329770950E+02  0.47296168027E+02  0.29763676085E+02  0.66653253344E+02  0.00000000000E+00 0. -1.
         -4    1    1    2    0  502 -0.66360004477E+01 -0.26425808954E+02 -0.87266684764E+02  0.91421190927E+02  0.00000000000E+00 0.  1.
<scales pt_clust_5="13000.00000" pt_clust_6="13000.00000" pt_clust_7="13000.00000" pt_clust_8="13000.00000" pt_clust_9="27.24628"></scales>
<clustering>
<clus scale="   27.246">  2  9  1 -1</clus>
<clus scale="   81.266">  5  6 -1 -1</clus>
<clus scale="   91.136">  7  8 -1 -1</clus>
<clus scale="  100.454">  1  5  2 -1</clus>
<clus scale="   27.246">  2  5  1 -1</clus>
</clustering>
</event>
<event>
 9    2  0.1654290E-004  0.1458316E+03  0.7546771E-02  0.1206523E+00
         21   -1    0    0  501  502  0.00000000000E+00  0.00000000000E+00  0.14646708677E+03  0.14646708677E+03  0.00000000000E+00 0.  1.
          2   -1    0    0  502    0 -0.00000000000E+00 -0.00000000000E+00 -0.62973337472E+03  0.62973337472E+03  0.00000000000E+00 0. -1.
         24    2    1    2    0    0  0.37435115947E+02  0.11319753359E+03 -0.31146291146E+03  0.34386437818E+03  0.83776463546E+02 0.  0.
         23    2    1    2    0    0 -0.64709394343E+02 -0.74976687874E+02  0.93938686471E+02  0.16247766981E+03  0.88123248520E+02 0.  0.
        -13    1    3    3    0    0 -0.44880482539E+01  0.66792130937E+02 -0.81079611501E+02  0.10514387635E+03  0.00000000000E+00 0.  1.
         14    1    3    3    0    0  0.41923164201E+02  0.46405402657E+02 -0.23038329996E+03  0.23872050183E+03  0.00000000000E+00 0. -1.
        -11    1    4    4    0    0 -0.29017981830E+02 -0.76091720641E+02  0.96982160933E+02  0.12663938076E+03  0.00000000000E+00 0.  1.
         11    1    4    4    0    0 -0.35691412513E+02  0.11150327663E+01 -0.30434744624E+01  0.35838289050E+02  0.00000000000E+00 0. -1.
          1    1    1    2  501    0  0.27274278395E+02 -0.38220845720E+02 -0.26574206296E+03  0.26985841350E+03  0.00000000000E+00 0. -1.
<scales pt_clust_5="13000.00000" pt_clust_6="13000.00000" pt_clust_7="13000.00000" pt_clust_8="13000.00000" pt_clust_9="46.95446"></scales>
<clustering>
<clus scale="   46.954">  1  9  2 -1</clus>
<clus scale="   83.776">  5  6 -1 -1</clus>
<clus scale="   88.123">  7  8 -1 -1</clus>
<clus scale="  143.247">  2  5  1 -1</clus>
<clus scale="   46.954">  1  5  2 -1</clus>
</clustering>
</event>
<event>
 9    2  0.1654290E-004  0.1001434E+03  0.7546771E-02  0.1287573E+00
         21   -1    0    0  501  502  0.00000000000E+00  0.00000000000E+00  0.51264420103E+02  0.51264420103E+02  0.00000000000E+00 0. -1.
          2   -1    0    0  502    0 -0.00000000000E+00 -0.00000000000E+00 -0.64935641397E+03  0.64935641397E+03  0.00000000000E+00 0. -1.
         24    2    1    2    0    0  0.24649034308E+02  0.27812136509E+02 -0.30946467643E+03  0.32170530194E+03  0.79654412998E+02 0.  0.
         23    2    1    2    0    0  0.51054163762E+02 -0.53341311775E+02 -0.54256058607E+02  0.13130172001E+03  0.94045726125E+02 0.  0.
        -11    1    3    3    0    0  0.17604897723E+02  0.21854356589E+02 -0.26524301735E+02  0.38614555653E+02  0.00000000000E+00 0.  1.
         12    1    3    3    0    0  0.70441365850E+01  0.59577799201E+01 -0.28294037470E+03  0.28309074629E+03  0.00000000000E+00 0. -1.
        -11    1    4    4    0    0  0.53822614605E+02 -0.40492358077E+01 -0.61025376667E+02  0.81470035908E+02  0.00000000000E+00 0.  1.
         11    1    4    4    0    0 -0.27684508437E+01 -0.49292075968E+02  0.67693180603E+01  0.49831684100E+02  0.00000000000E+00 0. -1.
          1    1    1    2  501    0 -0.75703198069E+02  0.25529175266E+02 -0.23437125883E+03  0.24761381212E+03  0.00000000000E+00 0. -1.
<scales pt_clust_5="13000.00000" pt_clust_6="13000.00000" pt_clust_7="13000.00000" pt_clust_8="13000.00000" pt_clust_9="79.89192"></scales>
<clustering>
<clus scale="   79.654">  5  6 -1 -1</clus>
<clus scale="   79.892">  1  9  2 -1</clus>
<clus scale="   86.769">  2  5  1 -1</clus>
<clus scale="   94.046">  7  8 -1 -1</clus>
<clus scale="   79.892">  1  5  2 -1</clus>
</clustering>
</event>
<event>
 9    2  0.1654290E-004  0.1127669E+03  0.7546771E-02  0.1257811E+00
          2   -1    0    0  502    0 -0.00000000000E+00  0.00000000000E+00  0.69405778143E+03  0.69405778143E+03  0.00000000000E+00 0. -1.
         21   -1    0    0  501  502  0.00000000000E+00 -0.00000000000E+00 -0.22644086371E+02  0.22644086371E+02  0.00000000000E+00 0. -1.
         24    2    1    2    0    0  0.75702278661E+02  0.18858109274E+02  0.36072088237E+03  0.37816735184E+03  0.82489561422E+02 0.  0.
         23    2    1    2    0    0 -0.54374591128E+02 -0.16185761533E+02  0.20338514375E+03  0.22909527477E+03  0.88885056043E+02 0.  0.
        -11    1    3    3    0    0  0.15279814917E+01  0.32581420863E+02  0.16942176825E+03  0.17253295126E+03  0.00000000000E+00 0.  1.
         12    1    3    3    0    0  0.74174297169E+02 -0.13723311588E+02  0.19129911412E+03  0.20563440058E+03  0.00000000000E+00 0. -1.
        -11    1    4    4    0    0 -0.78523219112E+02 -0.89017533110E+01  0.16779708056E+03  0.18547505869E+03  0.00000000000E+00 0. -1.
         11    1    4    4    0    0  0.24148627984E+02 -0.72840082218E+01  0.35588063184E+02  0.43620216076E+02  0.00000000000E+00 0.  1.
          1    1    1    2  501    0 -0.21327687533E+02 -0.26723477416E+01  0.10730766895E+03  0.10943924119E+03  0.00000000000E+00 0. -1.
<scales pt_clust_5="13000.00000" pt_clust_6="13000.00000" pt_clust_7="13000.00000" pt_clust_8="13000.00000" pt_clust_9="21.49447"></scales>
<clustering>
<clus scale="   21.494">  2  9  1 -1</clus>
<clus scale="   82.490">  5  6 -1 -1</clus>
<clus scale="   88.885">  7  8 -1 -1</clus>
<clus scale="  107.798">  1  5  2 -1</clus>
<clus scale="   21.494">  2  5  1 -1</clus>
</clustering>
</event>
<event>
 9    2  0.1654290E-004  0.1023124E+03  0.7546771E-02  0.1287434E+00
         21   -1    0    0  501  502  0.00000000000E+00  0.00000000000E+00  0.42787863068E+03  0.42787863068E+03  0.00000000000E+00 0. -1.
          2   -1    0    0  502    0 -0.00000000000E+00 -0.00000000000E+00 -0.15506751672E+03  0.15506751672E+03  0.00000000000E+00 0. -1.
         24    2    1    2    0    0 -0.99148617906E+01 -0.32701066997E+01 -0.11649515156E+03  0.14246456486E+03  0.81339005529E+02 0.  0.
         23    2    1    2    0    0 -0.33478150843E+02 -0.34906599168E+02  0.11913615775E+03  0.16419857267E+03  0.10211997812E+03 0.  0.
        -11    1    3    3    0    0  0.34913054842E+02 -0.99718360554E+01 -0.58598848862E+02  0.68936086346E+02  0.00000000000E+00 0.  1.
         12    1    3    3    0    0 -0.44827916632E+02  0.67017293557E+01 -0.57896302698E+02  0.73528478510E+02  0.00000000000E+00 0. -1.
        -13    1    4    4    0    0 -0.41401675083E+02  0.15859384790E+02  0.99969273794E+02  0.10935938226E+03  0.00000000000E+00 0.  1.
         13    1    4    4    0    0  0.79235242400E+01 -0.50765983958E+02  0.19166883960E+02  0.54839190405E+02  0.00000000000E+00 0. -1.
          1    1    1    2  501    0  0.43393012633E+02  0.38176705868E+02  0.27017010777E+03  0.27628300988E+03  0.00000000000E+00 0. -1.
<scales pt_clust_5="13000.00000" pt_clust_6="13000.00000" pt_clust_7="13000.00000" pt_clust_8="13000.00000" pt_clust_9="57.79632"></scales>
<clustering>
<clus scale="   57.796">  1  9  2 -1</clus>
<clus scale="   81.339">  5  6 -1 -1</clus>
<clus scale="   81.580">  2  5  1 -1</clus>
<clus scale="  102.120">  7  8 -1 -1</clus>
<clus scale="   57.796">  1  5  2 -1</clus>
</clustering>
</event>
<event>
 9    2  0.1654290E-004  0.9392383E+02  0.7546771E-02  0.1299619E+00
          4   -1    0    0  502    0 -0.00000000000E+00  0.00000000000E+00  0.43251035135E+03  0.43251035135E+03  0.00000000000E+00 0. -1.
         21   -1    0    0  501  502  0.00000000000E+00 -0.00000000000E+00 -0.66238430476E+02  0.66238430476E+02  0.00000000000E+00 0. -1.
         23    2    1    2    0    0  0.17374181432E+02  0.15194986213E+02  0.34555124248E+03  0.35823886987E+03  0.91633383230E+02 0.  0.
         24    2    1    2    0    0  0.13734593452E+02 -0.25799734906E+02  0.46942380562E+02  0.98464766759E+02  0.81470594828E+02 0.  0.
        -11    1    4    4    0    0  0.25783825356E+02  0.22645882867E+02  0.82246229406E+01  0.35288611241E+02  0.00000000000E+00 0.  1.
         12    1    4    4    0    0 -0.12049231904E+02 -0.48445617773E+02  0.38717757621E+02  0.63176155518E+02  0.00000000000E+00 0. -1.
        -13    1    3    3    0    0 -0.80535982880E+01 -0.36232905316E+02  0.13350562373E+03  0.13856924421E+03  0.00000000000E+00 0.  1.
         13    1    3    3    0    0  0.25427779720E+02  0.51427891529E+02  0.21204561875E+03  0.21966962567E+03  0.00000000000E+00 0. -1.
          3    1    1    2  501    0 -0.31108774884E+02  0.10604748693E+02 -0.26221702168E+02  0.42045145192E+02  0.00000000000E+00 0. -1.
<scales pt_clust_5="13000.00000" pt_clust_6="13000.00000" pt_clust_7="13000.00000" pt_clust_8="13000.00000" pt_clust_9="32.86665"></scales>
<clustering>
<clus scale="   32.867">  2  9  1 -1</clus>
<clus scale="   81.471">  5  6 -1 -1</clus>
<clus scale="   84.038">  2  5  1 -1</clus>
<clus scale="   91.633">  7  8 -1 -1</clus>
<clus scale="   32.867">  2  5  1 -1</clus>
</clustering>
</event>
<event>
 9    2  0.1654290E-004  0.1245364E+03  0.7546771E-02  0.1239421E+00
         21   -1    0    0  501  502  0.00000000000E+00  0.00000000000E+00  0.16477051023E+03  0.16477051023E+03  0.00000000000E+00 0.  1.
          2   -1    0    0  502    0 -0.00000000000E+00 -0.00000000000E+00 -0.35627855927E+03  0.35627855927E+03  0.00000000000E+00 0. -1.
         24    2    1    2    0    0 -0.12940451153E+01  0.79987120995E+02 -0.29246527113E+03  0.31390955366E+03  0.81262900399E+02 0.  0.
         23    2    1    2    0    0  0.67274309431E+01 -0.10266507976E+03  0.44326039847E+02  0.14589490548E+03  0.93462017469E+02 0.  0.
        -13    1    3    3    0    0 -0.35975367771E+02  0.57539163062E+02 -0.13474038103E+03  0.15086402041E+03  0.00000000000E+00 0.  1.
         14    1    3    3    0    0  0.34681322655E+02  0.22447957933E+02 -0.15772489010E+03  0.16304553325E+03  0.00000000000E+00 0. -1.
        -13    1    4    4    0    0  0.50122652155E+02 -0.53059245156E+02  0.26054167593E+02  0.77500860670E+02  0.00000000000E+00 0.  1.
         13    1    4    4    0    0 -0.43395221212E+02 -0.49605834600E+02  0.18271872255E+02  0.68394044815E+02  0.00000000000E+00 0. -1.
          1    1    1    2  501    0 -0.54333858278E+01  0.22677958761E+02  0.56631182243E+02  0.61244610354E+02  0.00000000000E+00 0. -1.
<scales pt_clust_5="13000.00000" pt_clust_6="13000.00000" pt_clust_7="13000.00000" pt_clust_8="13000.00000" pt_clust_9="23.31977"></scales>
<clustering>
<clus scale="   23.320">  1  9  2 -1</clus>
<clus scale="   81.263">  5  6 -1 -1</clus>
<clus scale="   93.462">  7  8 -1 -1</clus>
<clus scale="  115.663">  2  5  1 -1</clus>
<clus scale="   23.320">  1  5  2 -1</clus>
</clustering>
</event>
<event>
 9    2  0.1654290E-004  0.1051758E+03  0.7546771E-02  0.1274233E+00
          2   -1    0    0  502    0 -0.00000000000E+00  0.00000000000E+00  0.37360483408E+03  0.37360483408E+03  0.00000000000E+00 0. -1.
         21   -1    0    0  501  502  0.00000000000E+00 -0.00000000000E+00 -0.21884800454E+03  0.21884800454E+03  0.00000000000E+00 0.  1.
         23    2    1    2    0    0 -0.22750641064E+02 -0.46337148269E+02  0.31742601052E+03  0.33419606120E+03  0.90901112165E+02 0.  0.
         24    2    1    2    0    0  0.67058794234E+02  0.35645356751E+02 -0.25517061341E+02  0.11372916494E+03  0.80720066882E+02 0.  0.
        -13    1    4    4    0    0  0.60404387348E+02  0.39769484712E+02 -0.50067607917E+02  0.87960600769E+02  0.00000000000E+00 0.  1.
         14    1    4    4    0    0  0.66544068853E+01 -0.41241279616E+01  0.24550546576E+02  0.25768564175E+02  0.00000000000E+00 0. -1.
        -11    1    3    3    0    0  0.15113093856E+02 -0.41788343709E+02  0.26855327522E+03  0.27220494651E+03  0.00000000000E+00 0. -1.
         11    1    3    3    0    0 -0.37863734920E+02 -0.45488045600E+01  0.48872735299E+02  0.61991114690E+02  0.00000000000E+00 0.  1.
          1    1    1    2  501    0 -0.44308153170E+02  0.10691791519E+02 -0.13715211964E+03  0.14452761247E+03  0.00000000000E+00 0. -1.
<scales pt_clust_5="13000.00000" pt_clust_6="13000.00000" pt_clust_7="13000.00000" pt_clust_8="13000.00000" pt_clust_9="45.57990"></scales>
<clustering>
<clus scale="   45.580">  2  9  1 -1</clus>
<clus scale="   80.720">  5  6 -1 -1</clus>
<clus scale="   90.901">  7  8 -1 -1</clus>
<clus scale="   96.512">  2  5  1 -1</clus>
<clus scale="   45.580">  2  5  1 -1</clus>
</clustering>
</event>
<event>
 9    2  0.1654290E-004  0.1169923E+03  0.7546771E-02  0.1253493E+00
         -1   -1    0    0    0  501 -0.00000000000E+00  0.00000000000E+00  0.21511556018E+03  0.21511556018E+03  0.00000000000E+00 0.  1.
         21   -1    0    0  501  502  0.00000000000E+00 -0.00000000000E+00 -0.14888569195E+03  0.14888569195E+03  0.00000000000E+00 0. -1.
         23    2    1    2    0    0  0.76448294580E+01 -0.74544811009E+02  0.74513111071E+02  0.14183929363E+03  0.94608716465E+02 0.  0.
         24    2    1    2    0    0 -0.57885755295E+02  0.39167261155E+02 -0.76311375437E+02  0.13049108805E+03  0.79496308257E+02 0.  0.
        -11    1    4    4    0    0 -0.12529921476E+02 -0.21789359297E+02 -0.37209457763E+01  0.25409064293E+02  0.00000000000E+00 0.  1.
         12    1    4    4    0    0 -0.45355833819E+02  0.60956620452E+02 -0.72590429661E+02  0.10508202376E+03  0.00000000000E+00 0. -1.
        -13    1    3    3    0    0 -0.17859653884E+02  0.17534142436E+02  0.18035369828E+02  0.30849440071E+02  0.00000000000E+00 0. -1.
         13    1    3    3    0    0  0.25504483342E+02 -0.92078953445E+02  0.56477741242E+02  0.11098985356E+03  0.00000000000E+00 0.  1.
         -2    1    1    2    0  502  0.50240925837E+02  0.35377549854E+02  0.68028132598E+02  0.91670870441E+02  0.00000000000E+00 0.  1.
<scales pt_clust_5="13000.00000" pt_clust_6="13000.00000" pt_clust_7="13000.00000" pt_clust_8="13000.00000" pt_clust_9="61.44693"></scales>
<clustering>
<clus scale="   61.447">  2  9  1 -1</clus>
<clus scale="   79.496">  5  6 -1 -1</clus>
<clus scale="   94.609">  7  8 -1 -1</clus>
<clus scale="  105.148">  2  5  1 -1</clus>
<clus scale="   61.447">  2  5  1 -1</clus>
</clustering>
</event>
<event>
 9    2  0.1654290E-004  0.1216270E+03  0.7546771E-02  0.1243080E+00
          2   -1    0    0  502    0 -0.00000000000E+00  0.00000000000E+00  0.34399121373E+03  0.34399121373E+03  0.00000000000E+00 0. -1.
         21   -1    0    0  501  502  0.00000000000E+00 -0.00000000000E+00 -0.12387899420E+03  0.12387899420E+03  0.00000000000E+00 0. -1.
         23    2    1    2    0    0 -0.87655502873E+02 -0.18191907427E+02  0.26891604857E+03  0.29778119921E+03  0.91342042591E+02 0.  0.
         24    2    1    2    0    0  0.49899554011E+02  0.17405939333E+02  0.11612298787E+02  0.98841286508E+02  0.82715308262E+02 0.  0.
        -13    1    4    4    0    0  0.64875733804E+02  0.35612027820E+01  0.29830581402E+02  0.71494101775E+02  0.00000000000E+00 0.  1.
         14    1    4    4    0    0 -0.14976179793E+02  0.13844736551E+02 -0.18218282615E+02  0.27347184733E+02  0.00000000000E+00 0. -1.
        -13    1    3    3    0    0 -0.55043070577E+02  0.32259331754E+02  0.17528901542E+03  0.18653858322E+03  0.00000000000E+00 0. -1.
         13    1    3    3    0    0 -0.32612432296E+02 -0.50451239181E+02  0.93627033147E+02  0.11124261598E+03  0.00000000000E+00 0.  1.
          1    1    1    2  501    0  0.37755948863E+02  0.78596809423E+00 -0.60416127818E+02  0.71247722215E+02  0.00000000000E+00 0. -1.
<scales pt_clust_5="13000.00000" pt_clust_6="13000.00000" pt_clust_7="13000.00000" pt_clust_8="13000.00000" pt_clust_9="37.76413"></scales>
<clustering>
<clus scale="   37.764">  2  9  1 -1</clus>
<clus scale="   82.715">  5  6 -1 -1</clus>
<clus scale="   91.342">  7  8 -1 -1</clus>
<clus scale="  115.289">  2  5  1 -1</clus>
<clus scale="   37.764">  2  5  1 -1</clus>
</clustering>
</event>
<event>
 9    2  0.1654290E-004  0.2233874E+03  0.7546771E-02  0.1166268E+00
          2   -1    0    0  502    0 -0.00000000000E+00  0.00000000000E+00  0.12462661223E+03  0.12462661223E+03  0.00000000000E+00 0. -1.
         21   -1    0    0  501  502  0.00000000000E+00 -0.00000000000E+00 -0.12532329846E+04  0.12532329846E+04  0.00000000000E+00 0. -1.
         24    2    1    2    0    0 -0.52484073004E+02 -0.13817197401E+02 -0.27159004805E+02  0.10126444854E+03  0.81064074247E+02 0.  0.
         23    2    1    2    0    0 -0.98916516791E+02  0.15498987607E+03 -0.58945658058E+02  0.21373971216E+03  0.91671887569E+02 0.  0.
        -13    1    3    3    0    0  0.22629889330E+01 -0.33979410586E+02  0.53568948911E+01  0.34473435941E+02  0.00000000000E+00 0.  1.
         14    1    3    3    0    0 -0.54747061937E+02  0.20162213185E+02 -0.32515899696E+02  0.66791012602E+02  0.00000000000E+00 0. -1.
        -13    1    4    4    0    0 -0.27086775047E+02  0.79062337855E+02  0.16045534662E+02  0.85099975512E+02  0.00000000000E+00 0. -1.
         13    1    4    4    0    0 -0.71829741744E+02  0.75927538215E+02 -0.74991192719E+02  0.12863973664E+03  0.00000000000E+00 0.  1.
          1    1    1    2  501    0  0.15140058980E+03 -0.14117267867E+03 -0.10425017096E+04  0.10628554362E+04  0.00000000000E+00 0. -1.
<scales pt_clust_5="13000.00000" pt_clust_6="13000.00000" pt_clust_7="13000.00000" pt_clust_8="13000.00000" pt_clust_9="203.71102"></scales>
<clustering>
<clus scale="   81.064">  5  6 -1 -1</clus>
<clus scale="   91.672">  7  8 -1 -1</clus>
<clus scale="   97.554">  1  5  2 -1</clus>
<clus scale="  203.711">  2  9  1 -1</clus>
<clus scale="  203.711">  2  5  1 -1</clus>
</clustering>
</event>
<event>
 9    2  0.1654290E-004  0.1276241E+03  0.7546771E-02  0.1247507E+00
         21   -1    0    0  501  502  0.00000000000E+00  0.00000000000E+00  0.24032561772E+02  0.24032561772E+02  0.00000000000E+00 0. -1.
          2   -1    0    0  502    0 -0.00000000000E+00 -0.00000000000E+00 -0.13955169457E+04  0.13955169457E+04  0.00000000000E+00 0. -1.
         24    2    1    2    0    0  0.30544356349E+02  0.96739109103E+00 -0.81582367030E+03  0.82091409692E+03  0.86010464272E+02 0.  0.
         23    2    1    2    0    0  0.59031065030E+02  0.39632734720E+02 -0.38129335066E+03  0.39844524196E+03  0.91206201974E+02 0.  0.
        -13    1    3    3    0    0  0.40957862009E+02 -0.26255454067E+01 -0.16604473251E+03  0.17104178771E+03  0.00000000000E+00 0.  1.
         14    1    3    3    0    0 -0.10413505660E+02  0.35929364978E+01 -0.64977893778E+03  0.64987230921E+03  0.00000000000E+00 0. -1.
        -13    1    4    4    0    0  0.23391633854E+02  0.61309912141E+02 -0.29978376759E+03  0.30688170550E+03  0.00000000000E+00 0. -1.
         13    1    4    4    0    0  0.35639431177E+02 -0.21677177421E+02 -0.81509583072E+02  0.91563536454E+02  0.00000000000E+00 0.  1.
          1    1    1    2  501    0 -0.89575421379E+02 -0.40600125811E+02 -0.17436736297E+03  0.20019016859E+03  0.00000000000E+00 0. -1.
<scales pt_clust_5="13000.00000" pt_clust_6="13000.00000" pt_clust_7="13000.00000" pt_clust_8="13000.00000" pt_clust_9="89.27119"></scales>
<clustering>
<clus scale="   86.010">  5  6 -1 -1</clus>
<clus scale="   91.206">  7  8 -1 -1</clus>
<clus scale="   91.278">  2  5  1 -1</clus>
<clus scale="   89.271">  1  9  2 -1</clus>
<clus scale="   89.271">  1  5  2 -1</clus>
</clustering>
</event>
<event>
 9    2  0.1654290E-004  0.1027440E+03  0.7546771E-02  0.1280203E+00
          2   -1    0    0  502    0 -0.00000000000E+00  0.00000000000E+00  0.36830763269E+03  0.36830763269E+03  0.00000000000E+00 0. -1.
         21   -1    0    0  501  502  0.00000000000E+00 -0.00000000000E+00 -0.52074108267E+02  0.52074108267E+02  0.00000000000E+00 0. -1.
         23    2    1    2    0    0 -0.56213821737E+02 -0.51514658368E+01  0.11310267553E+03  0.15545472136E+03  0.90484384438E+02 0.  0.
         24    2    1    2    0    0  0.28425946164E+02  0.40438236738E+02  0.50075493035E+02  0.10541757101E+03  0.78498559668E+02 0.  0.
        -13    1    4    4    0    0 -0.72236610683E+01 -0.20310186362E+02  0.61871578114E+01  0.22426900613E+02  0.00000000000E+00 0.  1.
         14    1    4    4    0    0  0.35649607232E+02  0.60748423100E+02  0.43888335223E+02  0.82990670401E+02  0.00000000000E+00 0. -1.
        -13    1    3    3    0    0 -0.24483507940E+02 -0.47156380330E+02  0.46885677801E+02  0.70862071306E+02  0.00000000000E+00 0.  1.
         13    1    3    3    0    0 -0.31730313798E+02  0.42004914494E+02  0.66216997728E+02  0.84592650055E+02  0.00000000000E+00 0. -1.
          1    1    1    2  501    0  0.27787875573E+02 -0.35286770901E+02  0.15305535586E+03  0.15950944858E+03  0.00000000000E+00 0. -1.
<scales pt_clust_5="13000.00000" pt_clust_6="13000.00000" pt_clust_7="13000.00000" pt_clust_8="13000.00000" pt_clust_9="44.91463"></scales>
<clustering>
<clus scale="   44.915">  2  9  1 -1</clus>
<clus scale="   78.499">  5  6 -1 -1</clus>
<clus scale="   90.484">  7  8 -1 -1</clus>
<clus scale="   92.363">  2  5  1 -1</clus>
<clus scale="   44.915">  2  5  1 -1</clus>
</clustering>
</event>
<event>
 9    2  0.1654290E-004  0.1411067E+03  0.7546771E-02  0.1230917E+00
         21   -1    0    0  501  502  0.00000000000E+00  0.00000000000E+00  0.14803557321E+03  0.14803557321E+03  0.00000000000E+00 0. -1.
          2   -1    0    0  502    0 -0.00000000000E+00 -0.00000000000E+00 -0.26029731442E+03  0.26029731442E+03  0.00000000000E+00 0. -1.
         23    2    1    2    0    0  0.22331259602E+02  0.25861689154E+02 -0.36351124334E+02  0.10137600333E+03  0.88250652630E+02 0.  0.
         24    2    1    2    0    0 -0.10204441080E+03 -0.87344103295E+02  0.37954092566E+02  0.15497186603E+03  0.67332844601E+02 0.  0.
        -13    1    4    4    0    0 -0.19278789666E+02  0.10006763053E+02  0.16174263396E+00  0.21721721812E+02  0.00000000000E+00 0.  1.
         14    1    4    4    0    0 -0.82765621137E+02 -0.97350866348E+02  0.37792349932E+02  0.13325014422E+03  0.00000000000E+00 0. -1.
        -13    1    3    3    0    0 -0.78297978243E+01  0.48127899332E+02 -0.40858758359E+02  0.63616338803E+02  0.00000000000E+00 0. -1.
         13    1    3    3    0    0  0.30161057426E+02 -0.22266210177E+02  0.45076340243E+01  0.37759664528E+02  0.00000000000E+00 0.  1.
          1    1    1    2  501    0  0.79713151201E+02  0.61482414141E+02 -0.11386470944E+03  0.15198501827E+03  0.00000000000E+00 0. -1.
<scales pt_clust_5="13000.00000" pt_clust_6="13000.00000" pt_clust_7="13000.00000" pt_clust_8="13000.00000" pt_clust_9="124.00565"></scales>
<clustering>
<clus scale="   67.333">  5  6 -1 -1</clus>
<clus scale="   88.251">  7  8 -1 -1</clus>
<clus scale="   94.635">  2  7  1 -1</clus>
<clus scale="  124.006">  1  9  2 -1</clus>
<clus scale="  124.006">  1  5  2 -1</clus>
</clustering>
</event>
<event>
 9    2  0.1654290E-004  0.2002037E+03  0.7546771E-02  0.1150609E+00
          2   -1    0    0  502    0 -0.00000000000E+00  0.00000000000E+00  0.17158859886E+04  0.17158859886E+04  0.00000000000E+00 0. -1.
         21   -1    0    0  501  502  0.00000000000E+00 -0.00000000000E+00 -0.39286267431E+02  0.39286267431E+02  0.00000000000E+00 0.  1.
         23    2    1    2    0    0  0.10969077181E+02 -0.16816341128E+03  0.87912274288E+03  0.89976323718E+03  0.91202151217E+02 0.  0.
         24    2    1    2    0    0 -0.32144658159E+02  0.18846523546E+03  0.79958343974E+03  0.82599802640E+03  0.79916446869E+02 0.  0.
        -13    1    4    4    0    0 -0.14837130922E+01  0.63946421893E+02  0.13803264252E+03  0.15213269431E+03  0.00000000000E+00 0.  1.
         14    1    4    4    0    0 -0.30660945066E+02  0.12451881357E+03  0.66155079722E+03  0.67386533209E+03  0.00000000000E+00 0. -1.
        -13    1    3    3    0    0 -0.37763125164E+02 -0.73242935319E+02  0.31252953143E+03  0.32321090516E+03  0.00000000000E+00 0. -1.
         13    1    3    3    0    0  0.48732202344E+02 -0.94920475962E+02  0.56659321145E+03  0.57655233202E+03  0.00000000000E+00 0.  1.
          1    1    1    2  501    0  0.21175580978E+02 -0.20301824184E+02 -0.21064614860E+01  0.29410992417E+02  0.00000000000E+00 0. -1.
<scales pt_clust_5="13000.00000" pt_clust_6="13000.00000" pt_clust_7="13000.00000" pt_clust_8="13000.00000" pt_clust_9="29.33546"></scales>
<clustering>
<clus scale="   29.335">  2  9  1 -1</clus>
<clus scale="   79.916">  5  6 -1 -1</clus>
<clus scale="   91.202">  7  8 -1 -1</clus>
<clus scale="  195.321">  2  5  1 -1</clus>
<clus scale="   29.335">  2  5  1 -1</clus>
</clustering>
</event>
<event>
 9    2  0.1654290E-004  0.3902299E+03  0.7546771E-02  0.1070969E+00
          2   -1    0    0  502    0 -0.00000000000E+00  0.00000000000E+00  0.12308132780E+04  0.12308132780E+04  0.00000000000E+00 0. -1.
         21   -1    0    0  501  502  0.00000000000E+00 -0.00000000000E+00 -0.17966534808E+04  0.17966534808E+04  0.00000000000E+00 0. -1.
         23    2    1    2    0    0 -0.14132512074E+02  0.17197804127E+03  0.49857709454E+03  0.53737747157E+03  0.10207474305E+03 0.  0.
         24    2    1    2    0    0  0.22470032738E+03  0.15158928183E+03  0.66266315447E+03  0.72038832255E+03  0.79795560573E+02 0.  0.
        -13    1    4    4    0    0  0.77049602697E+01  0.32867253620E+02  0.58323251084E+02  0.67388607274E+02  0.00000000000E+00 0.  1.
         14    1    4    4    0    0  0.21699536711E+03  0.11872202821E+03  0.60433990338E+03  0.65299971528E+03  0.00000000000E+00 0. -1.
        -11    1    3    3    0    0 -0.29173956908E+02  0.38720514107E+02  0.51975887551E+02  0.71076654824E+02  0.00000000000E+00 0. -1.
         11    1    3    3    0    0  0.15041444833E+02  0.13325752717E+03  0.44660120699E+03  0.46630081675E+03  0.00000000000E+00 0.  1.
          1    1    1    2  501    0 -0.21056781530E+03 -0.32356732310E+03 -0.17270804518E+04  0.17697009647E+04  0.00000000000E+00 0. -1.
<scales pt_clust_5="13000.00000" pt_clust_6="13000.00000" pt_clust_7="13000.00000" pt_clust_8="13000.00000" pt_clust_9="381.98436"></scales>
<clustering>
<clus scale="   79.796">  5  6 -1 -1</clus>
<clus scale="  102.075">  7  8 -1 -1</clus>
<clus scale="  200.488">  1  7  2 -1</clus>
<clus scale="  381.984">  2  9  1 -1</clus>
<clus scale="  381.984">  2  5  1 -1</clus>
</clustering>
</event>
<event>
 9    2  0.1654290E-004  0.1562087E+03  0.7546771E-02  0.1209998E+00
         -3   -1    0    0    0  501 -0.00000000000E+00  0.00000000000E+00  0.87097259412E+02  0.87097259412E+02  0.00000000000E+00 0.  1.
         21   -1    0    0  501  502  0.00000000000E+00 -0.00000000000E+00 -0.49114881679E+03  0.49114881679E+03  0.00000000000E+00 0. -1.
         23    2    1    2    0    0  0.10434839530E+02  0.57781753129E+02 -0.16703944987E+03  0.19901709194E+03  0.90873583621E+02 0.  0.
         24    2    1    2    0    0  0.59091713390E+02 -0.14937182783E+03 -0.16018113436E+03  0.24093335245E+03  0.81161018835E+02 0.  0.
        -11    1    4    4    0    0 -0.69420232030E+01 -0.72455772922E+02 -0.37794186355E+02  0.82014823282E+02  0.00000000000E+00 0.  1.
         12    1    4    4    0    0  0.66033736593E+02 -0.76916054904E+02 -0.12238694801E+03  0.15891852917E+03  0.00000000000E+00 0. -1.
        -13    1    3    3    0    0 -0.31758553681E+02  0.57834034836E+02 -0.10006185857E+03  0.11985723532E+03  0.00000000000E+00 0. -1.
         13    1    3    3    0    0  0.42193393211E+02 -0.52281706759E-01 -0.66977591300E+02  0.79159856622E+02  0.00000000000E+00 0.  1.
         -4    1    1    2    0  502 -0.69526552920E+02  0.91590074697E+02 -0.76830973144E+02  0.13829563181E+03  0.00000000000E+00 0.  1.
<scales pt_clust_5="13000.00000" pt_clust_6="13000.00000" pt_clust_7="13000.00000" pt_clust_8="13000.00000" pt_clust_9="133.46928"></scales>
<clustering>
<clus scale="   81.161">  5  6 -1 -1</clus>
<clus scale="   90.874">  7  8 -1 -1</clus>
<clus scale="  108.193">  1  7  2 -1</clus>
<clus scale="  133.469">  2  9  1 -1</clus>
<clus scale="  133.469">  2  5  1 -1</clus>
</clustering>
</event>
<event>
 9    2  0.1953997E-004  0.1095446E+03  0.7546771E-02  0.1266250E+00
         21   -1    0    0  501  502  0.00000000000E+00  0.00000000000E+00  0.14363863631E+03  0.14363863631E+03  0.00000000000E+00 0.  1.
          2   -1    0    0  502    0 -0.00000000000E+00 -0.00000000000E+00 -0.55688761756E+03  0.55688761756E+03  0.00000000000E+00 0. -1.
         23    2    1    2    0    0 -0.51171304789E+02 -0.26722974494E+02 -0.43530705566E+03  0.44869862075E+03  0.92225808532E+02 0.  0.
         24    2    1    2    0    0  0.86322164499E+02  0.21609074222E+02  0.10643860214E+03  0.16027541647E+03  0.80253130321E+02 0.  0.
        -13    1    4    4    0    0  0.65023214292E+02  0.14534270508E+02  0.11763575510E+03  0.13519406160E+03  0.00000000000E+00 0.  1.
         14    1    4    4    0    0  0.21298950207E+02  0.70748037139E+01 -0.11197152956E+02  0.25081354864E+02  0.00000000000E+00 0. -1.
        -13    1    3    3    0    0  0.39355416433E+01  0.24832485348E+02 -0.48827486433E+02  0.54920526654E+02  0.00000000000E+00 0.  1.
         13    1    3    3    0    0 -0.55106846432E+02 -0.51555459842E+02 -0.38647956923E+03  0.39377809410E+03  0.00000000000E+00 0. -1.
          1    1    1    2  501    0 -0.35150859710E+02  0.51139002730E+01 -0.84380527727E+02  0.91552216652E+02  0.00000000000E+00 0. -1.
<scales pt_clust_5="13000.00000" pt_clust_6="13000.00000" pt_clust_7="13000.00000" pt_clust_8="13000.00000" pt_clust_9="35.52093"></scales>
<clustering>
<clus scale="   35.521">  1  9  2 -1</clus>
<clus scale="   80.253">  5  6 -1 -1</clus>
<clus scale="   92.226">  7  8 -1 -1</clus>
<clus scale="   99.674">  1  5  2 -1</clus>
<clus scale="   35.521">  1  5  2 -1</clus>
</clustering>
</event>
<event>
 9    2  0.1654290E-004  0.1768236E+03  0.7546771E-02  0.1173642E+00
         -1   -1    0    0    0  501 -0.00000000000E+00  0.00000000000E+00  0.33784445966E+03  0.33784445966E+03  0.00000000000E+00 0.  1.
         21   -1    0    0  501  502  0.00000000000E+00 -0.00000000000E+00 -0.20698896875E+03  0.20698896875E+03  0.00000000000E+00 0. -1.
         23    2    1    2    0    0  0.93402562833E+02  0.12118692842E+03  0.25474748693E+03  0.31369762630E+03  0.10049680736E+03 0.  0.
         24    2    1    2    0    0 -0.61417996902E+02 -0.10211914803E+03 -0.56990235598E+02  0.15456924117E+03  0.80269998285E+02 0.  0.
        -13    1    4    4    0    0  0.17395270671E+02 -0.12956180379E+02 -0.21130598659E+02  0.30281351546E+02  0.00000000000E+00 0.  1.
         14    1    4    4    0    0 -0.78813267574E+02 -0.89162967653E+02 -0.35859636939E+02  0.12428788963E+03  0.00000000000E+00 0. -1.
        -11    1    3    3    0    0 -0.14433539935E+02  0.21690615981E+02  0.91580238564E+01  0.27616648921E+02  0.00000000000E+00 0. -1.
         11    1    3    3    0    0  0.10783610277E+03  0.99496312439E+02  0.24558946307E+03  0.28608097738E+03  0.00000000000E+00 0.  1.
         -2    1    1    2    0  502 -0.31984565930E+02 -0.19067780388E+02 -0.66901760414E+02  0.76566560933E+02  0.00000000000E+00 0.  1.
<scales pt_clust_5="13000.00000" pt_clust_6="13000.00000" pt_clust_7="13000.00000" pt_clust_8="13000.00000" pt_clust_9="37.23698"></scales>
<clustering>
<clus scale="   37.237">  2  9  1 -1</clus>
<clus scale="   80.270">  5  6 -1 -1</clus>
<clus scale="  100.497">  7  8 -1 -1</clus>
<clus scale="  166.163">  2  5  1 -1</clus>
<clus scale="   37.237">  2  5  1 -1</clus>
</clustering>
</event>
<event>
 9    2  0.1654290E-004  0.1800466E+03  0.7546771E-02  0.1198203E+00
         -1   -1    0    0    0  501 -0.00000000000E+00  0.00000000000E+00  0.30955905031E+03  0.30955905031E+03  0.00000000000E+00 0.  1.
         21   -1    0    0  501  502  0.00000000000E+00 -0.00000000000E+00 -0.17383372703E+03  0.17383372703E+03  0.00000000000E+00 0.  1.
         23    2    1    2    0    0 -0.22133779446E+01 -0.14374300691E+02  0.10677900162E+03  0.14037731663E+03  0.89958414152E+02 0.  0.
         24    2    1    2    0    0 -0.14310128156E+03  0.75636893050E+02 -0.36100153876E+01  0.18198946723E+03  0.83115688028E+02 0.  0.
        -11    1    4    4    0    0 -0.77924403561E+02  0.97958788817E+01 -0.32423533394E+02  0.84967390399E+02  0.00000000000E+00 0.  1.
         12    1    4    4    0    0 -0.65176878004E+02  0.65841014169E+02  0.28813518006E+02  0.97022076833E+02  0.00000000000E+00 0. -1.
        -11    1    3    3    0    0 -0.68035208927E+01 -0.51468454669E+02  0.75564806680E+02  0.91680585356E+02  0.00000000000E+00 0.  1.
         11    1    3    3    0    0  0.45901429481E+01  0.37094153978E+02  0.31214194936E+02  0.48696731278E+02  0.00000000000E+00 0. -1.
         -2    1    1    2    0  502  0.14531465951E+03 -0.61262592359E+02  0.32556337047E+02  0.16102599347E+03  0.00000000000E+00 0.  1.
<scales pt_clust_5="13000.00000" pt_clust_6="13000.00000" pt_clust_7="13000.00000" pt_clust_8="13000.00000" pt_clust_9="159.71408"></scales>
<clustering>
<clus scale="   83.116">  5  6 -1 -1</clus>
<clus scale="   89.958">  7  8 -1 -1</clus>
<clus scale="   91.126">  1  7  2 -1</clus>
<clus scale="  159.714">  2  9  1 -1</clus>
<clus scale="  159.714">  2  5  1 -1</clus>
</clustering>
</event>
<event>
 9    2  0.1654290E-004  0.1239557E+03  0.7546771E-02  0.1240076E+00
         21   -1    0    0  501  502  0.00000000000E+00  0.00000000000E+00  0.98440782988E+02  0.98440782988E+02  0.00000000000E+00 0.  1.
         -1   -1    0    0    0  501 -0.00000000000E+00 -0.00000000000E+00 -0.43726667129E+03  0.43726667129E+03  0.00000000000E+00 0.  1.
         24    2    1    2    0    0 -0.10130530360E+02 -0.83018856771E+02 -0.19316077583E+03  0.22519531077E+03  0.80044265557E+02 0.  0.
         23    2    1    2    0    0 -0.83227104435E+02  0.84181443971E+02 -0.15645102888E+02  0.15044277581E+03  0.91514988540E+02 0.  0.
        -13    1    3    3    0    0 -0.41867792116E+02 -0.53407821639E+02 -0.85810711858E+02  0.10940194559E+03  0.00000000000E+00 0.  1.
         14    1    3    3    0    0  0.31737261756E+02 -0.29611035132E+02 -0.10735006397E+03  0.11579336518E+03  0.00000000000E+00 0. -1.
        -11    1    4    4    0    0  0.31288917676E+01  0.45602028373E+02  0.19293200991E+02  0.49614136695E+02  0.00000000000E+00 0. -1.
         11    1    4    4    0    0 -0.86355996202E+02  0.38579415597E+02 -0.34938303879E+02  0.10082863912E+03  0.00000000000E+00 0.  1.
         -2    1    1    2    0  502  0.93357634794E+02 -0.11625872002E+01 -0.13002000959E+03  0.16006936771E+03  0.00000000000E+00 0.  1.
<scales pt_clust_5="13000.00000" pt_clust_6="13000.00000" pt_clust_7="13000.00000" pt_clust_8="13000.00000" pt_clust_9="93.36492"></scales>
<clustering>
<clus scale="   80.044">  5  6 -1 -1</clus>
<clus scale="   91.515">  7  8 -1 -1</clus>
<clus scale="   93.365">  1  9  2 -1</clus>
<clus scale="  115.746">  2  5  1 -1</clus>
<clus scale="   93.365">  1  5  2 -1</clus>
</clustering>
</event>
<event>
 9    2  0.1726087E-004  0.1424719E+03  0.7546771E-02  0.1212963E+00
         21   -1    0    0  501  502  0.00000000000E+00  0.00000000000E+00  0.11974984079E+03  0.11974984079E+03  0.00000000000E+00 0.  1.
          2   -1    0    0  502    0 -0.00000000000E+00 -0.00000000000E+00 -0.88293861530E+03  0.88293861530E+03  0.00000000000E+00 0. -1.
         23    2    1    2    0    0  0.10683206948E+03 -0.52879973483E+01 -0.76069119600E+03  0.77400636173E+03  0.94835111367E+02 0.  0.
         24    2    1    2    0    0 -0.93296444313E+02  0.48585928122E+02  0.64482128848E+02  0.14778583267E+03  0.81350405437E+02 0.  0.
        -11    1    4    4    0    0 -0.68135924233E+02  0.37547196576E+02  0.83688294745E+02  0.11426297221E+03  0.00000000000E+00 0.  1.
         12    1    4    4    0    0 -0.25160520079E+02  0.11038731545E+02 -0.19206165897E+02  0.33522860457E+02  0.00000000000E+00 0. -1.
        -13    1    3    3    0    0  0.95205853796E+02 -0.42173064291E+02 -0.53867807869E+03  0.54864997440E+03  0.00000000000E+00 0.  1.
         13    1    3    3    0    0  0.11626215688E+02  0.36885066943E+02 -0.22201311731E+03  0.22535638733E+03  0.00000000000E+00 0. -1.
          1    1    1    2  501    0 -0.13535625171E+02 -0.43297930773E+02 -0.66979707354E+02  0.80896261689E+02  0.00000000000E+00 0. -1.
<scales pt_clust_5="13000.00000" pt_clust_6="13000.00000" pt_clust_7="13000.00000" pt_clust_8="13000.00000" pt_clust_9="45.36437"></scales>
<clustering>
<clus scale="   45.364">  1  9  2 -1</clus>
<clus scale="   81.350">  5  6 -1 -1</clus>
<clus scale="   94.835">  7  8 -1 -1</clus>
<clus scale="  133.875">  1  5  2 -1</clus>
<clus scale="   45.364">  1  5  2 -1</clus>
</clustering>
</event>
<event>
 9    2  0.1654290E-004  0.8896982E+02  0.7546771E-02  0.1308809E+00
         21   -1    0    0  501  502  0.00000000000E+00  0.00000000000E+00  0.16495197548E+03  0.16495197548E+03  0.00000000000E+00 0. -1.
          2   -1    0    0  502    0 -0.00000000000E+00 -0.00000000000E+00 -0.28802860306E+03  0.28802860306E+03  0.00000000000E+00 0. -1.
         23    2    1    2    0    0  0.25938376486E+02  0.67530765089E+01 -0.25432242864E+03  0.26972825795E+03  0.85761483254E+02 0.  0.
         24    2    1    2    0    0  0.33090773740E+01  0.76817162007E+01  0.47850353404E+02  0.93705810400E+02  0.80132164734E+02 0.  0.
        -11    1    4    4    0    0 -0.12720678773E+02  0.19858083191E+02 -0.14839430000E+02  0.27863377741E+02  0.00000000000E+00 0.  1.
         12    1    4    4    0    0  0.16029756147E+02 -0.12176366990E+02  0.62689783404E+02  0.65842432659E+02  0.00000000000E+00 0. -1.
        -13    1    3    3    0    0  0.24474405224E+02 -0.32325576814E+02 -0.19137168862E+03  0.19561968877E+03  0.00000000000E+00 0. -1.
         13    1    3    3    0    0  0.14639712622E+01  0.39078653323E+02 -0.62950740018E+02  0.74108569182E+02  0.00000000000E+00 0.  1.
          1    1    1    2  501    0 -0.29247453860E+02 -0.14434792710E+02  0.83395447655E+02  0.89546510191E+02  0.00000000000E+00 0. -1.
<scales pt_clust_5="13000.00000" pt_clust_6="13000.00000" pt_clust_7="13000.00000" pt_clust_8="13000.00000" pt_clust_9="32.61559"></scales>
<clustering>
<clus scale="   32.616">  1  9  2 -1</clus>
<clus scale="   80.132">  5  6 -1 -1</clus>
<clus scale="   83.557">  1  5  2 -1</clus>
<clus scale="   85.761">  7  8 -1 -1</clus>
<clus scale="   32.616">  1  5  2 -1</clus>
</clustering>
</event>
<event>
 9    2  0.1654290E-004  0.9628551E+02  0.7546771E-02  0.1296400E+00
         -3   -1    0    0    0  501 -0.00000000000E+00  0.00000000000E+00  0.69818039302E+02  0.69818039302E+02  0.00000000000E+00 0.  1.
         21   -1    0    0  501  502  0.00000000000E+00 -0.00000000000E+00 -0.19714852436E+03  0.19714852436E+03  0.00000000000E+00 0. -1.
         24    2    1    2    0    0 -0.56031041097E+01  0.23271403111E+02 -0.17433347965E+02  0.83926865630E+02  0.78529256807E+02 0.  0.
         23    2    1    2    0    0 -0.20547532615E+02 -0.29148240530E+02 -0.37982830099E+02  0.10629296801E+03  0.92648144305E+02 0.  0.
        -13    1    3    3    0    0  0.18479216349E+02  0.32703543958E+02  0.16694369026E+02  0.41106023664E+02  0.00000000000E+00 0.  1.
         14    1    3    3    0    0 -0.24082320459E+02 -0.94321408467E+01 -0.34127716991E+02  0.42820841966E+02  0.00000000000E+00 0. -1.
        -13    1    4    4    0    0 -0.16185015706E+02 -0.62488981675E+02 -0.32335687722E+02  0.72197120888E+02  0.00000000000E+00 0.  1.
         13    1    4    4    0    0 -0.43625169088E+01  0.33340741144E+02 -0.56471423776E+01  0.34095847120E+02  0.00000000000E+00 0. -1.
         -4    1    1    2    0  502  0.26150636724E+02  0.58768374190E+01 -0.71914306993E+02  0.76746730024E+02  0.00000000000E+00 0.  1.
<scales pt_clust_5="13000.00000" pt_clust_6="13000.00000" pt_clust_7="13000.00000" pt_clust_8="13000.00000" pt_clust_9="26.80285"></scales>
<clustering>
<clus scale="   26.803">  2  9  1 -1</clus>
<clus scale="   78.529">  5  6 -1 -1</clus>
<clus scale="   82.789">  1  5  2 -1</clus>
<clus scale="   92.648">  7  8 -1 -1</clus>
<clus scale="   26.803">  2  5  1 -1</clus>
</clustering>
</event>
<event>
 9    2  0.1654290E-004  0.1111068E+04  0.7546771E-02  0.9793181E-01
         21   -1    0    0  501  502  0.00000000000E+00  0.00000000000E+00  0.21856475993E+04  0.21856475993E+04  0.00000000000E+00 0.  1.
         -3   -1    0    0    0  501 -0.00000000000E+00 -0.00000000000E+00 -0.93656423047E+03  0.93656423047E+03  0.00000000000E+00 0.  1.
         23    2    1    2    0    0 -0.26721485943E+02  0.96940901894E+02 -0.15360335139E+03  0.20521832493E+03  0.91700572835E+02 0.  0.
         24    2    1    2    0    0 -0.10001422887E+04  0.36037245740E+03 -0.65283079273E+02  0.10680694793E+04  0.79734725698E+02 0.  0.
        -11    1    4    4    0    0 -0.15049071250E+03  0.84289223119E+02 -0.28891152027E+01  0.17251224498E+03  0.00000000000E+00 0.  1.
         12    1    4    4    0    0 -0.84965157616E+03  0.27608323428E+03 -0.62393964071E+02  0.89555723428E+03  0.00000000000E+00 0. -1.
        -11    1    3    3    0    0 -0.15897812308E+02  0.14874296554E+02 -0.10907084425E+03  0.11122245366E+03  0.00000000000E+00 0. -1.
         11    1    3    3    0    0 -0.10823673635E+02  0.82066605339E+02 -0.44532507144E+02  0.93995871268E+02  0.00000000000E+00 0.  1.
         -4    1    1    2    0  502  0.10268637746E+04 -0.45731335929E+03  0.14679697995E+04  0.18489240256E+04  0.00000000000E+00 0.  1.
<scales pt_clust_5="13000.00000" pt_clust_6="13000.00000" pt_clust_7="13000.00000" pt_clust_8="13000.00000" pt_clust_9="1108.20280"></scales>
<clustering>
<clus scale="   79.735">  5  6 -1 -1</clus>
<clus scale="   91.701">  7  8 -1 -1</clus>
<clus scale="  136.090">  2  7  1 -1</clus>
<clus scale=" 1108.203">  1  9  2 -1</clus>
<clus scale=" 1108.203">  1  5  2 -1</clus>
</clustering>
</event>
<event>
 9    2  0.1654290E-004  0.1929332E+03  0.7546771E-02  0.1157440E+00
          2   -1    0    0  502    0 -0.00000000000E+00  0.00000000000E+00  0.33594530042E+03  0.33594530042E+03  0.00000000000E+00 0. -1.
         21   -1    0    0  501  502  0.00000000000E+00 -0.00000000000E+00 -0.23978864078E+03  0.23978864078E+03  0.00000000000E+00 0. -1.
         23    2    1    2    0    0 -0.21493993782E+03  0.19317485544E+02  0.47178463226E+02  0.24062753664E+03  0.95412063590E+02 0.  0.
         24    2    1    2    0    0  0.10775681692E+03  0.15957242357E+02 -0.85170031981E+02  0.15981158143E+03  0.80122668677E+02 0.  0.
        -13    1    4    4    0    0  0.37297102851E+02  0.35830940541E+02 -0.61386058404E+01  0.52082748226E+02  0.00000000000E+00 0.  1.
         14    1    4    4    0    0  0.70459714068E+02 -0.19873698184E+02 -0.79031426140E+02  0.10772883321E+03  0.00000000000E+00 0. -1.
        -11    1    3    3    0    0 -0.17564235972E+03  0.29112758224E+01  0.73655046312E+02  0.19048301736E+03  0.00000000000E+00 0. -1.
         11    1    3    3    0    0 -0.39297578101E+02  0.16406209721E+02 -0.26476583085E+02  0.50144519281E+02  0.00000000000E+00 0.  1.
          1    1    1    2  501    0  0.10718312090E+03 -0.35274727901E+02  0.13414822839E+03  0.17529482313E+03  0.00000000000E+00 0. -1.
<scales pt_clust_5="13000.00000" pt_clust_6="13000.00000" pt_clust_7="13000.00000" pt_clust_8="13000.00000" pt_clust_9="112.83856"></scales>
<clustering>
<clus scale="   80.123">  5  6 -1 -1</clus>
<clus scale="   95.412">  7  8 -1 -1</clus>
<clus scale="  112.839">  2  9  1 -1</clus>
<clus scale="  185.848">  2  5  1 -1</clus>
<clus scale="  112.839">  2  5  1 -1</clus>
</clustering>
</event>
<event>
 9    2  0.1654290E-004  0.1149554E+03  0.7546771E-02  0.1254994E+00
         -3   -1    0    0    0  501 -0.00000000000E+00  0.00000000000E+00  0.23605971316E+03  0.23605971316E+03  0.00000000000E+00 0.  1.
         21   -1    0    0  501  502  0.00000000000E+00 -0.00000000000E+00 -0.15739261598E+03  0.15739261598E+03  0.00000000000E+00 0. -1.
         23    2    1    2    0    0  0.45357660099E+02  0.56329210299E+02  0.16106348921E+02  0.12145884164E+03  0.96242082664E+02 0.  0.
         24    2    1    2    0    0 -0.79307658711E+02  0.29771251868E+02 -0.45351984510E+02  0.12982791541E+03  0.87306660421E+02 0.  0.
        -11    1    4    4    0    0 -0.56171849982E+02  0.12208602109E+02  0.17916167064E+02  0.60210594900E+02  0.00000000000E+00 0.  1.
         12    1    4    4    0    0 -0.23135808728E+02  0.17562649759E+02 -0.63268151574E+02  0.69617320514E+02  0.00000000000E+00 0. -1.
        -11    1    3    3    0    0  0.41138605088E+01  0.48561532713E+02  0.48261359589E+02  0.68587937257E+02  0.00000000000E+00 0. -1.
         11    1    3    3    0    0  0.41243799590E+02  0.77676775856E+01 -0.32155010668E+02  0.52870904388E+02  0.00000000000E+00 0.  1.
         -4    1    1    2    0  502  0.33949998611E+02 -0.86100462167E+02  0.10791273277E+03  0.14216557208E+03  0.00000000000E+00 0.  1.
<scales pt_clust_5="13000.00000" pt_clust_6="13000.00000" pt_clust_7="13000.00000" pt_clust_8="13000.00000" pt_clust_9="92.55215"></scales>
<clustering>
<clus scale="   87.307">  5  6 -1 -1</clus>
<clus scale="   92.552">  2  9  1 -1</clus>
<clus scale="   96.242">  7  8 -1 -1</clus>
<clus scale="  107.586">  2  5  1 -1</clus>
<clus scale="   92.552">  2  5  1 -1</clus>
</clustering>
</event>
<event>
 9    2  0.1654290E-004  0.1420585E+03  0.7546771E-02  0.1213447E+00
          2   -1    0    0  502    0 -0.00000000000E+00  0.00000000000E+00  0.84519384842E+03  0.84519384842E+03  0.00000000000E+00 0. -1.
         21   -1    0    0  501  502  0.00000000000E+00 -0.00000000000E+00 -0.34056563846E+02  0.34056563846E+02  0.00000000000E+00 0. -1.
         23    2    1    2    0    0 -0.58357456393E+01 -0.11070702678E+03  0.45266322226E+03  0.47511555792E+03  0.92415901689E+02 0.  0.
         24    2    1    2    0    0 -0.42331520896E+02  0.10140221590E+03  0.23322396611E+03  0.26961997907E+03  0.78912278488E+02 0.  0.
        -11    1    4    4    0    0  0.38968759286E+01  0.30962571466E+02  0.14221242809E+03  0.14559615784E+03  0.00000000000E+00 0.  1.
         12    1    4    4    0    0 -0.46228396824E+02  0.70439644432E+02  0.91011538020E+02  0.12402382123E+03  0.00000000000E+00 0. -1.
        -13    1    3    3    0    0  0.33761433216E+02 -0.94092273654E+01  0.93851853530E+02  0.10018252514E+03  0.00000000000E+00 0.  1.
         13    1    3    3    0    0 -0.39597178856E+02 -0.10129779941E+03  0.35881136873E+03  0.37493303278E+03  0.00000000000E+00 0. -1.
          1    1    1    2  501    0  0.48167266535E+02  0.93048108806E+01  0.12525009620E+03  0.13451487527E+03  0.00000000000E+00 0. -1.
<scales pt_clust_5="13000.00000" pt_clust_6="13000.00000" pt_clust_7="13000.00000" pt_clust_8="13000.00000" pt_clust_9="49.05780"></scales>
<clustering>
<clus scale="   49.058">  2  9  1 -1</clus>
<clus scale="   78.912">  5  6 -1 -1</clus>
<clus scale="   92.416">  7  8 -1 -1</clus>
<clus scale="  133.668">  2  5  1 -1</clus>
<clus scale="   49.058">  2  5  1 -1</clus>
</clustering>
</event>
<event>
 9    2  0.1654290E-004  0.4710006E+03  0.7546771E-02  0.1021783E+00
         21   -1    0    0  501  502  0.00000000000E+00  0.00000000000E+00  0.10819392583E+04  0.10819392583E+04  0.00000000000E+00 0. -1.
          2   -1    0    0  502    0 -0.00000000000E+00 -0.00000000000E+00 -0.26431724891E+03  0.26431724891E+03  0.00000000000E+00 0. -1.
         24    2    1    2    0    0  0.24452805595E+03  0.45317625578E+03  0.27264288718E+03  0.58796581653E+03  0.78784316478E+02 0.  0.
         23    2    1    2    0    0 -0.19915586272E+03 -0.34471006858E+03  0.44604263323E+03  0.60462879386E+03  0.90187907572E+02 0.  0.
        -13    1    3    3    0    0  0.13432634146E+03  0.22596875811E+03  0.96289940169E+02  0.27995927959E+03  0.00000000000E+00 0.  1.
         14    1    3    3    0    0  0.11020171449E+03  0.22720749767E+03  0.17635294701E+03  0.30800653694E+03  0.00000000000E+00 0. -1.
        -11    1    4    4    0    0 -0.38377102243E+02 -0.10419165058E+03  0.74410376621E+02  0.13366228404E+03  0.00000000000E+00 0.  1.
         11    1    4    4    0    0 -0.16077876048E+03 -0.24051841800E+03  0.37163225661E+03  0.47096650982E+03  0.00000000000E+00 0. -1.
          1    1    1    2  501    0 -0.45372193225E+02 -0.10846618720E+03  0.98936488984E+02  0.15366189683E+03  0.00000000000E+00 0. -1.
<scales pt_clust_5="13000.00000" pt_clust_6="13000.00000" pt_clust_7="13000.00000" pt_clust_8="13000.00000" pt_clust_9="117.57359"></scales>
<clustering>
<clus scale="   78.784">  5  6 -1 -1</clus>
<clus scale="   90.188">  7  8 -1 -1</clus>
<clus scale="  117.574">  1  9  2 -1</clus>
<clus scale="  468.951">  2  5  1 -1</clus>
<clus scale="  117.574">  1  5  2 -1</clus>
</clustering>
</event>
<event>
 9    2  0.1654290E-004  0.9230860E+02  0.7546771E-02  0.1303227E+00
         21   -1    0    0  501  502  0.00000000000E+00  0.00000000000E+00  0.27717348807E+02  0.27717348807E+02  0.00000000000E+00 0.  1.
          2   -1    0    0  502    0 -0.00000000000E+00 -0.00000000000E+00 -0.48246606857E+03  0.48246606857E+03  0.00000000000E+00 0. -1.
         24    2    1    2    0    0  0.16345626592E+02  0.11919283264E+02 -0.26835035737E+03  0.28116289820E+03  0.81433483297E+02 0.  0.
         23    2    1    2    0    0 -0.12934357077E+02  0.19489604895E+02 -0.16786241193E+03  0.19239079798E+03  0.91045524421E+02 0.  0.
        -13    1    3    3    0    0 -0.11577909417E+02 -0.30678510708E+02 -0.96143988428E+02  0.10158191530E+03  0.00000000000E+00 0.  1.
         14    1    3    3    0    0  0.27923536009E+02  0.42597793972E+02 -0.17220636894E+03  0.17958098290E+03  0.00000000000E+00 0. -1.
        -11    1    4    4    0    0  0.25540079168E+02  0.25182440127E+02 -0.23497922937E+02  0.42878937918E+02  0.00000000000E+00 0.  1.
         11    1    4    4    0    0 -0.38474436245E+02 -0.56928352311E+01 -0.14436448900E+03  0.14951186007E+03  0.00000000000E+00 0. -1.
          1    1    1    2  501    0 -0.34112695141E+01 -0.31408888159E+02 -0.18535950458E+02  0.36629721190E+02  0.00000000000E+00 0. -1.
<scales pt_clust_5="13000.00000" pt_clust_6="13000.00000" pt_clust_7="13000.00000" pt_clust_8="13000.00000" pt_clust_9="31.59359"></scales>
<clustering>
<clus scale="   31.594">  1  9  2 -1</clus>
<clus scale="   81.433">  5  6 -1 -1</clus>
<clus scale="   82.843">  2  5  1 -1</clus>
<clus scale="   91.046">  7  8 -1 -1</clus>
<clus scale="   31.594">  1  5  2 -1</clus>
</clustering>
</event>
<event>
 9    2  0.1654290E-004  0.1330093E+03  0.7546771E-02  0.1228695E+00
          2   -1    0    0  502    0 -0.00000000000E+00  0.00000000000E+00  0.67572917294E+03  0.67572917294E+03  0.00000000000E+00 0. -1.
         21   -1    0    0  501  502  0.00000000000E+00 -0.00000000000E+00 -0.15237823530E+03  0.15237823530E+03  0.00000000000E+00 0.  1.
         23    2    1    2    0    0  0.30099928275E+02  0.85732340148E+02  0.55369138365E+03  0.56872849909E+03  0.92854281086E+02 0.  0.
         24    2    1    2    0    0 -0.49950518079E+02 -0.11019562911E+03  0.68427259247E+02  0.15570847930E+03  0.70176276512E+02 0.  0.
        -13    1    4    4    0    0 -0.59458475101E+02 -0.59056617973E+02  0.23654861683E+02  0.87077820764E+02  0.00000000000E+00 0.  1.
         14    1    4    4    0    0  0.95079570221E+01 -0.51139011138E+02  0.44772397564E+02  0.68630658532E+02  0.00000000000E+00 0. -1.
        -13    1    3    3    0    0 -0.18753598726E+02  0.77021823396E+02  0.30491850410E+03  0.31505452367E+03  0.00000000000E+00 0.  1.
         13    1    3    3    0    0  0.48853527001E+02  0.87105167523E+01  0.24877287956E+03  0.25367397542E+03  0.00000000000E+00 0. -1.
          1    1    1    2  501    0  0.19850589804E+02  0.24463288962E+02 -0.98767705259E+02  0.10367042985E+03  0.00000000000E+00 0. -1.
<scales pt_clust_5="13000.00000" pt_clust_6="13000.00000" pt_clust_7="13000.00000" pt_clust_8="13000.00000" pt_clust_9="31.50394"></scales>
<clustering>
<clus scale="   31.504">  2  9  1 -1</clus>
<clus scale="   70.176">  5  6 -1 -1</clus>
<clus scale="   92.854">  7  8 -1 -1</clus>
<clus scale="  118.297">  2  5  1 -1</clus>
<clus scale="   31.504">  2  5  1 -1</clus>
</clustering>
</event>
<event>
 9    2  0.1654290E-004  0.1679154E+03  0.7546771E-02  0.1180794E+00
          2   -1    0    0  502    0 -0.00000000000E+00  0.00000000000E+00  0.82910521517E+03  0.82910521517E+03  0.00000000000E+00 0. -1.
         21   -1    0    0  501  502  0.00000000000E+00 -0.00000000000E+00 -0.11032233496E+03  0.11032233496E+03  0.00000000000E+00 0. -1.
         23    2    1    2    0    0  0.12011296536E+03  0.89648097104E+02  0.63429568560E+03  0.65861539207E+03  0.94759232431E+02 0.  0.
         24    2    1    2    0    0 -0.54628700102E+02 -0.27806229091E+02 -0.49501451131E+02  0.11936382941E+03  0.89665204273E+02 0.  0.
        -13    1    4    4    0    0  0.21660310626E+02 -0.23829883172E+02 -0.13637749548E+02  0.34971711442E+02  0.00000000000E+00 0.  1.
         14    1    4    4    0    0 -0.76289010728E+02 -0.39763459193E+01 -0.35863701583E+02  0.84392117973E+02  0.00000000000E+00 0. -1.
        -13    1    3    3    0    0  0.34638793566E+02  0.80392489548E+02  0.25197987253E+03  0.26675204695E+03  0.00000000000E+00 0.  1.
         13    1    3    3    0    0  0.85474171795E+02  0.92556075559E+01  0.38231581308E+03  0.39186334511E+03  0.00000000000E+00 0. -1.
          1    1    1    2  501    0 -0.65484265259E+02 -0.61841868013E+02  0.13398864574E+03  0.16144832865E+03  0.00000000000E+00 0. -1.
<scales pt_clust_5="13000.00000" pt_clust_6="13000.00000" pt_clust_7="13000.00000" pt_clust_8="13000.00000" pt_clust_9="90.07005"></scales>
<clustering>
<clus scale="   89.665">  5  6 -1 -1</clus>
<clus scale="   90.070">  2  9  1 -1</clus>
<clus scale="   94.759">  7  8 -1 -1</clus>
<clus scale="  165.094">  2  5  1 -1</clus>
<clus scale="   90.070">  2  5  1 -1</clus>
</clustering>
</event>
<event>
 9    2  0.1654290E-004  0.2078185E+03  0.7546771E-02  0.1169426E+00
          2   -1    0    0  502    0 -0.00000000000E+00  0.00000000000E+00  0.38692978779E+03  0.38692978779E+03  0.00000000000E+00 0. -1.
         21   -1    0    0  501  502  0.00000000000E+00 -0.00000000000E+00 -0.19526339927E+03  0.19526339927E+03  0.00000000000E+00 0. -1.
         24    2    1    2    0    0 -0.76971557213E+02  0.11748303749E+02 -0.31764073460E+02  0.11707939619E+03  0.81461557738E+02 0.  0.
         23    2    1    2    0    0  0.20079583761E+03 -0.11334277704E+03  0.13645856519E+03  0.28285573138E+03  0.90669020362E+02 0.  0.
        -11    1    3    3    0    0 -0.66935297206E+02 -0.47067341085E+01  0.12994490309E+02  0.68347232105E+02  0.00000000000E+00 0.  1.
         12    1    3    3    0    0 -0.10036260006E+02  0.16455037858E+02 -0.44758563770E+02  0.48732164086E+02  0.00000000000E+00 0. -1.
        -11    1    4    4    0    0  0.16160401136E+03 -0.12659164040E+03  0.10314396291E+03  0.22973893225E+03  0.00000000000E+00 0. -1.
         11    1    4    4    0    0  0.39191826250E+02  0.13248863359E+02  0.33314602273E+02  0.53116799129E+02  0.00000000000E+00 0.  1.
          1    1    1    2  501    0 -0.12382428040E+03  0.10159447329E+03  0.86971896789E+02  0.18225805949E+03  0.00000000000E+00 0. -1.
<scales pt_clust_5="13000.00000" pt_clust_6="13000.00000" pt_clust_7="13000.00000" pt_clust_8="13000.00000" pt_clust_9="186.99644"></scales>
<clustering>
<clus scale="   81.462">  5  6 -1 -1</clus>
<clus scale="   90.669">  7  8 -1 -1</clus>
<clus scale="  112.688">  1  5  2 -1</clus>
<clus scale="  186.996">  2  9  1 -1</clus>
<clus scale="  186.996">  2  5  1 -1</clus>
</clustering>
</event>
<event>
 9    2  0.1654290E-004  0.1468572E+03  0.7546771E-02  0.1206690E+00
         21   -1    0    0  501  502  0.00000000000E+00  0.00000000000E+00  0.30037563417E+03  0.30037563417E+03  0.00000000000E+00 0.  1.
         -3   -1    0    0    0  501 -0.00000000000E+00 -0.00000000000E+00 -0.10174029372E+03  0.10174029372E+03  0.00000000000E+00 0.  1.
         24    2    1    2    0    0 -0.92527149147E+02  0.95174211813E+02  0.25211539046E+02  0.15679905110E+03  0.79567058524E+02 0.  0.
         23    2    1    2    0    0  0.56295169901E+02 -0.62565763693E+02  0.13250677765E+03  0.18167514487E+03  0.91455952232E+02 0.  0.
        -11    1    3    3    0    0 -0.79412378254E+02  0.47612220917E+02 -0.14172573943E+02  0.93670226074E+02  0.00000000000E+00 0.  1.
         12    1    3    3    0    0 -0.13114770894E+02  0.47561990896E+02  0.39384112990E+02  0.63128825029E+02  0.00000000000E+00 0. -1.
        -11    1    4    4    0    0  0.40018524331E+02  0.16525974954E+02  0.51747148786E+02  0.67471160841E+02  0.00000000000E+00 0.  1.
         11    1    4    4    0    0  0.16276645570E+02 -0.79091738646E+02  0.80759628864E+02  0.11420398403E+03  0.00000000000E+00 0. -1.
         -4    1    1    2    0  502  0.36231979246E+02 -0.32608448120E+02  0.40917023750E+02  0.63641731918E+02  0.00000000000E+00 0.  1.
<scales pt_clust_5="13000.00000" pt_clust_6="13000.00000" pt_clust_7="13000.00000" pt_clust_8="13000.00000" pt_clust_9="48.74492"></scales>
<clustering>
<clus scale="   48.745">  1  9  2 -1</clus>
<clus scale="   79.567">  5  6 -1 -1</clus>
<clus scale="   91.456">  7  8 -1 -1</clus>
<clus scale="  139.763">  2  5  1 -1</clus>
<clus scale="   48.745">  1  5  2 -1</clus>
</clustering>
</event>
<event>
 9    2  0.1654290E-004  0.1778380E+03  0.7546771E-02  0.1171813E+00
         21   -1    0    0  501  502  0.00000000000E+00  0.00000000000E+00  0.32086157451E+03  0.32086157451E+03  0.00000000000E+00 0.  1.
         -3   -1    0    0    0  501 -0.00000000000E+00 -0.00000000000E+00 -0.27290667469E+03  0.27290667469E+03  0.00000000000E+00 0.  1.
         23    2    1    2    0    0  0.53166103628E+02  0.14541582244E+03  0.31032759274E+02  0.18472110440E+03  0.95846013336E+02 0.  0.
         24    2    1    2    0    0 -0.12671459405E+03 -0.93752229717E+02  0.16087536902E+03  0.23933845543E+03  0.80968777750E+02 0.  0.
        -11    1    4    4    0    0 -0.71120782453E+02 -0.59184841405E+02  0.14495200965E+03  0.17196539260E+03  0.00000000000E+00 0.  1.
         12    1    4    4    0    0 -0.55593811594E+02 -0.34567388312E+02  0.15923359367E+02  0.67373062835E+02  0.00000000000E+00 0. -1.
        -11    1    3    3    0    0  0.80549121303E+02  0.12125735123E+03  0.25414715359E+02  0.14777487583E+03  0.00000000000E+00 0.  1.
         11    1    3    3    0    0 -0.27383017675E+02  0.24158471211E+02  0.56180439150E+01  0.36946228572E+02  0.00000000000E+00 0. -1.
         -4    1    1    2    0  502  0.73548490420E+02 -0.51663592721E+02 -0.14395322848E+03  0.16970868936E+03  0.00000000000E+00 0.  1.
<scales pt_clust_5="13000.00000" pt_clust_6="13000.00000" pt_clust_7="13000.00000" pt_clust_8="13000.00000" pt_clust_9="89.88056"></scales>
<clustering>
<clus scale="   80.969">  5  6 -1 -1</clus>
<clus scale="   89.881">  1  9  2 -1</clus>
<clus scale="   95.846">  7  8 -1 -1</clus>
<clus scale="  170.282">  1  5  2 -1</clus>
<clus scale="   89.881">  1  5  2 -1</clus>
</clustering>
</event>
<event>
 9    2  0.1654290E-004  0.9843477E+02  0.7546771E-02  0.1283672E+00
          2   -1    0    0  502    0 -0.00000000000E+00  0.00000000000E+00  0.45273986533E+03  0.45273986533E+03  0.00000000000E+00 0. -1.
         21   -1    0    0  501  502  0.00000000000E+00 -0.00000000000E+00 -0.49132874199E+02  0.49132874199E+02  0.00000000000E+00 0.  1.
         23    2    1    2    0    0 -0.10711453746E+02  0.15021331653E+02  0.18387856368E+03  0.20689696063E+03  0.93030374009E+02 0.  0.
         24    2    1    2    0    0  0.43071147393E+02 -0.57121674039E+02  0.71103900256E+02  0.13715043656E+03  0.92932600495E+02 0.  0.
        -11    1    4    4    0    0  0.59722084159E+02 -0.72192897060E+02  0.49405039551E+02  0.10592166754E+03  0.00000000000E+00 0.  1.
         12    1    4    4    0    0 -0.16650936766E+02  0.15071223020E+02  0.21698860706E+02  0.31228769019E+02  0.00000000000E+00 0. -1.
        -11    1    3    3    0    0 -0.17082955180E+01 -0.29872888258E+02  0.14108995580E+03  0.14422788688E+03  0.00000000000E+00 0. -1.
         11    1    3    3    0    0 -0.90031582281E+01  0.44894219912E+02  0.42788607883E+02  0.62669073745E+02  0.00000000000E+00 0.  1.
          1    1    1    2  501    0 -0.32359693647E+02  0.42100342386E+02  0.14862452719E+03  0.15782534234E+03  0.00000000000E+00 0. -1.
<scales pt_clust_5="13000.00000" pt_clust_6="13000.00000" pt_clust_7="13000.00000" pt_clust_8="13000.00000" pt_clust_9="53.09983"></scales>
<clustering>
<clus scale="   53.100">  2  9  1 -1</clus>
<clus scale="   92.933">  5  6 -1 -1</clus>
<clus scale="   93.030">  7  8 -1 -1</clus>
<clus scale="   98.342">  2  5  1 -1</clus>
<clus scale="   53.100">  2  5  1 -1</clus>
</clustering>
</event>
<event>
 9    2  0.1654290E-004  0.1005391E+03  0.7546771E-02  0.1284764E+00
         21   -1    0    0  501  502  0.00000000000E+00  0.00000000000E+00  0.49547426484E+02  0.49547426484E+02  0.00000000000E+00 0.  1.
          2   -1    0    0  502    0 -0.00000000000E+00 -0.00000000000E+00 -0.32002556881E+03  0.32002556881E+03  0.00000000000E+00 0. -1.
         24    2    1    2    0    0  0.24539032603E+02 -0.34183690581E+01 -0.89427319418E+02  0.12243867362E+03  0.79875740815E+02 0.  0.
         23    2    1    2    0    0 -0.67602872708E+02 -0.23536909203E+02 -0.11015248699E+03  0.15991244720E+03  0.91182706076E+02 0.  0.
        -13    1    3    3    0    0 -0.28141174133E+02 -0.91126057359E+01 -0.23016169890E+02  0.37479452255E+02  0.00000000000E+00 0.  1.
         14    1    3    3    0    0  0.52680206735E+02  0.56942366778E+01 -0.66411149528E+02  0.84959221363E+02  0.00000000000E+00 0. -1.
        -13    1    4    4    0    0 -0.22963856993E+02 -0.52284428950E+02 -0.32087648943E+02  0.65502804927E+02  0.00000000000E+00 0.  1.
         13    1    4    4    0    0 -0.44639015715E+02  0.28747519747E+02 -0.78064838045E+02  0.94409642275E+02  0.00000000000E+00 0. -1.
          1    1    1    2  501    0  0.43063840105E+02  0.26955278261E+02 -0.70898335919E+02  0.87221874474E+02  0.00000000000E+00 0. -1.
<scales pt_clust_5="13000.00000" pt_clust_6="13000.00000" pt_clust_7="13000.00000" pt_clust_8="13000.00000" pt_clust_9="50.80437"></scales>
<clustering>
<clus scale="   50.804">  1  9  2 -1</clus>
<clus scale="   79.876">  5  6 -1 -1</clus>
<clus scale="   90.410">  2  5  1 -1</clus>
<clus scale="   91.183">  7  8 -1 -1</clus>
<clus scale="   50.804">  1  5  2 -1</clus>
</clustering>
</event>
<event>
 9    2  0.1654290E-004  0.9479747E+02  0.7546771E-02  0.1297296E+00
         21   -1    0    0  501  502  0.00000000000E+00  0.00000000000E+00  0.49592294958E+02  0.49592294958E+02  0.00000000000E+00 0.  1.
          2   -1    0    0  502    0 -0.00000000000E+00 -0.00000000000E+00 -0.36023775609E+03  0.36023775609E+03  0.00000000000E+00 0. -1.
         23    2    1    2    0    0  0.10410265870E+02  0.39922199345E+02 -0.19945518669E+03  0.22238647239E+03  0.89281666483E+02 0.  0.
         24    2    1    2    0    0  0.37019736864E+02 -0.11145317461E+02 -0.38831642102E+02  0.96265260154E+02  0.79148119785E+02 0.  0.
        -11    1    4    4    0    0  0.45357210714E+02 -0.89192792029E+01 -0.58633919369E+02  0.74664359676E+02  0.00000000000E+00 0.  1.
         12    1    4    4    0    0 -0.83374738503E+01 -0.22260382579E+01  0.19802277267E+02  0.21600900478E+02  0.00000000000E+00 0. -1.
        -11    1    3    3    0    0  0.28838754607E+02 -0.20342268417E+02 -0.68479404004E+02  0.77038369819E+02  0.00000000000E+00 0. -1.
         11    1    3    3    0    0 -0.18428488737E+02  0.60264467762E+02 -0.13097578268E+03  0.14534810257E+03  0.00000000000E+00 0.  1.
          1    1    1    2  501    0 -0.47430002734E+02 -0.28776881884E+02 -0.72358632339E+02  0.91178318499E+02  0.00000000000E+00 0. -1.
<scales pt_clust_5="13000.00000" pt_clust_6="13000.00000" pt_clust_7="13000.00000" pt_clust_8="13000.00000" pt_clust_9="55.47718"></scales>
<clustering>
<clus scale="   55.477">  1  9  2 -1</clus>
<clus scale="   79.148">  5  6 -1 -1</clus>
<clus scale="   85.322">  1  5  2 -1</clus>
<clus scale="   89.282">  7  8 -1 -1</clus>
<clus scale="   55.477">  1  5  2 -1</clus>
</clustering>
</event>
<event>
 9    2  0.1654290E-004  0.1635010E+03  0.7546771E-02  0.1199556E+00
          2   -1    0    0  502    0 -0.00000000000E+00  0.00000000000E+00  0.11059993343E+04  0.11059993343E+04  0.00000000000E+00 0. -1.
         21   -1    0    0  501  502  0.00000000000E+00 -0.00000000000E+00 -0.15862974795E+03  0.15862974795E+03  0.00000000000E+00 0. -1.
         24    2    1    2    0    0  0.43881511753E+01  0.85793946270E+02  0.16767848854E+03  0.20512674173E+03  0.81123656028E+02 0.  0.
         23    2    1    2    0    0 -0.12826470675E+03 -0.49563566917E+02 -0.84716043158E+02  0.18551278293E+03  0.91267751700E+02 0.  0.
        -11    1    3    3    0    0 -0.29764167787E+02  0.75766917774E+02  0.10281637118E+03  0.13114014525E+03  0.00000000000E+00 0.  1.
         12    1    3    3    0    0  0.34152318962E+02  0.10027028496E+02  0.64862117355E+02  0.73986596480E+02  0.00000000000E+00 0. -1.
        -11    1    4    4    0    0 -0.22173195770E+02  0.21115406527E+01 -0.61277905724E+02  0.65200390677E+02  0.00000000000E+00 0. -1.
         11    1    4    4    0    0 -0.10609151098E+03 -0.51675107569E+02 -0.23438137435E+02  0.12031239225E+03  0.00000000000E+00 0.  1.
          1    1    1    2  501    0  0.12387655557E+03 -0.36230379354E+02  0.86440714094E+03  0.87398955756E+03  0.00000000000E+00 0. -1.
<scales pt_clust_5="13000.00000" pt_clust_6="13000.00000" pt_clust_7="13000.00000" pt_clust_8="13000.00000" pt_clust_9="135.65686"></scales>
<clustering>
<clus scale="   81.124">  5  6 -1 -1</clus>
<clus scale="   91.268">  7  8 -1 -1</clus>
<clus scale="  118.156">  1  5  2 -1</clus>
<clus scale="  135.657">  2  9  1 -1</clus>
<clus scale="  135.657">  2  5  1 -1</clus>
</clustering>
</event>
<event>
 9    2  0.1654290E-004  0.1144058E+03  0.7546771E-02  0.1257443E+00
         21   -1    0    0  501  502  0.00000000000E+00  0.00000000000E+00  0.63904207713E+03  0.63904207713E+03  0.00000000000E+00 0.  1.
         -3   -1    0    0    0  501 -0.00000000000E+00 -0.00000000000E+00 -0.60393908862E+02  0.60393908862E+02  0.00000000000E+00 0.  1.
         23    2    1    2    0    0  0.10437510833E+02 -0.57117910504E+02  0.53377596997E+02  0.12234092164E+03  0.93523985773E+02 0.  0.
         24    2    1    2    0    0  0.38017531746E+02  0.11166665341E+03  0.45067163750E+03  0.47274729282E+03  0.80438198720E+02 0.  0.
        -11    1    4    4    0    0  0.46849500222E+02  0.55681032161E+02  0.34745248387E+03  0.35499081898E+03  0.00000000000E+00 0.  1.
         12    1    4    4    0    0 -0.88319684758E+01  0.55985621249E+02  0.10321915363E+03  0.11775647384E+03  0.00000000000E+00 0. -1.
        -13    1    3    3    0    0 -0.31905932844E+02  0.39799938435E+00  0.37385093289E+02  0.49150708585E+02  0.00000000000E+00 0.  1.
         13    1    3    3    0    0  0.42343443677E+02 -0.57515909888E+02  0.15992503707E+02  0.73190213058E+02  0.00000000000E+00 0. -1.
         -4    1    1    2    0  502 -0.48455042579E+02 -0.54548742906E+02  0.74598933766E+02  0.10434777153E+03  0.00000000000E+00 0.  1.
<scales pt_clust_5="13000.00000" pt_clust_6="13000.00000" pt_clust_7="13000.00000" pt_clust_8="13000.00000" pt_clust_9="72.96206"></scales>
<clustering>
<clus scale="   72.962">  1  9  2 -1</clus>
<clus scale="   80.438">  5  6 -1 -1</clus>
<clus scale="   93.524">  7  8 -1 -1</clus>
<clus scale="  103.982">  1  5  2 -1</clus>
<clus scale="   72.962">  1  5  2 -1</clus>
</clustering>
</event>
<event>
 9    2  0.5550753E-004  0.3649237E+03  0.7546771E-02  0.1056886E+00
         -1   -1    0    0    0  501 -0.00000000000E+00  0.00000000000E+00  0.15498842152E+04  0.15498842152E+04  0.00000000000E+00 0.  1.
         21   -1    0    0  501  502  0.00000000000E+00 -0.00000000000E+00 -0.25836465445E+03  0.25836465445E+03  0.00000000000E+00 0.  1.
         23    2    1    2    0    0  0.34961572705E+03  0.51814068840E+02  0.12454517847E+04  0.12977492908E+04  0.89928967733E+02 0.  0.
         24    2    1    2    0    0 -0.34875092222E+03 -0.73004473581E+02 -0.87354442275E+02  0.37540231959E+03  0.79619369843E+02 0.  0.
        -13    1    4    4    0    0 -0.26552002944E+03 -0.87416766474E+02 -0.79183921657E+02  0.29053858702E+03  0.00000000000E+00 0.  1.
         14    1    4    4    0    0 -0.83230892774E+02  0.14412292892E+02 -0.81705206183E+01  0.84863732569E+02  0.00000000000E+00 0. -1.
        -11    1    3    3    0    0  0.27318996817E+03  0.58781469510E+02  0.84490829115E+03  0.88992024380E+03  0.00000000000E+00 0.  1.
         11    1    3    3    0    0  0.76425758874E+02 -0.69674006707E+01  0.40054349359E+03  0.40782904696E+03  0.00000000000E+00 0. -1.
         -2    1    1    2    0  502 -0.86480482962E+00  0.21190404742E+02  0.13342221826E+03  0.13509725928E+03  0.00000000000E+00 0.  1.
<scales pt_clust_5="13000.00000" pt_clust_6="13000.00000" pt_clust_7="13000.00000" pt_clust_8="13000.00000" pt_clust_9="21.20805"></scales>
<clustering>
<clus scale="   21.208">  2  9  1 -1</clus>
<clus scale="   79.619">  5  6 -1 -1</clus>
<clus scale="   89.929">  7  8 -1 -1</clus>
<clus scale="  362.521">  2  5  1 -1</clus>
<clus scale="   21.208">  2  5  1 -1</clus>
</clustering>
</event>
<event>
 9    2  0.1654290E-004  0.1268234E+03  0.7546771E-02  0.1233826E+00
          2   -1    0    0  502    0 -0.00000000000E+00  0.00000000000E+00  0.50548004012E+03  0.50548004012E+03  0.00000000000E+00 0. -1.
         21   -1    0    0  501  502  0.00000000000E+00 -0.00000000000E+00 -0.73115017756E+02  0.73115017756E+02  0.00000000000E+00 0. -1.
         23    2    1    2    0    0 -0.70599560862E+02 -0.48730221966E+02  0.41285710094E+03  0.43143466201E+03  0.91246639751E+02 0.  0.
         24    2    1    2    0    0  0.57169430470E+02  0.31361420313E+02  0.33299519346E+02  0.12123257593E+03  0.96626067988E+02 0.  0.
        -11    1    4    4    0    0  0.55405737634E+02  0.54564286483E+02  0.50124209639E+02  0.92517530847E+02  0.00000000000E+00 0.  1.
         12    1    4    4    0    0  0.17636928359E+01 -0.23202866170E+02 -0.16824690293E+02  0.28715045087E+02  0.00000000000E+00 0. -1.
        -13    1    3    3    0    0  0.20484421498E+02 -0.87414525914E+01  0.12255404633E+03  0.12456130535E+03  0.00000000000E+00 0.  1.
         13    1    3    3    0    0 -0.91083982360E+02 -0.39988769375E+02  0.29030305461E+03  0.30687335667E+03  0.00000000000E+00 0. -1.
          1    1    1    2  501    0  0.13430130392E+02  0.17368801653E+02 -0.13791597917E+02  0.25927819930E+02  0.00000000000E+00 0. -1.
<scales pt_clust_5="13000.00000" pt_clust_6="13000.00000" pt_clust_7="13000.00000" pt_clust_8="13000.00000" pt_clust_9="21.95549"></scales>
<clustering>
<clus scale="   21.955">  2  9  1 -1</clus>
<clus scale="   91.247">  7  8 -1 -1</clus>
<clus scale="   96.626">  5  6 -1 -1</clus>
<clus scale="  122.774">  1  7  2 -1</clus>
<clus scale="   21.955">  2  5  1 -1</clus>
</clustering>
</event>
<event>
 9    2  0.1654290E-004  0.2174187E+03  0.7546771E-02  0.1135822E+00
          4   -1    0    0  502    0 -0.00000000000E+00  0.00000000000E+00  0.78991377211E+02  0.78991377211E+02  0.00000000000E+00 0. -1.
         21   -1    0    0  501  502  0.00000000000E+00 -0.00000000000E+00 -0.38636273691E+03  0.38636273691E+03  0.00000000000E+00 0. -1.
         24    2    1    2    0    0  0.87087865411E+02 -0.11283796039E+02 -0.10878642590E+03  0.16037323696E+03  0.78571421754E+02 0.  0.
         23    2    1    2    0    0  0.39187289103E+02  0.13602816167E+02 -0.12466861822E+03  0.15864423032E+03  0.88910332413E+02 0.  0.
        -13    1    3    3    0    0 -0.63386293382E+01 -0.19359932026E+02 -0.59978510305E+01  0.21235804834E+02  0.00000000000E+00 0.  1.
         14    1    3    3    0    0  0.93426494749E+02  0.80761359870E+01 -0.10278857487E+03  0.13913743212E+03  0.00000000000E+00 0. -1.
        -13    1    4    4    0    0 -0.49240007719E+00 -0.21132633929E+02  0.21992899588E+01  0.21252471643E+02  0.00000000000E+00 0.  1.
         13    1    4    4    0    0  0.39679689181E+02  0.34735450096E+02 -0.12686790817E+03  0.13739175867E+03  0.00000000000E+00 0. -1.
          3    1    1    2  501    0 -0.12627515451E+03 -0.23190201277E+01 -0.73916315582E+02  0.14633664685E+03  0.00000000000E+00 0. -1.
<scales pt_clust_5="13000.00000" pt_clust_6="13000.00000" pt_clust_7="13000.00000" pt_clust_8="13000.00000" pt_clust_9="126.29651"></scales>
<clustering>
<clus scale="   78.571">  5  6 -1 -1</clus>
<clus scale="   88.910">  7  8 -1 -1</clus>
<clus scale="   93.901">  5  7 -1 -1</clus>
<clus scale="  126.297">  2  9  1 -1</clus>
<clus scale="  126.297">  2  5  1 -1</clus>
</clustering>
</event>
<event>
 9    2  0.1654290E-004  0.1923705E+03  0.7546771E-02  0.1157420E+00
          4   -1    0    0  502    0 -0.00000000000E+00  0.00000000000E+00  0.50949771193E+03  0.50949771193E+03  0.00000000000E+00 0. -1.
         21   -1    0    0  501  502  0.00000000000E+00 -0.00000000000E+00 -0.16722957403E+03  0.16722957403E+03  0.00000000000E+00 0. -1.
         23    2    1    2    0    0  0.68479923961E+02 -0.11954965220E+03  0.55642208897E+02  0.17376927521E+03  0.90100423243E+02 0.  0.
         24    2    1    2    0    0 -0.18551554243E+03  0.13672644605E+03  0.65818921199E+02  0.25246227640E+03  0.79340614337E+02 0.  0.
        -13    1    4    4    0    0 -0.13524819628E+03  0.84292686022E+02  0.80211881618E+02  0.17841322111E+03  0.00000000000E+00 0.  1.
         14    1    4    4    0    0 -0.50267346155E+02  0.52433760024E+02 -0.14392960419E+02  0.74049055290E+02  0.00000000000E+00 0. -1.
        -13    1    3    3    0    0  0.60604488217E+02 -0.50167346340E+02  0.66610167768E+02  0.10308530972E+03  0.00000000000E+00 0.  1.
         13    1    3    3    0    0  0.78754357442E+01 -0.69382305863E+02 -0.10967958871E+02  0.70683965486E+02  0.00000000000E+00 0. -1.
          3    1    1    2  501    0  0.11703561847E+03 -0.17176793843E+02  0.22080700780E+03  0.25049573436E+03  0.00000000000E+00 0. -1.
<scales pt_clust_5="13000.00000" pt_clust_6="13000.00000" pt_clust_7="13000.00000" pt_clust_8="13000.00000" pt_clust_9="118.28944"></scales>
<clustering>
<clus scale="   79.341">  5  6 -1 -1</clus>
<clus scale="   90.100">  7  8 -1 -1</clus>
<clus scale="  118.289">  2  9  1 -1</clus>
<clus scale="  187.572">  2  5  1 -1</clus>
<clus scale="  118.289">  2  5  1 -1</clus>
</clustering>
</event>
<event>
 9    2  0.1654290E-004  0.9297740E+02  0.7546771E-02  0.1300927E+00
         21   -1    0    0  501  502  0.00000000000E+00  0.00000000000E+00  0.29745275887E+03  0.29745275887E+03  0.00000000000E+00 0.  1.
          4   -1    0    0  502    0 -0.00000000000E+00 -0.00000000000E+00 -0.99252762759E+02  0.99252762759E+02  0.00000000000E+00 0. -1.
         23    2    1    2    0    0 -0.22324324637E+02 -0.29845011220E+02  0.16801876985E+02  0.98128953555E+02  0.89206996869E+02 0.  0.
         24    2    1    2    0    0  0.72087542552E+01 -0.28592022515E+02  0.21362498926E+03  0.23015187562E+03  0.80403855157E+02 0.  0.
        -13    1    4    4    0    0  0.21752210975E+02 -0.27826457590E+02  0.21264182522E+03  0.21555513507E+03  0.00000000000E+00 0.  1.
         14    1    4    4    0    0 -0.14543456720E+02 -0.76556492433E+00  0.98316404439E+00  0.14596740546E+02  0.00000000000E+00 0. -1.
        -13    1    3    3    0    0 -0.47663234422E+02 -0.33703102470E+02  0.33723198862E+02  0.67416149202E+02  0.00000000000E+00 0.  1.
         13    1    3    3    0    0  0.25338909785E+02  0.38580912496E+01 -0.16921321877E+02  0.30712804353E+02  0.00000000000E+00 0. -1.
          3    1    1    2  501    0  0.15115570382E+02  0.58437033735E+02 -0.32226870132E+02  0.68424692460E+02  0.00000000000E+00 0. -1.
<scales pt_clust_5="13000.00000" pt_clust_6="13000.00000" pt_clust_7="13000.00000" pt_clust_8="13000.00000" pt_clust_9="60.36034"></scales>
<clustering>
<clus scale="   60.360">  1  9  2 -1</clus>
<clus scale="   80.404">  5  6 -1 -1</clus>
<clus scale="   84.568">  1  5  2 -1</clus>
<clus scale="   89.207">  7  8 -1 -1</clus>
<clus scale="   60.360">  1  5  2 -1</clus>
</clustering>
</event>
<event>
 9    2  0.1654290E-004  0.2218169E+03  0.7546771E-02  0.1170297E+00
         21   -1    0    0  501  502  0.00000000000E+00  0.00000000000E+00  0.24300455510E+03  0.24300455510E+03  0.00000000000E+00 0.  1.
         -1   -1    0    0    0  501 -0.00000000000E+00 -0.00000000000E+00 -0.61429444261E+03  0.61429444261E+03  0.00000000000E+00 0.  1.
         24    2    1    2    0    0 -0.28826282959E+02 -0.29158911682E+02  0.82125788075E+02  0.12246263472E+03  0.81063278471E+02 0.  0.
         23    2    1    2    0    0  0.22381945152E+03  0.33458512060E+01 -0.47827907756E+03  0.53657683955E+03  0.95170831230E+02 0.  0.
        -11    1    3    3    0    0 -0.55818766311E+02 -0.30748838288E+02  0.55342259432E+02  0.84403740483E+02  0.00000000000E+00 0.  1.
         12    1    3    3    0    0  0.26992483352E+02  0.15899266065E+01  0.26783528642E+02  0.38058894238E+02  0.00000000000E+00 0. -1.
        -11    1    4    4    0    0  0.93862156305E+02 -0.22208212894E+02 -0.11609153206E+03  0.15093227926E+03  0.00000000000E+00 0. -1.
         11    1    4    4    0    0  0.12995729521E+03  0.25554064100E+02 -0.36218754549E+03  0.38564456029E+03  0.00000000000E+00 0.  1.
         -2    1    1    2    0  502 -0.19499316856E+03  0.25813060476E+02  0.24863401970E+02  0.19825952344E+03  0.00000000000E+00 0.  1.
<scales pt_clust_5="13000.00000" pt_clust_6="13000.00000" pt_clust_7="13000.00000" pt_clust_8="13000.00000" pt_clust_9="200.36280"></scales>
<clustering>
<clus scale="   81.063">  5  6 -1 -1</clus>
<clus scale="   90.843">  2  5  1 -1</clus>
<clus scale="   95.171">  7  8 -1 -1</clus>
<clus scale="  200.363">  1  9  2 -1</clus>
<clus scale="  200.363">  1  5  2 -1</clus>
</clustering>
</event>
<event>
 9    2  0.1654290E-004  0.1884605E+03  0.7546771E-02  0.1197290E+00
         21   -1    0    0  501  502  0.00000000000E+00  0.00000000000E+00  0.26839949698E+03  0.26839949698E+03  0.00000000000E+00 0. -1.
          2   -1    0    0  502    0 -0.00000000000E+00 -0.00000000000E+00 -0.36433487604E+03  0.36433487604E+03  0.00000000000E+00 0. -1.
         24    2    1    2    0    0  0.38770913150E+00 -0.83640594166E+01 -0.13220432011E+03  0.15507479621E+03  0.80623212256E+02 0.  0.
         23    2    1    2    0    0 -0.14385779100E+03  0.87763188443E+02 -0.13954238890E+03  0.23724845016E+03  0.91745885618E+02 0.  0.
        -11    1    3    3    0    0 -0.18371200842E+02 -0.38395242164E+02 -0.92817915258E+02  0.10211200240E+03  0.00000000000E+00 0.  1.
         12    1    3    3    0    0  0.18758909974E+02  0.30031182748E+02 -0.39386404851E+02  0.52962793806E+02  0.00000000000E+00 0. -1.
        -13    1    4    4    0    0 -0.14109712493E+03  0.44665719969E+02 -0.99342067055E+02  0.17824778116E+03  0.00000000000E+00 0. -1.
         13    1    4    4    0    0 -0.27606660732E+01  0.43097468474E+02 -0.40200321840E+02  0.59000668997E+02  0.00000000000E+00 0.  1.
          1    1    1    2  501    0  0.14347008187E+03 -0.79399129027E+02  0.17581132994E+03  0.24041112665E+03  0.00000000000E+00 0. -1.
<scales pt_clust_5="13000.00000" pt_clust_6="13000.00000" pt_clust_7="13000.00000" pt_clust_8="13000.00000" pt_clust_9="164.62095"></scales>
<clustering>
<clus scale="   80.623">  5  6 -1 -1</clus>
<clus scale="   81.057">  2  5  1 -1</clus>
<clus scale="   91.746">  7  8 -1 -1</clus>
<clus scale="  164.621">  1  9  2 -1</clus>
<clus scale="  164.621">  1  5  2 -1</clus>
</clustering>
</event>
<event>
 9    2  0.1654290E-004  0.2945920E+03  0.7546771E-02  0.1087976E+00
         -3   -1    0    0    0  501 -0.00000000000E+00  0.00000000000E+00  0.40071207522E+03  0.40071207522E+03  0.00000000000E+00 0.  1.
         21   -1    0    0  501  502  0.00000000000E+00 -0.00000000000E+00 -0.17581563043E+03  0.17581563043E+03  0.00000000000E+00 0.  1.
         24    2    1    2    0    0 -0.79447365864E+02 -0.22239375422E+02  0.60570107874E+02  0.12959624484E+03  0.79498270091E+02 0.  0.
         23    2    1    2    0    0 -0.15419375307E+03 -0.11042339387E+02  0.73285691514E+02  0.19398039021E+03  0.91432775648E+02 0.  0.
        -11    1    3    3    0    0 -0.72944999688E+02 -0.46008776843E+02  0.32298360281E+02  0.92092152776E+02  0.00000000000E+00 0.  1.
         12    1    3    3    0    0 -0.65023661759E+01  0.23769401420E+02  0.28271747594E+02  0.37504092067E+02  0.00000000000E+00 0. -1.
        -13    1    4    4    0    0 -0.77683757123E+01 -0.27504199791E+02 -0.17369276931E+01  0.28632945800E+02  0.00000000000E+00 0. -1.
         13    1    4    4    0    0 -0.14642537736E+03  0.16461860405E+02  0.75022619207E+02  0.16534744441E+03  0.00000000000E+00 0.  1.
         -4    1    1    2    0  502  0.23364111893E+03  0.33281714809E+02  0.91040645407E+02  0.25295107059E+03  0.00000000000E+00 0.  1.
<scales pt_clust_5="13000.00000" pt_clust_6="13000.00000" pt_clust_7="13000.00000" pt_clust_8="13000.00000" pt_clust_9="235.99967"></scales>
<clustering>
<clus scale="   79.498">  5  6 -1 -1</clus>
<clus scale="   91.433">  7  8 -1 -1</clus>
<clus scale="   93.729">  5  7 -1 -1</clus>
<clus scale="  236.000">  2  9  1 -1</clus>
<clus scale="  236.000">  2  5  1 -1</clus>
</clustering>
</event>
<event>
 9    2  0.1654290E-004  0.1248562E+03  0.7546771E-02  0.1240145E+00
          2   -1    0    0  502    0 -0.00000000000E+00  0.00000000000E+00  0.12179750539E+03  0.12179750539E+03  0.00000000000E+00 0. -1.
         21   -1    0    0  501  502  0.00000000000E+00 -0.00000000000E+00 -0.21724155895E+03  0.21724155895E+03  0.00000000000E+00 0.  1.
         23    2    1    2    0    0  0.39272017188E+02  0.79078417089E+02  0.42428176313E+02  0.13664070904E+03  0.95261985279E+02 0.  0.
         24    2    1    2    0    0 -0.45245966596E+02 -0.40712032085E+02 -0.12792336523E+03  0.16231534795E+03  0.79228894720E+02 0.  0.
        -13    1    4    4    0    0 -0.74875534093E+01 -0.54796924175E+02 -0.96449844762E+02  0.11118155832E+03  0.00000000000E+00 0.  1.
         14    1    4    4    0    0 -0.37758413186E+02  0.14084892090E+02 -0.31473520465E+02  0.51133789631E+02  0.00000000000E+00 0. -1.
        -11    1    3    3    0    0  0.63985752130E+02  0.74206656152E+02  0.50444703683E+02  0.11020649900E+03  0.00000000000E+00 0. -1.
         11    1    3    3    0    0 -0.24713734941E+02  0.48717609373E+01 -0.80165273703E+01  0.26434210040E+02  0.00000000000E+00 0.  1.
          1    1    1    2  501    0  0.59739494073E+01 -0.38366385004E+02 -0.99488646457E+01  0.40083007342E+02  0.00000000000E+00 0. -1.
<scales pt_clust_5="13000.00000" pt_clust_6="13000.00000" pt_clust_7="13000.00000" pt_clust_8="13000.00000" pt_clust_9="38.82871"></scales>
<clustering>
<clus scale="   38.829">  2  9  1 -1</clus>
<clus scale="   79.229">  5  6 -1 -1</clus>
<clus scale="   95.262">  7  8 -1 -1</clus>
<clus scale="  113.099">  2  5  1 -1</clus>
<clus scale="   38.829">  2  5  1 -1</clus>
</clustering>
</event>
<event>
 9    2  0.1654290E-004  0.1614916E+03  0.7546771E-02  0.1212829E+00
         21   -1    0    0  501  502  0.00000000000E+00  0.00000000000E+00  0.42169502920E+03  0.42169502920E+03  0.00000000000E+00 0. -1.
          2   -1    0    0  502    0 -0.00000000000E+00 -0.00000000000E+00 -0.21542221298E+03  0.21542221298E+03  0.00000000000E+00 0. -1.
         24    2    1    2    0    0 -0.46422540458E+02 -0.21226887108E+01  0.80894890069E+02  0.12264780811E+03  0.79617482528E+02 0.  0.
         23    2    1    2    0    0  0.50348509669E+02 -0.13416986788E+03 -0.13861026644E+03  0.21734851584E+03  0.86550826128E+02 0.  0.
        -13    1    3    3    0    0 -0.50705691821E+02  0.27532850833E+02  0.70117556445E+02  0.90805268458E+02  0.00000000000E+00 0.  1.
         14    1    3    3    0    0  0.42831513623E+01 -0.29655539543E+02  0.10777333624E+02  0.31842539648E+02  0.00000000000E+00 0. -1.
        -13    1    4    4    0    0 -0.64779382485E+01 -0.45955781195E+02 -0.38741885887E+01  0.46571523986E+02  0.00000000000E+00 0.  1.
         13    1    4    4    0    0  0.56826447918E+02 -0.88214086686E+02 -0.13473607785E+03  0.17077699186E+03  0.00000000000E+00 0. -1.
          1    1    1    2  501    0 -0.39259692109E+01  0.13629255659E+03  0.26398819259E+03  0.29712091822E+03  0.00000000000E+00 0. -1.
<scales pt_clust_5="13000.00000" pt_clust_6="13000.00000" pt_clust_7="13000.00000" pt_clust_8="13000.00000" pt_clust_9="136.33966"></scales>
<clustering>
<clus scale="   79.617">  5  6 -1 -1</clus>
<clus scale="   86.551">  7  8 -1 -1</clus>
<clus scale="   92.187">  2  5  1 -1</clus>
<clus scale="  136.340">  1  9  2 -1</clus>
<clus scale="  136.340">  1  5  2 -1</clus>
</clustering>
</event>
<event>
 9    2  0.1654290E-004  0.1121651E+03  0.7546771E-02  0.1261863E+00
         -1   -1    0    0    0  501 -0.00000000000E+00  0.00000000000E+00  0.59702588898E+03  0.59702588898E+03  0.00000000000E+00 0.  1.
         21   -1    0    0  501  502  0.00000000000E+00 -0.00000000000E+00 -0.25990957030E+02  0.25990957030E+02  0.00000000000E+00 0. -1.
         23    2    1    2    0    0  0.65097568695E+02 -0.37614373714E+02  0.29990561399E+03  0.32244017599E+03  0.91497296305E+02 0.  0.
         24    2    1    2    0    0 -0.34229979579E+02  0.44808315737E+02  0.17803453524E+03  0.20223441344E+03  0.77607896372E+02 0.  0.
        -11    1    4    4    0    0 -0.57892861361E+02  0.19202684587E+02  0.10953500482E+03  0.12537242031E+03  0.00000000000E+00 0.  1.
         12    1    4    4    0    0  0.23662881782E+02  0.25605631149E+02  0.68499530418E+02  0.76861993133E+02  0.00000000000E+00 0. -1.
        -13    1    3    3    0    0  0.23648377519E+02 -0.45773345323E+02  0.25742516372E+03  0.26253030267E+03  0.00000000000E+00 0.  1.
         13    1    3    3    0    0  0.41449191176E+02  0.81589716095E+01  0.42480450271E+02  0.59909873327E+02  0.00000000000E+00 0. -1.
         -2    1    1    2    0  502 -0.30867589116E+02 -0.71939420230E+01  0.93094782720E+02  0.98342256580E+02  0.00000000000E+00 0.  1.
<scales pt_clust_5="13000.00000" pt_clust_6="13000.00000" pt_clust_7="13000.00000" pt_clust_8="13000.00000" pt_clust_9="31.69482"></scales>
<clustering>
<clus scale="   31.695">  2  9  1 -1</clus>
<clus scale="   77.608">  5  6 -1 -1</clus>
<clus scale="   91.497">  7  8 -1 -1</clus>
<clus scale="  101.154">  2  5  1 -1</clus>
<clus scale="   31.695">  2  5  1 -1</clus>
</clustering>
</event>
<event>
 9    2  0.1654290E-004  0.2763539E+03  0.7546771E-02  0.1097697E+00
         21   -1    0    0  501  502  0.00000000000E+00  0.00000000000E+00  0.40507838087E+02  0.40507838087E+02  0.00000000000E+00 0. -1.
          2   -1    0    0  502    0 -0.00000000000E+00 -0.00000000000E+00 -0.14352233466E+04  0.14352233466E+04  0.00000000000E+00 0. -1.
         24    2    1    2    0    0  0.40301059452E+02  0.11899411876E+03 -0.51624056965E+03  0.53735121714E+03  0.80363107931E+02 0.  0.
         23    2    1    2    0    0 -0.27617131048E+02  0.82851426042E+02 -0.37686772481E+03  0.39753590205E+03  0.91533855437E+02 0.  0.
        -11    1    3    3    0    0 -0.13722873086E+02  0.82999588539E+02 -0.28187065788E+03  0.29415695932E+03  0.00000000000E+00 0.  1.
         12    1    3    3    0    0  0.54023932538E+02  0.35994530220E+02 -0.23436991178E+03  0.24319425782E+03  0.00000000000E+00 0. -1.
        -11    1    4    4    0    0 -0.53057293261E+01  0.20409890269E+02 -0.76836911310E+01  0.22444453521E+02  0.00000000000E+00 0.  1.
         11    1    4    4    0    0 -0.22311401722E+02  0.62441535773E+02 -0.36918403368E+03  0.37509144853E+03  0.00000000000E+00 0. -1.
          1    1    1    2  501    0 -0.12683928404E+02 -0.20184554480E+03 -0.50160721408E+03  0.54084406552E+03  0.00000000000E+00 0. -1.
<scales pt_clust_5="13000.00000" pt_clust_6="13000.00000" pt_clust_7="13000.00000" pt_clust_8="13000.00000" pt_clust_9="202.24368"></scales>
<clustering>
<clus scale="   80.363">  5  6 -1 -1</clus>
<clus scale="   91.534">  7  8 -1 -1</clus>
<clus scale="  108.051">  5  7 -1 -1</clus>
<clus scale="  202.244">  1  9  2 -1</clus>
<clus scale="  202.244">  1  5  2 -1</clus>
</clustering>
</event>
<event>
 9    2  0.1654290E-004  0.1414588E+03  0.7546771E-02  0.1230544E+00
         21   -1    0    0  501  502  0.00000000000E+00  0.00000000000E+00  0.29129547928E+03  0.29129547928E+03  0.00000000000E+00 0. -1.
          2   -1    0    0  502    0 -0.00000000000E+00 -0.00000000000E+00 -0.10913762274E+03  0.10913762274E+03  0.00000000000E+00 0. -1.
         23    2    1    2    0    0 -0.11487923972E+00 -0.11608799453E+02  0.67834110978E+02  0.11645090712E+03  0.93939181045E+02 0.  0.
         24    2    1    2    0    0 -0.11741695251E+03  0.17545252909E+02  0.68579234310E+02  0.15772241007E+03  0.77965829846E+02 0.  0.
        -11    1    4    4    0    0 -0.87354728570E+02 -0.51924702652E+01  0.79762648477E+02  0.11840561829E+03  0.00000000000E+00 0.  1.
         12    1    4    4    0    0 -0.30062223940E+02  0.22737723174E+02 -0.11183414167E+02  0.39316791779E+02  0.00000000000E+00 0. -1.
        -11    1    3    3    0    0 -0.32300387521E+02  0.71019271995E+01  0.71761229533E+02  0.79015355900E+02  0.00000000000E+00 0. -1.
         11    1    3    3    0    0  0.32185508281E+02 -0.18710726653E+02 -0.39271185548E+01  0.37435551222E+02  0.00000000000E+00 0.  1.
          1    1    1    2  501    0  0.11753183175E+03 -0.59364534553E+01  0.45744511261E+02  0.12625978483E+03  0.00000000000E+00 0. -1.
<scales pt_clust_5="13000.00000" pt_clust_6="13000.00000" pt_clust_7="13000.00000" pt_clust_8="13000.00000" pt_clust_9="118.03362"></scales>
<clustering>
<clus scale="   77.966">  5  6 -1 -1</clus>
<clus scale="   93.939">  7  8 -1 -1</clus>
<clus scale="   94.654">  2  7  1 -1</clus>
<clus scale="  118.034">  1  9  2 -1</clus>
<clus scale="  118.034">  1  5  2 -1</clus>
</clustering>
</event>
<event>
 9    2  0.1654290E-004  0.1215085E+03  0.7546771E-02  0.1244368E+00
          2   -1    0    0  502    0 -0.00000000000E+00  0.00000000000E+00  0.12498959455E+04  0.12498959455E+04  0.00000000000E+00 0. -1.
         21   -1    0    0  501  502  0.00000000000E+00 -0.00000000000E+00 -0.17437645065E+02  0.17437645065E+02  0.00000000000E+00 0. -1.
         24    2    1    2    0    0 -0.29293542758E+02  0.67259622445E+02  0.79980398682E+03  0.80719844213E+03  0.80628401929E+02 0.  0.
         23    2    1    2    0    0  0.41717159105E+02 -0.84204677429E+02  0.40098617167E+03  0.42213051258E+03  0.92593254152E+02 0.  0.
        -13    1    3    3    0    0 -0.15754559333E+02  0.56297298070E+02  0.23625954226E+03  0.24338480483E+03  0.00000000000E+00 0.  1.
         14    1    3    3    0    0 -0.13538983425E+02  0.10962324375E+02  0.56354444455E+03  0.56381363731E+03  0.00000000000E+00 0. -1.
        -11    1    4    4    0    0  0.66399941004E+02 -0.48146190888E+02  0.31722319557E+03  0.32765464085E+03  0.00000000000E+00 0. -1.
         11    1    4    4    0    0 -0.24682781898E+02 -0.36058486541E+02  0.83762976097E+02  0.94475871726E+02  0.00000000000E+00 0.  1.
          1    1    1    2  501    0 -0.12423616347E+02  0.16945054983E+02  0.31668141930E+02  0.38004635833E+02  0.00000000000E+00 0. -1.
<scales pt_clust_5="13000.00000" pt_clust_6="13000.00000" pt_clust_7="13000.00000" pt_clust_8="13000.00000" pt_clust_9="21.01145"></scales>
<clustering>
<clus scale="   21.011">  2  9  1 -1</clus>
<clus scale="   80.628">  5  6 -1 -1</clus>
<clus scale="   92.593">  7  8 -1 -1</clus>
<clus scale="  112.658">  1  5  2 -1</clus>
<clus scale="   21.011">  2  5  1 -1</clus>
</clustering>
</event>
<event>
 9    2  0.1654290E-004  0.8493184E+02  0.7546771E-02  0.1317001E+00
         21   -1    0    0  501  502  0.00000000000E+00  0.00000000000E+00  0.50598308619E+02  0.50598308619E+02  0.00000000000E+00 0. -1.
         -1   -1    0    0    0  501 -0.00000000000E+00 -0.00000000000E+00 -0.26149815799E+03  0.26149815799E+03  0.00000000000E+00 0.  1.
         23    2    1    2    0    0 -0.22839819622E+02  0.49830537245E+00 -0.17470086063E+03  0.19430954164E+03  0.81938401253E+02 0.  0.
         24    2    1    2    0    0  0.17007935235E+02 -0.24285489682E+02 -0.38069860656E+02  0.93223920782E+02  0.79764216573E+02 0.  0.
        -11    1    4    4    0    0 -0.20734341354E+02 -0.20823584882E+01  0.14063739365E+02  0.25140363824E+02  0.00000000000E+00 0.  1.
         12    1    4    4    0    0  0.37742276589E+02 -0.22203131194E+02 -0.52133600020E+02  0.68083556958E+02  0.00000000000E+00 0. -1.
        -13    1    3    3    0    0  0.23573533384E+02 -0.17450066471E+01 -0.12103579043E+03  0.12332241925E+03  0.00000000000E+00 0.  1.
         13    1    3    3    0    0 -0.46413353006E+02  0.22433120195E+01 -0.53665070198E+02  0.70987122391E+02  0.00000000000E+00 0. -1.
         -2    1    1    2    0  502  0.58318843869E+01  0.23787184310E+02  0.18708719141E+01  0.24563004186E+02  0.00000000000E+00 0.  1.
<scales pt_clust_5="13000.00000" pt_clust_6="13000.00000" pt_clust_7="13000.00000" pt_clust_8="13000.00000" pt_clust_9="24.49165"></scales>
<clustering>
<clus scale="   24.492">  1  9  2 -1</clus>
<clus scale="   79.764">  5  6 -1 -1</clus>
<clus scale="   81.938">  7  8 -1 -1</clus>
<clus scale="   82.836">  1  5  2 -1</clus>
<clus scale="   24.492">  1  5  2 -1</clus>
</clustering>
</event>
<event>
 9    2  0.1654290E-004  0.1155896E+03  0.7546771E-02  0.1250587E+00
         21   -1    0    0  501  502  0.00000000000E+00  0.00000000000E+00  0.15457101032E+03  0.15457101032E+03  0.00000000000E+00 0. -1.
         -3   -1    0    0    0  501 -0.00000000000E+00 -0.00000000000E+00 -0.16306787175E+03  0.16306787175E+03  0.00000000000E+00 0.  1.
         24    2    1    2    0    0  0.49389403456E+02  0.52962277891E+02 -0.67821698310E+02  0.12975053694E+03  0.83612816127E+02 0.  0.
         23    2    1    2    0    0 -0.63613610611E+02 -0.70387751308E+02  0.22559838953E+01  0.12654644124E+03  0.83712516013E+02 0.  0.
        -11    1    3    3    0    0  0.50360213070E+02  0.21684673030E+01 -0.59975963597E+02  0.78345194622E+02  0.00000000000E+00 0.  1.
         12    1    3    3    0    0 -0.97080961431E+00  0.50793810588E+02 -0.78457347126E+01  0.51405342316E+02  0.00000000000E+00 0. -1.
        -11    1    4    4    0    0 -0.49165220731E+02 -0.32475752733E+02  0.39931923686E+02  0.71179013581E+02  0.00000000000E+00 0. -1.
         11    1    4    4    0    0 -0.14448389879E+02 -0.37911998575E+02 -0.37675939791E+02  0.55367427656E+02  0.00000000000E+00 0.  1.
         -4    1    1    2    0  502  0.14224207155E+02  0.17425473417E+02  0.57068852983E+02  0.61341903897E+02  0.00000000000E+00 0.  1.
<scales pt_clust_5="13000.00000" pt_clust_6="13000.00000" pt_clust_7="13000.00000" pt_clust_8="13000.00000" pt_clust_9="22.49389"></scales>
<clustering>
<clus scale="   22.494">  1  9  2 -1</clus>
<clus scale="   83.613">  5  6 -1 -1</clus>
<clus scale="   83.713">  7  8 -1 -1</clus>
<clus scale="  115.517">  2  5  1 -1</clus>
<clus scale="   22.494">  1  5  2 -1</clus>
</clustering>
</event>
<event>
 9    2  0.1654290E-004  0.1365781E+03  0.7546771E-02  0.1220606E+00
          4   -1    0    0  502    0 -0.00000000000E+00  0.00000000000E+00  0.21323589950E+03  0.21323589950E+03  0.00000000000E+00 0. -1.
         21   -1    0    0  501  502  0.00000000000E+00 -0.00000000000E+00 -0.27740254109E+03  0.27740254109E+03  0.00000000000E+00 0.  1.
         23    2    1    2    0    0 -0.84886331972E+02  0.78858424449E+02  0.41078605409E+02  0.15241987994E+03  0.90111195291E+02 0.  0.
         24    2    1    2    0    0  0.57046807020E+02 -0.14843249887E+02 -0.19862855223E+03  0.22162772302E+03  0.78682180890E+02 0.  0.
        -13    1    4    4    0    0  0.42277531261E+02 -0.76066230478E+01 -0.20052263268E+03  0.20507212532E+03  0.00000000000E+00 0.  1.
         14    1    4    4    0    0  0.14769275760E+02 -0.72366268389E+01  0.18940804510E+01  0.16555597701E+02  0.00000000000E+00 0. -1.
        -11    1    3    3    0    0 -0.40461451576E+02 -0.13233428378E+02  0.95318453215E+00  0.42581231207E+02  0.00000000000E+00 0. -1.
         11    1    3    3    0    0 -0.44424880395E+02  0.92091852827E+02  0.40125420877E+02  0.10983864873E+03  0.00000000000E+00 0.  1.
          3    1    1    2  501    0  0.27839524951E+02 -0.64015174562E+02  0.93383305227E+02  0.11659083763E+03  0.00000000000E+00 0. -1.
<scales pt_clust_5="13000.00000" pt_clust_6="13000.00000" pt_clust_7="13000.00000" pt_clust_8="13000.00000" pt_clust_9="69.80678"></scales>
<clustering>
<clus scale="   69.807">  2  9  1 -1</clus>
<clus scale="   78.682">  5  6 -1 -1</clus>
<clus scale="   90.111">  7  8 -1 -1</clus>
<clus scale="  129.323">  2  5  1 -1</clus>
<clus scale="   69.807">  2  5  1 -1</clus>
</clustering>
</event>
<event>
 9    2  0.1654290E-004  0.1332336E+03  0.7546771E-02  0.1224768E+00
         21   -1    0    0  501  502  0.00000000000E+00  0.00000000000E+00  0.18960096453E+03  0.18960096453E+03  0.00000000000E+00 0. -1.
         -1   -1    0    0    0  501 -0.00000000000E+00 -0.00000000000E+00 -0.36068495359E+03  0.36068495359E+03  0.00000000000E+00 0.  1.
         23    2    1    2    0    0  0.10280746189E+03 -0.40267407980E+02 -0.20880958200E+03  0.25229557102E+03  0.88661013168E+02 0.  0.
         24    2    1    2    0    0 -0.74595852024E+02  0.43784614730E+02 -0.10169887462E+03  0.15569682009E+03  0.80107459471E+02 0.  0.
        -13    1    4    4    0    0  0.39911302874E+01  0.34704825342E+02 -0.50712230618E+02  0.61579902218E+02  0.00000000000E+00 0.  1.
         14    1    4    4    0    0 -0.78586982312E+02  0.90797893881E+01 -0.50986644000E+02  0.94116917877E+02  0.00000000000E+00 0. -1.
        -13    1    3    3    0    0  0.93404375467E+02 -0.19017984844E+02 -0.20827622352E+03  0.22905249701E+03  0.00000000000E+00 0.  1.
         13    1    3    3    0    0  0.94030864249E+01 -0.21249423136E+02 -0.53335847535E+00  0.23243074005E+02  0.00000000000E+00 0. -1.
         -2    1    1    2    0  502 -0.28211609867E+02 -0.35172067500E+01  0.13942446755E+03  0.14229352700E+03  0.00000000000E+00 0.  1.
<scales pt_clust_5="13000.00000" pt_clust_6="13000.00000" pt_clust_7="13000.00000" pt_clust_8="13000.00000" pt_clust_9="28.43001"></scales>
<clustering>
<clus scale="   28.430">  1  9  2 -1</clus>
<clus scale="   80.107">  5  6 -1 -1</clus>
<clus scale="   88.661">  7  8 -1 -1</clus>
<clus scale="  127.701">  1  5  2 -1</clus>
<clus scale="   28.430">  1  5  2 -1</clus>
</clustering>
</event>
<event>
 9    2  0.1654290E-004  0.1061388E+03  0.7546771E-02  0.1269907E+00
          2   -1    0    0  502    0 -0.00000000000E+00  0.00000000000E+00  0.47796136301E+03  0.47796136301E+03  0.00000000000E+00 0. -1.
         21   -1    0    0  501  502  0.00000000000E+00 -0.00000000000E+00 -0.55194400659E+02  0.55194400659E+02  0.00000000000E+00 0. -1.
         24    2    1    2    0    0 -0.56325153356E+01 -0.35531774448E+02  0.19948541774E+03  0.21951739730E+03  0.84256890532E+02 0.  0.
         23    2    1    2    0    0  0.16350139034E+02  0.10544075314E+03  0.19009688648E+03  0.23551439889E+03  0.89135438339E+02 0.  0.
        -13    1    3    3    0    0 -0.16404881587E+02 -0.57763484786E+02  0.96882097211E+02  0.11398193311E+03  0.00000000000E+00 0.  1.
         14    1    3    3    0    0  0.10772366252E+02  0.22231710338E+02  0.10260332053E+03  0.10553546419E+03  0.00000000000E+00 0. -1.
        -13    1    4    4    0    0 -0.18397719571E+02  0.13484880395E+02  0.98654229718E+02  0.10125697569E+03  0.00000000000E+00 0.  1.
         13    1    4    4    0    0  0.34747858605E+02  0.91955872741E+02  0.91442656763E+02  0.13425742320E+03  0.00000000000E+00 0. -1.
          1    1    1    2  501    0 -0.10717623699E+02 -0.69908978689E+02  0.33184658132E+02  0.78123967478E+02  0.00000000000E+00 0. -1.
<scales pt_clust_5="13000.00000" pt_clust_6="13000.00000" pt_clust_7="13000.00000" pt_clust_8="13000.00000" pt_clust_9="70.72576"></scales>
<clustering>
<clus scale="   70.726">  2  9  1 -1</clus>
<clus scale="   84.257">  5  6 -1 -1</clus>
<clus scale="   89.135">  7  8 -1 -1</clus>
<clus scale="  102.076">  1  5  2 -1</clus>
<clus scale="   70.726">  2  5  1 -1</clus>
</clustering>
</event>
<event>
 9    2  0.1654290E-004  0.1247818E+03  0.7546771E-02  0.1238775E+00
          2   -1    0    0  502    0 -0.00000000000E+00  0.00000000000E+00  0.22916182820E+03  0.22916182820E+03  0.00000000000E+00 0. -1.
         21   -1    0    0  501  502  0.00000000000E+00 -0.00000000000E+00 -0.56867672794E+03  0.56867672794E+03  0.00000000000E+00 0. -1.
         24    2    1    2    0    0 -0.40825680277E+02  0.83813048380E+02  0.17635714754E+03  0.21599060817E+03  0.82817486553E+02 0.  0.
         23    2    1    2    0    0  0.60683337191E+02  0.19266422261E+02 -0.95072683284E+02  0.14815242280E+03  0.94109844521E+02 0.  0.
        -11    1    3    3    0    0 -0.60345391895E+02  0.44105556686E+02  0.77437259357E+02  0.10762618450E+03  0.00000000000E+00 0.  1.
         12    1    3    3    0    0  0.19519711618E+02  0.39707491694E+02  0.98919888185E+02  0.10836442367E+03  0.00000000000E+00 0. -1.
        -11    1    4    4    0    0  0.47334506940E+02  0.52495328073E+02 -0.36632049857E+02  0.79612951795E+02  0.00000000000E+00 0. -1.
         11    1    4    4    0    0  0.13348830251E+02 -0.33228905812E+02 -0.58440633427E+02  0.68539471007E+02  0.00000000000E+00 0.  1.
          1    1    1    2  501    0 -0.19857656914E+02 -0.10307947064E+03 -0.42079936400E+03  0.43369552517E+03  0.00000000000E+00 0. -1.
<scales pt_clust_5="13000.00000" pt_clust_6="13000.00000" pt_clust_7="13000.00000" pt_clust_8="13000.00000" pt_clust_9="104.97478"></scales>
<clustering>
<clus scale="   82.817">  5  6 -1 -1</clus>
<clus scale="   94.110">  7  8 -1 -1</clus>
<clus scale="  104.975">  2  9  1 -1</clus>
<clus scale="  116.501">  1  5  2 -1</clus>
<clus scale="  104.975">  2  5  1 -1</clus>
</clustering>
</event>
<event>
 9    2  0.1654290E-004  0.9397288E+02  0.7546771E-02  0.1299874E+00
         21   -1    0    0  501  502  0.00000000000E+00  0.00000000000E+00  0.32416375239E+03  0.32416375239E+03  0.00000000000E+00 0.  1.
          2   -1    0    0  502    0 -0.00000000000E+00 -0.00000000000E+00 -0.67266059779E+02  0.67266059779E+02  0.00000000000E+00 0. -1.
         24    2    1    2    0    0  0.24591783283E+02 -0.28912709088E+01 -0.22648797416E+02  0.87335734530E+02  0.80631552441E+02 0.  0.
         23    2    1    2    0    0 -0.45210389493E+01  0.13228357147E+00  0.17385850492E+03  0.19648182468E+03  0.91421389222E+02 0.  0.
        -11    1    3    3    0    0 -0.67563965438E+01  0.25566312108E+02  0.15238411609E+02  0.30520393140E+02  0.00000000000E+00 0.  1.
         12    1    3    3    0    0  0.31348179827E+02 -0.28457583017E+02 -0.37887209025E+02  0.56815341390E+02  0.00000000000E+00 0. -1.
        -13    1    4    4    0    0  0.34117687817E+02 -0.19437355542E+02  0.12580176284E+03  0.13178737020E+03  0.00000000000E+00 0.  1.
         13    1    4    4    0    0 -0.38638726766E+02  0.19569639114E+02  0.48056742081E+02  0.64694454481E+02  0.00000000000E+00 0. -1.
          1    1    1    2  501    0 -0.20070744334E+02  0.27589873373E+01  0.10568798511E+03  0.10761225295E+03  0.00000000000E+00 0. -1.
<scales pt_clust_5="13000.00000" pt_clust_6="13000.00000" pt_clust_7="13000.00000" pt_clust_8="13000.00000" pt_clust_9="20.25949"></scales>
<clustering>
<clus scale="   20.259">  1  9  2 -1</clus>
<clus scale="   80.632">  5  6 -1 -1</clus>
<clus scale="   83.513">  2  5  1 -1</clus>
<clus scale="   91.421">  7  8 -1 -1</clus>
<clus scale="   20.259">  1  5  2 -1</clus>
</clustering>
</event>
<event>
 9    2  0.1654290E-004  0.3123445E+03  0.7546771E-02  0.1079820E+00
          2   -1    0    0  502    0 -0.00000000000E+00  0.00000000000E+00  0.23388056159E+04  0.23388056159E+04  0.00000000000E+00 0. -1.
         21   -1    0    0  501  502  0.00000000000E+00 -0.00000000000E+00 -0.52694323927E+02  0.52694323927E+02  0.00000000000E+00 0. -1.
         24    2    1    2    0    0  0.81217490632E+02 -0.25695940830E+03  0.94452484075E+03  0.98541439832E+03  0.79309162917E+02 0.  0.
         23    2    1    2    0    0 -0.10279967770E+03  0.31953150969E+03  0.10324813172E+04  0.10899731524E+04  0.96724573648E+02 0.  0.
        -11    1    3    3    0    0  0.40534220119E+02 -0.32639065457E+02  0.20807603924E+03  0.21448536011E+03  0.00000000000E+00 0.  1.
         12    1    3    3    0    0  0.40683270512E+02 -0.22432034284E+03  0.73644880151E+03  0.77092903821E+03  0.00000000000E+00 0. -1.
        -11    1    4    4    0    0 -0.53492411190E+02  0.15508331904E+03  0.65588973084E+03  0.67609438167E+03  0.00000000000E+00 0. -1.
         11    1    4    4    0    0 -0.49307266507E+02  0.16444819065E+03  0.37659158632E+03  0.41387877068E+03  0.00000000000E+00 0.  1.
          1    1    1    2  501    0  0.21582187065E+02 -0.62572101393E+02  0.30910513402E+03  0.31611238911E+03  0.00000000000E+00 0. -1.
<scales pt_clust_5="13000.00000" pt_clust_6="13000.00000" pt_clust_7="13000.00000" pt_clust_8="13000.00000" pt_clust_9="66.18960"></scales>
<clustering>
<clus scale="   66.190">  2  9  1 -1</clus>
<clus scale="   79.309">  5  6 -1 -1</clus>
<clus scale="   96.725">  7  8 -1 -1</clus>
<clus scale="  307.398">  1  5  2 -1</clus>
<clus scale="   66.190">  2  5  1 -1</clus>
</clustering>
</event>
<event>
 9    2  0.1654290E-004  0.1354787E+03  0.7546771E-02  0.1225254E+00
         21   -1    0    0  501  502  0.00000000000E+00  0.00000000000E+00  0.70216319530E+02  0.70216319530E+02  0.00000000000E+00 0.  1.
          2   -1    0    0  502    0 -0.00000000000E+00 -0.00000000000E+00 -0.64635538117E+03  0.64635538117E+03  0.00000000000E+00 0. -1.
         23    2    1    2    0    0  0.59197068093E+02 -0.68948792440E+02 -0.22995372727E+03  0.26389003195E+03  0.92200886274E+02 0.  0.
         24    2    1    2    0    0 -0.32485095692E+02  0.12914202450E+03 -0.63421650955E+02  0.16235072773E+03  0.67841794264E+02 0.  0.
        -11    1    4    4    0    0  0.36681299970E+01  0.10596960491E+03 -0.39190172717E+02  0.11304371712E+03  0.00000000000E+00 0.  1.
         12    1    4    4    0    0 -0.36153225689E+02  0.23172419591E+02 -0.24231478238E+02  0.49307010607E+02  0.00000000000E+00 0. -1.
        -13    1    3    3    0    0  0.49023843969E+02  0.41212555145E+01 -0.13473160356E+03  0.14343265675E+03  0.00000000000E+00 0. -1.
         13    1    3    3    0    0  0.10173224124E+02 -0.73070047954E+02 -0.95222123705E+02  0.12045737520E+03  0.00000000000E+00 0.  1.
          1    1    1    2  501    0 -0.26711972401E+02 -0.60193232061E+02 -0.28276368342E+03  0.29033094102E+03  0.00000000000E+00 0. -1.
<scales pt_clust_5="13000.00000" pt_clust_6="13000.00000" pt_clust_7="13000.00000" pt_clust_8="13000.00000" pt_clust_9="65.85407"></scales>
<clustering>
<clus scale="   65.854">  1  9  2 -1</clus>
<clus scale="   67.842">  5  6 -1 -1</clus>
<clus scale="   92.201">  7  8 -1 -1</clus>
<clus scale="  120.233">  1  5  2 -1</clus>
<clus scale="   65.854">  1  5  2 -1</clus>
</clustering>
</event>
<event>
 9    2  0.1654290E-004  0.2070262E+03  0.7546771E-02  0.1145081E+00
          4   -1    0    0  502    0 -0.00000000000E+00  0.00000000000E+00  0.51868929758E+03  0.51868929758E+03  0.00000000000E+00 0. -1.
         21   -1    0    0  501  502  0.00000000000E+00 -0.00000000000E+00 -0.13747713779E+03  0.13747713779E+03  0.00000000000E+00 0. -1.
         23    2    1    2    0    0 -0.19347083475E+03 -0.62796337703E+02  0.36396099602E+03  0.42588630077E+03  0.86816995046E+02 0.  0.
         24    2    1    2    0    0  0.13122231559E+03  0.66774793452E+02 -0.45368300952E+01  0.16420878738E+03  0.72565652175E+02 0.  0.
        -13    1    4    4    0    0  0.38998324067E+02  0.23208220000E+02 -0.35498652108E+02  0.57616361019E+02  0.00000000000E+00 0.  1.
         14    1    4    4    0    0  0.92223991526E+02  0.43566573451E+02  0.30961822012E+02  0.10659242636E+03  0.00000000000E+00 0. -1.
        -13    1    3    3    0    0 -0.22416725852E+02  0.20925255827E+02  0.53675607009E+02  0.61817851120E+02  0.00000000000E+00 0.  1.
         13    1    3    3    0    0 -0.17105410890E+03 -0.83721593529E+02  0.31028538901E+03  0.36406844965E+03  0.00000000000E+00 0. -1.
          3    1    1    2  501    0  0.62248519157E+02 -0.39784557490E+01  0.21787993860E+02  0.66071347223E+02  0.00000000000E+00 0. -1.
<scales pt_clust_5="13000.00000" pt_clust_6="13000.00000" pt_clust_7="13000.00000" pt_clust_8="13000.00000" pt_clust_9="62.37553"></scales>
<clustering>
<clus scale="   62.376">  2  9  1 -1</clus>
<clus scale="   72.566">  5  6 -1 -1</clus>
<clus scale="   86.817">  7  8 -1 -1</clus>
<clus scale="  201.466">  2  5  1 -1</clus>
<clus scale="   62.376">  2  5  1 -1</clus>
</clustering>
</event>
<event>
 9    2  0.1654290E-004  0.9418138E+02  0.7546771E-02  0.1293033E+00
         21   -1    0    0  501  502  0.00000000000E+00  0.00000000000E+00  0.62931661614E+02  0.62931661614E+02  0.00000000000E+00 0. -1.
          2   -1    0    0  502    0 -0.00000000000E+00 -0.00000000000E+00 -0.11269031509E+04  0.11269031509E+04  0.00000000000E+00 0. -1.
         24    2    1    2    0    0 -0.16398659265E+02 -0.86494318401E+01 -0.92277875342E+03  0.92744764903E+03  0.91075711511E+02 0.  0.
         23    2    1    2    0    0  0.44631482826E+02  0.47283653503E+02 -0.17220272700E+03  0.20536686049E+03  0.91071702807E+02 0.  0.
        -11    1    3    3    0    0 -0.25291998151E+02  0.29302478735E+02 -0.20570686506E+03  0.20931706754E+03  0.00000000000E+00 0.  1.
         12    1    3    3    0    0  0.88933388860E+01 -0.37951910575E+02 -0.71707188836E+03  0.71813058149E+03  0.00000000000E+00 0. -1.
        -13    1    4    4    0    0  0.43486591040E+02 -0.27013795400E+01 -0.13819089648E+03  0.14489687685E+03  0.00000000000E+00 0. -1.
         13    1    4    4    0    0  0.11448917869E+01  0.49985033043E+02 -0.34011830524E+02  0.60469983638E+02  0.00000000000E+00 0.  1.
          1    1    1    2  501    0 -0.28232823561E+02 -0.38634221663E+02  0.31009991102E+02  0.57020303032E+02  0.00000000000E+00 0. -1.
<scales pt_clust_5="13000.00000" pt_clust_6="13000.00000" pt_clust_7="13000.00000" pt_clust_8="13000.00000" pt_clust_9="47.85076"></scales>
<clustering>
<clus scale="   47.851">  1  9  2 -1</clus>
<clus scale="   91.072">  7  8 -1 -1</clus>
<clus scale="   91.076">  5  6 -1 -1</clus>
<clus scale="   94.178">  1  7  2 -1</clus>
<clus scale="   47.851">  1  5  2 -1</clus>
</clustering>
</event>
<event>
 9    2  0.1654290E-004  0.1371499E+03  0.7546771E-02  0.1221649E+00
         21   -1    0    0  501  502  0.00000000000E+00  0.00000000000E+00  0.29620598862E+03  0.29620598862E+03  0.00000000000E+00 0. -1.
          2   -1    0    0  502    0 -0.00000000000E+00 -0.00000000000E+00 -0.44315871188E+03  0.44315871188E+03  0.00000000000E+00 0. -1.
         24    2    1    2    0    0 -0.53006847306E+02  0.73571951876E+02 -0.13890721052E+03  0.18683586870E+03  0.85964357345E+02 0.  0.
         23    2    1    2    0    0  0.93413724355E+02  0.52718351424E+02  0.23693820172E+03  0.27396290285E+03  0.86084912883E+02 0.  0.
        -11    1    3    3    0    0 -0.67001213718E+02  0.60004826380E+02 -0.66515901127E+02  0.11186646920E+03  0.00000000000E+00 0.  1.
         12    1    3    3    0    0  0.13994366413E+02  0.13567125496E+02 -0.72391309391E+02  0.74969399497E+02  0.00000000000E+00 0. -1.
        -11    1    4    4    0    0  0.55448249046E+02  0.63810357515E+02  0.97602349755E+02  0.12912199164E+03  0.00000000000E+00 0.  1.
         11    1    4    4    0    0  0.37965475309E+02 -0.11092006091E+02  0.13933585197E+03  0.14484091120E+03  0.00000000000E+00 0. -1.
          1    1    1    2  501    0 -0.40406877050E+02 -0.12629030330E+03 -0.24498371446E+03  0.27856592895E+03  0.00000000000E+00 0. -1.
<scales pt_clust_5="13000.00000" pt_clust_6="13000.00000" pt_clust_7="13000.00000" pt_clust_8="13000.00000" pt_clust_9="106.76841"></scales>
<clustering>
<clus scale="   85.964">  5  6 -1 -1</clus>
<clus scale="   86.085">  7  8 -1 -1</clus>
<clus scale="  124.950">  2  5  1 -1</clus>
<clus scale="  106.768">  1  9  2 -1</clus>
<clus scale="  106.768">  1  5  2 -1</clus>
</clustering>
</event>
<event>
 9    2  0.1654290E-004  0.9404061E+02  0.7546771E-02  0.1299861E+00
         21   -1    0    0  501  502  0.00000000000E+00  0.00000000000E+00  0.12355267031E+03  0.12355267031E+03  0.00000000000E+00 0. -1.
         -1   -1    0    0    0  501 -0.00000000000E+00 -0.00000000000E+00 -0.23815970783E+03  0.23815970783E+03  0.00000000000E+00 0.  1.
         24    2    1    2    0    0  0.22935550564E+02  0.69198274433E+01 -0.17418605876E+03  0.19296119427E+03  0.79494125158E+02 0.  0.
         23    2    1    2    0    0 -0.34816391870E+02  0.17864041147E+02 -0.47065981657E+01  0.98836697568E+02  0.90637936930E+02 0.  0.
        -13    1    3    3    0    0  0.35737077423E+02 -0.21936116691E+02 -0.14123662728E+03  0.14732995894E+03  0.00000000000E+00 0.  1.
         14    1    3    3    0    0 -0.12801526860E+02  0.28855944134E+02 -0.32949431483E+02  0.45631235320E+02  0.00000000000E+00 0. -1.
        -13    1    4    4    0    0  0.29700889940E+02  0.48538216290E+01  0.93944013897E+01  0.31527087165E+02  0.00000000000E+00 0.  1.
         13    1    4    4    0    0 -0.64517281810E+02  0.13010219518E+02 -0.14100999555E+02  0.67309610402E+02  0.00000000000E+00 0. -1.
         -2    1    1    2    0  502  0.11880841306E+02 -0.24783868591E+02  0.64285619404E+02  0.69914486300E+02  0.00000000000E+00 0.  1.
<scales pt_clust_5="13000.00000" pt_clust_6="13000.00000" pt_clust_7="13000.00000" pt_clust_8="13000.00000" pt_clust_9="27.48444"></scales>
<clustering>
<clus scale="   27.484">  1  9  2 -1</clus>
<clus scale="   79.494">  5  6 -1 -1</clus>
<clus scale="   83.353">  2  5  1 -1</clus>
<clus scale="   90.638">  7  8 -1 -1</clus>
<clus scale="   27.484">  1  5  2 -1</clus>
</clustering>
</event>
<event>
 9    2  0.1654290E-004  0.2768612E+03  0.7546771E-02  0.1123189E+00
          4   -1    0    0  502    0 -0.00000000000E+00  0.00000000000E+00  0.11785844395E+04  0.11785844395E+04  0.00000000000E+00 0. -1.
         21   -1    0    0  501  502  0.00000000000E+00 -0.00000000000E+00 -0.12757519045E+03  0.12757519045E+03  0.00000000000E+00 0. -1.
         24    2    1    2    0    0 -0.11867213033E+03  0.11277564880E+02  0.24535719708E+03  0.28431079857E+03  0.80138742427E+02 0.  0.
         23    2    1    2    0    0 -0.68902832100E+01  0.25510932922E+03  0.16734275647E+03  0.31887895027E+03  0.92476704743E+02 0.  0.
        -11    1    3    3    0    0 -0.10078609878E+03 -0.21532416291E+02  0.15094932379E+03  0.18277631414E+03  0.00000000000E+00 0.  1.
         12    1    3    3    0    0 -0.17886031549E+02  0.32809981170E+02  0.94407873283E+02  0.10153448442E+03  0.00000000000E+00 0. -1.
        -11    1    4    4    0    0 -0.45437093555E+02  0.13823228425E+03  0.11353229633E+03  0.18455968192E+03  0.00000000000E+00 0.  1.
         11    1    4    4    0    0  0.38546810345E+02  0.11687704497E+03  0.53810460147E+02  0.13431926835E+03  0.00000000000E+00 0. -1.
          3    1    1    2  501    0  0.12556241354E+03 -0.26638689410E+03  0.63830929550E+03  0.70296988112E+03  0.00000000000E+00 0. -1.
<scales pt_clust_5="13000.00000" pt_clust_6="13000.00000" pt_clust_7="13000.00000" pt_clust_8="13000.00000" pt_clust_9="260.96020"></scales>
<clustering>
<clus scale="   80.139">  5  6 -1 -1</clus>
<clus scale="   92.477">  7  8 -1 -1</clus>
<clus scale="  143.640">  1  5  2 -1</clus>
<clus scale="  260.960">  2  9  1 -1</clus>
<clus scale="  260.960">  2  5  1 -1</clus>
</clustering>
</event>
<event>
 9    2  0.1654290E-004  0.1021110E+03  0.7546771E-02  0.1280816E+00
         21   -1    0    0  501  502  0.00000000000E+00  0.00000000000E+00  0.55645020875E+02  0.55645020875E+02  0.00000000000E+00 0. -1.
         -3   -1    0    0    0  501 -0.00000000000E+00 -0.00000000000E+00 -0.30949882352E+03  0.30949882352E+03  0.00000000000E+00 0.  1.
         24    2    1    2    0    0 -0.75443915500E+01 -0.38725898953E+02 -0.19201809165E+03  0.21235676279E+03  0.81656806760E+02 0.  0.
         23    2    1    2    0    0  0.28090650422E+02  0.56273536649E+02 -0.57802320621E+02  0.12546792019E+03  0.91898287029E+02 0.  0.
        -13    1    3    3    0    0 -0.14246400794E+01 -0.59551340199E+02 -0.89125476315E+02  0.10719954406E+03  0.00000000000E+00 0.  1.
         14    1    3    3    0    0 -0.61197514706E+01  0.20825441246E+02 -0.10289261533E+03  0.10515721873E+03  0.00000000000E+00 0. -1.
        -11    1    4    4    0    0 -0.16607255541E+01  0.44434918897E+02  0.14190511694E+02  0.46675375188E+02  0.00000000000E+00 0. -1.
         11    1    4    4    0    0  0.29751375976E+02  0.11838617752E+02 -0.71992832315E+02  0.78792545000E+02  0.00000000000E+00 0.  1.
         -4    1    1    2    0  502 -0.20546258872E+02 -0.17547637696E+02 -0.40333903741E+01  0.27319161412E+02  0.00000000000E+00 0.  1.
<scales pt_clust_5="13000.00000" pt_clust_6="13000.00000" pt_clust_7="13000.00000" pt_clust_8="13000.00000" pt_clust_9="27.01978"></scales>
<clustering>
<clus scale="   27.020">  1  9  2 -1</clus>
<clus scale="   81.657">  5  6 -1 -1</clus>
<clus scale="   91.898">  7  8 -1 -1</clus>
<clus scale="   93.001">  2  5  1 -1</clus>
<clus scale="   27.020">  1  5  2 -1</clus>
</clustering>
</event>
<event>
 9    2  0.1654290E-004  0.1482498E+03  0.7546771E-02  0.1204544E+00
         -3   -1    0    0    0  501 -0.00000000000E+00  0.00000000000E+00  0.86796435118E+03  0.86796435118E+03  0.00000000000E+00 0.  1.
         21   -1    0    0  501  502  0.00000000000E+00 -0.00000000000E+00 -0.52875276046E+02  0.52875276046E+02  0.00000000000E+00 0. -1.
         23    2    1    2    0    0 -0.10818620449E+03 -0.76415833182E+02  0.61342719898E+03  0.63410988764E+03  0.90877867273E+02 0.  0.
         24    2    1    2    0    0  0.31740666161E+02  0.71588480254E+02  0.64640528082E+02  0.12975180006E+03  0.80775933024E+02 0.  0.
        -13    1    4    4    0    0  0.26363066384E+02  0.79117060793E+02  0.77543248738E+02  0.11387482603E+03  0.00000000000E+00 0.  1.
         14    1    4    4    0    0  0.53775997774E+01 -0.75285805392E+01 -0.12902720656E+02  0.15876974039E+02  0.00000000000E+00 0. -1.
        -13    1    3    3    0    0 -0.82152733592E+02 -0.96118990776E+02  0.51963486963E+03  0.53479746611E+03  0.00000000000E+00 0.  1.
         13    1    3    3    0    0 -0.26033470898E+02  0.19703157594E+02  0.93792329350E+02  0.99312421535E+02  0.00000000000E+00 0. -1.
         -4    1    1    2    0  502  0.76445538330E+02  0.48273529274E+01  0.13702134808E+03  0.15697793952E+03  0.00000000000E+00 0.  1.
<scales pt_clust_5="13000.00000" pt_clust_6="13000.00000" pt_clust_7="13000.00000" pt_clust_8="13000.00000" pt_clust_9="76.59780"></scales>
<clustering>
<clus scale="   76.598">  2  9  1 -1</clus>
<clus scale="   80.776">  5  6 -1 -1</clus>
<clus scale="   90.878">  7  8 -1 -1</clus>
<clus scale="  142.281">  2  5  1 -1</clus>
<clus scale="   76.598">  2  5  1 -1</clus>
</clustering>
</event>
<event>
 9    2  0.2014817E-004  0.1176380E+03  0.7546771E-02  0.1249961E+00
         21   -1    0    0  501  502  0.00000000000E+00  0.00000000000E+00  0.73882626978E+02  0.73882626978E+02  0.00000000000E+00 0.  1.
         -1   -1    0    0    0  501 -0.00000000000E+00 -0.00000000000E+00 -0.63968571455E+03  0.63968571455E+03  0.00000000000E+00 0.  1.
         23    2    1    2    0    0 -0.71176443904E+02 -0.35518554022E+02 -0.57417178701E+03  0.58639315352E+03  0.88634280326E+02 0.  0.
         24    2    1    2    0    0  0.46871188301E+02  0.39376744564E+02 -0.21497271634E+01  0.10041199720E+03  0.79564511871E+02 0.  0.
        -13    1    4    4    0    0 -0.13319603624E+02  0.28018544829E+02 -0.19631558722E+02  0.36713060250E+02  0.00000000000E+00 0.  1.
         14    1    4    4    0    0  0.60190791924E+02  0.11358199735E+02  0.17481831559E+02  0.63698936948E+02  0.00000000000E+00 0. -1.
        -11    1    3    3    0    0 -0.72727958436E+02  0.74942716400E+01 -0.42044800436E+03  0.42675759444E+03  0.00000000000E+00 0. -1.
         11    1    3    3    0    0  0.15515145327E+01 -0.43012825662E+02 -0.15372378266E+03  0.15963555908E+03  0.00000000000E+00 0.  1.
         -2    1    1    2    0  502  0.24305255603E+02 -0.38581905420E+01  0.10518426602E+02  0.26763190811E+02  0.00000000000E+00 0.  1.
<scales pt_clust_5="13000.00000" pt_clust_6="13000.00000" pt_clust_7="13000.00000" pt_clust_8="13000.00000" pt_clust_9="24.60957"></scales>
<clustering>
<clus scale="   24.610">  1  9  2 -1</clus>
<clus scale="   79.565">  5  6 -1 -1</clus>
<clus scale="   88.634">  7  8 -1 -1</clus>
<clus scale="  110.965">  1  5  2 -1</clus>
<clus scale="   24.610">  1  5  2 -1</clus>
</clustering>
</event>
<event>
 9    2  0.1654290E-004  0.1218914E+03  0.7546771E-02  0.1243110E+00
         21   -1    0    0  501  502  0.00000000000E+00  0.00000000000E+00  0.30041836955E+03  0.30041836955E+03  0.00000000000E+00 0. -1.
          2   -1    0    0  502    0 -0.00000000000E+00 -0.00000000000E+00 -0.46882081129E+03  0.46882081129E+03  0.00000000000E+00 0. -1.
         24    2    1    2    0    0 -0.17608857020E+02  0.77080899081E+02 -0.41077696102E+03  0.42610765575E+03  0.81107864803E+02 0.  0.
         23    2    1    2    0    0 -0.23348850318E+02 -0.11478831934E+03  0.74259602914E+02  0.16603830546E+03  0.91283641394E+02 0.  0.
        -11    1    3    3    0    0  0.23467530421E+02  0.52083164517E+02 -0.14194246795E+03  0.15300668357E+03  0.00000000000E+00 0.  1.
         12    1    3    3    0    0 -0.41076387440E+02  0.24997734564E+02 -0.26883449307E+03  0.27310097218E+03  0.00000000000E+00 0. -1.
        -11    1    4    4    0    0  0.26322787006E+02 -0.29746314379E+02  0.51356376990E+02  0.64924647034E+02  0.00000000000E+00 0.  1.
         11    1    4    4    0    0 -0.49671637324E+02 -0.85042004959E+02  0.22903225924E+02  0.10111365842E+03  0.00000000000E+00 0. -1.
          1    1    1    2  501    0  0.40957707338E+02  0.37707420258E+02  0.16811491637E+03  0.17709321963E+03  0.00000000000E+00 0. -1.
<scales pt_clust_5="13000.00000" pt_clust_6="13000.00000" pt_clust_7="13000.00000" pt_clust_8="13000.00000" pt_clust_9="55.67211"></scales>
<clustering>
<clus scale="   55.672">  1  9  2 -1</clus>
<clus scale="   81.108">  5  6 -1 -1</clus>
<clus scale="   91.284">  7  8 -1 -1</clus>
<clus scale="  114.470">  2  5  1 -1</clus>
<clus scale="   55.672">  1  5  2 -1</clus>
</clustering>
</event>
<event>
 9    2  0.1654290E-004  0.9713770E+02  0.7546771E-02  0.1293854E+00
          2   -1    0    0  502    0 -0.00000000000E+00  0.00000000000E+00  0.30243984072E+03  0.30243984072E+03  0.00000000000E+00 0. -1.
         21   -1    0    0  501  502  0.00000000000E+00 -0.00000000000E+00 -0.15626362784E+03  0.15626362784E+03  0.00000000000E+00 0. -1.
         23    2    1    2    0    0  0.26836749364E+01 -0.29074339875E+02  0.21071558157E+03  0.23169547051E+03  0.91810758577E+02 0.  0.
         24    2    1    2    0    0  0.37731679153E+02  0.34820819812E+02  0.49449732997E+02  0.10592976639E+03  0.78356047694E+02 0.  0.
        -11    1    4    4    0    0  0.60009393080E+02  0.31566526106E+02  0.48555437436E+02  0.83397861681E+02  0.00000000000E+00 0.  1.
         12    1    4    4    0    0 -0.22277713927E+02  0.32542937055E+01  0.89429556037E+00  0.22531904711E+02  0.00000000000E+00 0. -1.
        -11    1    3    3    0    0 -0.17035922321E+02 -0.57263498786E+02  0.10871226535E+03  0.12404711839E+03  0.00000000000E+00 0.  1.
         11    1    3    3    0    0  0.19719597257E+02  0.28189158911E+02  0.10200331621E+03  0.10764835212E+03  0.00000000000E+00 0. -1.
          1    1    1    2  501    0 -0.40415354089E+02 -0.57464799369E+01 -0.11398910169E+03  0.12107823166E+03  0.00000000000E+00 0. -1.
<scales pt_clust_5="13000.00000" pt_clust_6="13000.00000" pt_clust_7="13000.00000" pt_clust_8="13000.00000" pt_clust_9="40.82184"></scales>
<clustering>
<clus scale="   40.822">  2  9  1 -1</clus>
<clus scale="   78.356">  5  6 -1 -1</clus>
<clus scale="   84.535">  2  5  1 -1</clus>
<clus scale="   91.811">  7  8 -1 -1</clus>
<clus scale="   40.822">  2  5  1 -1</clus>
</clustering>
</event>
<event>
 9    2  0.1654290E-004  0.1574142E+03  0.7546771E-02  0.1194510E+00
         21   -1    0    0  501  502  0.00000000000E+00  0.00000000000E+00  0.25049206082E+03  0.25049206082E+03  0.00000000000E+00 0. -1.
          2   -1    0    0  502    0 -0.00000000000E+00 -0.00000000000E+00 -0.12286801102E+03  0.12286801102E+03  0.00000000000E+00 0. -1.
         23    2    1    2    0    0 -0.12915805188E+03 -0.23364335231E+02  0.46602185943E+01  0.16051990583E+03  0.92288829245E+02 0.  0.
         24    2    1    2    0    0  0.11384530294E+03  0.43948506262E+02  0.12047018044E+03  0.18706407881E+03  0.74750792656E+02 0.  0.
        -13    1    4    4    0    0  0.28016161233E+02  0.11158759565E+02 -0.59945327767E+01  0.30746668575E+02  0.00000000000E+00 0.  1.
         14    1    4    4    0    0  0.85829141702E+02  0.32789746697E+02  0.12646471321E+03  0.15631741023E+03  0.00000000000E+00 0. -1.
        -13    1    3    3    0    0 -0.29429181052E+02 -0.49235920282E+02  0.37970874616E+01  0.57486262851E+02  0.00000000000E+00 0.  1.
         13    1    3    3    0    0 -0.99728870830E+02  0.25871585050E+02  0.86313113270E+00  0.10303364298E+03  0.00000000000E+00 0. -1.
          1    1    1    2  501    0  0.15312748947E+02 -0.20584171030E+02  0.24936507697E+01  0.25776087203E+02  0.00000000000E+00 0. -1.
<scales pt_clust_5="13000.00000" pt_clust_6="13000.00000" pt_clust_7="13000.00000" pt_clust_8="13000.00000" pt_clust_9="25.65520"></scales>
<clustering>
<clus scale="   25.655">  1  9  2 -1</clus>
<clus scale="   74.751">  5  6 -1 -1</clus>
<clus scale="   92.289">  7  8 -1 -1</clus>
<clus scale="  147.816">  1  5  2 -1</clus>
<clus scale="   25.655">  1  5  2 -1</clus>
</clustering>
</event>
<event>
 9    2  0.1654290E-004  0.1217394E+03  0.7546771E-02  0.1245266E+00
         21   -1    0    0  501  502  0.00000000000E+00  0.00000000000E+00  0.56905991126E+02  0.56905991126E+02  0.00000000000E+00 0. -1.
          2   -1    0    0  502    0 -0.00000000000E+00 -0.00000000000E+00 -0.78182450190E+03  0.78182450190E+03  0.00000000000E+00 0. -1.
         24    2    1    2    0    0  0.27703855617E+02  0.71495083578E+02 -0.56778759326E+03  0.57850360474E+03  0.80028863790E+02 0.  0.
         23    2    1    2    0    0 -0.70241409708E+02 -0.45168367353E+02 -0.16650143914E+03  0.20933144478E+03  0.95513807843E+02 0.  0.
        -13    1    3    3    0    0 -0.24231088254E+02  0.18795283638E+02 -0.91472594532E+02  0.96476131118E+02  0.00000000000E+00 0.  1.
         14    1    3    3    0    0  0.51934943871E+02  0.52699799940E+02 -0.47631499873E+03  0.48202747362E+03  0.00000000000E+00 0. -1.
        -13    1    4    4    0    0  0.23521262179E+02 -0.11574946771E+02 -0.24488722947E+02  0.35873760868E+02  0.00000000000E+00 0.  1.
         13    1    4    4    0    0 -0.93762671887E+02 -0.33593420583E+02 -0.14201271619E+03  0.17345768391E+03  0.00000000000E+00 0. -1.
          1    1    1    2  501    0  0.42537554092E+02 -0.26326716224E+02  0.93705216253E+01  0.50895443517E+02  0.00000000000E+00 0. -1.
<scales pt_clust_5="13000.00000" pt_clust_6="13000.00000" pt_clust_7="13000.00000" pt_clust_8="13000.00000" pt_clust_9="50.02539"></scales>
<clustering>
<clus scale="   50.025">  1  9  2 -1</clus>
<clus scale="   80.029">  5  6 -1 -1</clus>
<clus scale="   95.514">  7  8 -1 -1</clus>
<clus scale="  110.010">  2  5  1 -1</clus>
<clus scale="   50.025">  1  5  2 -1</clus>
</clustering>
</event>
<event>
 9    2  0.1654290E-004  0.4540867E+03  0.7546771E-02  0.1050528E+00
          2   -1    0    0  502    0 -0.00000000000E+00  0.00000000000E+00  0.15184468496E+04  0.15184468496E+04  0.00000000000E+00 0. -1.
         21   -1    0    0  501  502  0.00000000000E+00 -0.00000000000E+00 -0.58425140303E+03  0.58425140303E+03  0.00000000000E+00 0. -1.
         23    2    1    2    0    0 -0.19877098680E+03  0.57531529582E+02  0.46835057584E+03  0.51971821833E+03  0.89078518618E+02 0.  0.
         24    2    1    2    0    0  0.42809155174E+03  0.31929278897E+03  0.84397270897E+03  0.10019764624E+04  0.80353194498E+02 0.  0.
        -13    1    4    4    0    0  0.18172137230E+03  0.10009925805E+03  0.37683080069E+03  0.43016737552E+03  0.00000000000E+00 0.  1.
         14    1    4    4    0    0  0.24637017944E+03  0.21919353092E+03  0.46714190828E+03  0.57180908683E+03  0.00000000000E+00 0. -1.
        -11    1    3    3    0    0 -0.11884342092E+03  0.60265396212E+02  0.20507411302E+03  0.24456301541E+03  0.00000000000E+00 0.  1.
         11    1    3    3    0    0 -0.79927565880E+02 -0.27338666298E+01  0.26327646282E+03  0.27515520292E+03  0.00000000000E+00 0. -1.
          1    1    1    2  501    0 -0.22932056493E+03 -0.37682431855E+03 -0.37812783825E+03  0.58100357195E+03  0.00000000000E+00 0. -1.
<scales pt_clust_5="13000.00000" pt_clust_6="13000.00000" pt_clust_7="13000.00000" pt_clust_8="13000.00000" pt_clust_9="446.92070"></scales>
<clustering>
<clus scale="   80.353">  5  6 -1 -1</clus>
<clus scale="   89.079">  7  8 -1 -1</clus>
<clus scale="  225.288">  1  7  2 -1</clus>
<clus scale="  446.921">  2  9  1 -1</clus>
<clus scale="  446.921">  2  5  1 -1</clus>
</clustering>
</event>
<event>
 9    2  0.2050478E-004  0.2978922E+03  0.7546771E-02  0.1100636E+00
         21   -1    0    0  501  502  0.00000000000E+00  0.00000000000E+00  0.32052773860E+03  0.32052773860E+03  0.00000000000E+00 0.  1.
         -1   -1    0    0    0  501 -0.00000000000E+00 -0.00000000000E+00 -0.55853635137E+03  0.55853635137E+03  0.00000000000E+00 0.  1.
         23    2    1    2    0    0 -0.18317232207E+03 -0.47350443404E+02 -0.56528114107E+02  0.21208986060E+03  0.77411350742E+02 0.  0.
         24    2    1    2    0    0  0.40716366628E+03  0.48750629710E+02 -0.12328882652E+03  0.43554313053E+03  0.79616636295E+02 0.  0.
        -13    1    4    4    0    0  0.40002906276E+03  0.55710604936E+02 -0.12908109629E+03  0.42401515536E+03  0.00000000000E+00 0.  1.
         14    1    4    4    0    0  0.71346035193E+01 -0.69599752260E+01  0.57922697698E+01  0.11527975174E+02  0.00000000000E+00 0. -1.
        -11    1    3    3    0    0 -0.66189555660E+02 -0.54258609371E+02 -0.37194069485E+02  0.93319091156E+02  0.00000000000E+00 0. -1.
         11    1    3    3    0    0 -0.11698276641E+03  0.69081659677E+01 -0.19334044623E+02  0.11877076945E+03  0.00000000000E+00 0.  1.
         -2    1    1    2    0  502 -0.22399134421E+03 -0.14001863061E+01 -0.58191672131E+02  0.23143109883E+03  0.00000000000E+00 0.  1.
<scales pt_clust_5="13000.00000" pt_clust_6="13000.00000" pt_clust_7="13000.00000" pt_clust_8="13000.00000" pt_clust_9="287.05562"></scales>
<clustering>
<clus scale="   77.411">  7  8 -1 -1</clus>
<clus scale="   79.617">  5  6 -1 -1</clus>
<clus scale="  204.418">  2  7  1 -1</clus>
<clus scale="  287.056">  1  9  2 -1</clus>
<clus scale="  287.056">  1  5  2 -1</clus>
</clustering>
</event>
<event>
 9    2  0.1654290E-004  0.9523661E+02  0.7546771E-02  0.1295987E+00
         -1   -1    0    0    0  501 -0.00000000000E+00  0.00000000000E+00  0.45835176835E+02  0.45835176835E+02  0.00000000000E+00 0.  1.
         21   -1    0    0  501  502  0.00000000000E+00 -0.00000000000E+00 -0.43082515605E+03  0.43082515605E+03  0.00000000000E+00 0. -1.
         23    2    1    2    0    0 -0.18435293454E+02  0.16705894305E+02 -0.42819171605E+02  0.10450545271E+03  0.92026959314E+02 0.  0.
         24    2    1    2    0    0  0.41114339863E+02  0.27047586441E+02 -0.24482909424E+03  0.26304889782E+03  0.82652745764E+02 0.  0.
        -13    1    4    4    0    0  0.54284932203E+02 -0.11171295032E+02 -0.15246765837E+03  0.16222835309E+03  0.00000000000E+00 0.  1.
         14    1    4    4    0    0 -0.13170592340E+02  0.38218881473E+02 -0.92361435872E+02  0.10082054473E+03  0.00000000000E+00 0. -1.
        -13    1    3    3    0    0 -0.46394286223E+02 -0.16597313892E+02 -0.10638264303E+02  0.50409059602E+02  0.00000000000E+00 0. -1.
         13    1    3    3    0    0  0.27958992769E+02  0.33303208198E+02 -0.32180907301E+02  0.54096393111E+02  0.00000000000E+00 0.  1.
         -2    1    1    2    0  502 -0.22679046408E+02 -0.43753480746E+02 -0.97341713365E+02  0.10910598235E+03  0.00000000000E+00 0.  1.
<scales pt_clust_5="13000.00000" pt_clust_6="13000.00000" pt_clust_7="13000.00000" pt_clust_8="13000.00000" pt_clust_9="49.28191"></scales>
<clustering>
<clus scale="   49.282">  2  9  1 -1</clus>
<clus scale="   82.653">  5  6 -1 -1</clus>
<clus scale="   86.212">  2  5  1 -1</clus>
<clus scale="   92.027">  7  8 -1 -1</clus>
<clus scale="   49.282">  2  5  1 -1</clus>
</clustering>
</event>
<event>
 9    2  0.1654290E-004  0.1182340E+03  0.7546771E-02  0.1247735E+00
         -1   -1    0    0    0  501 -0.00000000000E+00  0.00000000000E+00  0.16789692533E+03  0.16789692533E+03  0.00000000000E+00 0.  1.
         21   -1    0    0  501  502  0.00000000000E+00 -0.00000000000E+00 -0.23907632924E+03  0.23907632924E+03  0.00000000000E+00 0. -1.
         23    2    1    2    0    0  0.72598625138E+02 -0.21154058376E+02  0.10426616446E+03  0.15749444755E+03  0.90636711100E+02 0.  0.
         24    2    1    2    0    0 -0.21251884799E+02  0.26274087355E+02 -0.16954433920E+03  0.19754108522E+03  0.95578382076E+02 0.  0.
        -11    1    4    4    0    0 -0.38418592680E+02 -0.24858625174E+02 -0.60201255273E+02  0.75618322155E+02  0.00000000000E+00 0.  1.
         12    1    4    4    0    0  0.17166707882E+02  0.51132712529E+02 -0.10934308393E+03  0.12192276306E+03  0.00000000000E+00 0. -1.
        -11    1    3    3    0    0  0.16625173790E+02 -0.18968292605E+02 -0.12378547280E+02  0.28096636109E+02  0.00000000000E+00 0. -1.
         11    1    3    3    0    0  0.55973451348E+02 -0.21857657710E+01  0.11664471174E+03  0.12939781144E+03  0.00000000000E+00 0.  1.
         -2    1    1    2    0  502 -0.51346740339E+02 -0.51200289785E+01 -0.59012291747E+01  0.51937721802E+02  0.00000000000E+00 0.  1.
<scales pt_clust_5="13000.00000" pt_clust_6="13000.00000" pt_clust_7="13000.00000" pt_clust_8="13000.00000" pt_clust_9="51.60141"></scales>
<clustering>
<clus scale="   51.601">  2  9  1 -1</clus>
<clus scale="   90.637">  7  8 -1 -1</clus>
<clus scale="   95.578">  5  6 -1 -1</clus>
<clus scale="  114.276">  1  7  2 -1</clus>
<clus scale="   51.601">  2  5  1 -1</clus>
</clustering>
</event>
<event>
 9    2  0.1654290E-004  0.5238947E+03  0.7546771E-02  0.1034894E+00
          2   -1    0    0  502    0 -0.00000000000E+00  0.00000000000E+00  0.76470325911E+03  0.76470325911E+03  0.00000000000E+00 0. -1.
         21   -1    0    0  501  502  0.00000000000E+00 -0.00000000000E+00 -0.72606036729E+03  0.72606036729E+03  0.00000000000E+00 0. -1.
         23    2    1    2    0    0  0.14630642644E+03 -0.15220679106E+03  0.25436312795E+03  0.34335972844E+03  0.92859165361E+02 0.  0.
         24    2    1    2    0    0  0.41853191824E+03  0.12871077680E+03  0.15478040006E+03  0.47148590019E+03  0.81280693777E+02 0.  0.
        -13    1    4    4    0    0  0.12335767575E+03  0.19396317583E+01  0.30913567596E+02  0.12718697653E+03  0.00000000000E+00 0.  1.
         14    1    4    4    0    0  0.29517424249E+03  0.12677114504E+03  0.12386683246E+03  0.34429892365E+03  0.00000000000E+00 0. -1.
        -13    1    3    3    0    0  0.69987661395E+02 -0.80748683616E+02  0.19697802142E+03  0.22409588032E+03  0.00000000000E+00 0.  1.
         13    1    3    3    0    0  0.76318765045E+02 -0.71458107441E+02  0.57385106531E+02  0.11926384812E+03  0.00000000000E+00 0. -1.
          1    1    1    2  501    0 -0.56483834468E+03  0.23496014261E+02 -0.37050063619E+03  0.67591799778E+03  0.00000000000E+00 0. -1.
<scales pt_clust_5="13000.00000" pt_clust_6="13000.00000" pt_clust_7="13000.00000" pt_clust_8="13000.00000" pt_clust_9="517.55102"></scales>
<clustering>
<clus scale="   81.281">  5  6 -1 -1</clus>
<clus scale="   92.859">  7  8 -1 -1</clus>
<clus scale="  230.641">  1  7  2 -1</clus>
<clus scale="  517.551">  2  9  1 -1</clus>
<clus scale="  517.551">  2  5  1 -1</clus>
</clustering>
</event>
<event>
 9    2  0.1654290E-004  0.4244546E+03  0.7546771E-02  0.1035626E+00
          2   -1    0    0  502    0 -0.00000000000E+00  0.00000000000E+00  0.67480120559E+03  0.67480120559E+03  0.00000000000E+00 0. -1.
         21   -1    0    0  501  502  0.00000000000E+00 -0.00000000000E+00 -0.72602428901E+03  0.72602428901E+03  0.00000000000E+00 0.  1.
         23    2    1    2    0    0  0.40028335258E+03  0.95061410551E+02  0.42962746387E+03  0.60195781651E+03  0.92249775164E+02 0.  0.
         24    2    1    2    0    0 -0.44557300805E+03  0.34733587979E+01 -0.51302763825E+03  0.68574995690E+03  0.92240316857E+02 0.  0.
        -11    1    4    4    0    0 -0.41995650807E+03  0.34233575531E+00 -0.43977180415E+03  0.60808126562E+03  0.00000000000E+00 0.  1.
         12    1    4    4    0    0 -0.25616499981E+02  0.31310230426E+01 -0.73255834095E+02  0.77668691282E+02  0.00000000000E+00 0. -1.
        -13    1    3    3    0    0  0.25440848854E+03  0.15056790940E+02  0.27273691464E+03  0.37327712307E+03  0.00000000000E+00 0. -1.
         13    1    3    3    0    0  0.14587486403E+03  0.80004619611E+02  0.15689054923E+03  0.22868069344E+03  0.00000000000E+00 0.  1.
          1    1    1    2  501    0  0.45289655479E+02 -0.98534769349E+02  0.32177090958E+02  0.11311772119E+03  0.00000000000E+00 0. -1.
<scales pt_clust_5="13000.00000" pt_clust_6="13000.00000" pt_clust_7="13000.00000" pt_clust_8="13000.00000" pt_clust_9="108.44476"></scales>
<clustering>
<clus scale="   92.240">  5  6 -1 -1</clus>
<clus scale="   92.250">  7  8 -1 -1</clus>
<clus scale="  108.445">  2  9  1 -1</clus>
<clus scale="  424.453">  2  5  1 -1</clus>
<clus scale="  108.445">  2  5  1 -1</clus>
</clustering>
</event>
<event>
 9    2  0.1654290E-004  0.1120247E+03  0.7546771E-02  0.1261632E+00
         21   -1    0    0  501  502  0.00000000000E+00  0.00000000000E+00  0.49937654911E+02  0.49937654911E+02  0.00000000000E+00 0.  1.
         -3   -1    0    0    0  501 -0.00000000000E+00 -0.00000000000E+00 -0.39339678337E+03  0.39339678337E+03  0.00000000000E+00 0.  1.
         23    2    1    2    0    0  0.47749832732E+02 -0.49165886669E+02 -0.14327252662E+03  0.18416953015E+03  0.93241986312E+02 0.  0.
         24    2    1    2    0    0 -0.58838887904E+02  0.12031795629E+02 -0.68381928633E+02  0.12178084887E+03  0.80917909960E+02 0.  0.
        -11    1    4    4    0    0 -0.71382493692E+02  0.30063175896E+02 -0.61056325057E+02  0.98626212439E+02  0.00000000000E+00 0.  1.
         12    1    4    4    0    0  0.12543605788E+02 -0.18031380267E+02 -0.73256035754E+01  0.23154636431E+02  0.00000000000E+00 0. -1.
        -11    1    3    3    0    0  0.36293670371E+02 -0.17567286295E+02 -0.35686962612E+01  0.40479323732E+02  0.00000000000E+00 0.  1.
         11    1    3    3    0    0  0.11456162361E+02 -0.31598600374E+02 -0.13970383036E+03  0.14369020642E+03  0.00000000000E+00 0. -1.
         -4    1    1    2    0  502  0.11089055171E+02  0.37134091039E+02 -0.13180467320E+03  0.13738405926E+03  0.00000000000E+00 0.  1.
<scales pt_clust_5="13000.00000" pt_clust_6="13000.00000" pt_clust_7="13000.00000" pt_clust_8="13000.00000" pt_clust_9="38.75448"></scales>
<clustering>
<clus scale="   38.754">  1  9  2 -1</clus>
<clus scale="   80.918">  5  6 -1 -1</clus>
<clus scale="   93.242">  7  8 -1 -1</clus>
<clus scale="  101.996">  1  5  2 -1</clus>
<clus scale="   38.754">  1  5  2 -1</clus>
</clustering>
</event>
<event>
 9    2  0.2014495E-004  0.3851422E+03  0.7546771E-02  0.1049555E+00
         21   -1    0    0  501  502  0.00000000000E+00  0.00000000000E+00  0.23728345909E+03  0.23728345909E+03  0.00000000000E+00 0. -1.
          2   -1    0    0  502    0 -0.00000000000E+00 -0.00000000000E+00 -0.13887908734E+04  0.13887908734E+04  0.00000000000E+00 0. -1.
         24    2    1    2    0    0 -0.38894384425E+03 -0.61312366783E+02 -0.11153111468E+04  0.11844672065E+04  0.63301571638E+02 0.  0.
         23    2    1    2    0    0  0.27189426438E+03  0.53694503181E+02  0.50218415706E+02  0.29591521309E+03  0.90743227760E+02 0.  0.
        -11    1    3    3    0    0 -0.26984174892E+02 -0.18198389816E+02 -0.12607210174E+03  0.13020561403E+03  0.00000000000E+00 0.  1.
         12    1    3    3    0    0 -0.36195966936E+03 -0.43113976967E+02 -0.98923904501E+03  0.10542615925E+04  0.00000000000E+00 0. -1.
        -11    1    4    4    0    0  0.64360493026E+02 -0.22245650683E+02 -0.45172544470E+01  0.68246227915E+02  0.00000000000E+00 0.  1.
         11    1    4    4    0    0  0.20753377136E+03  0.75940153863E+02  0.54735670153E+02  0.22766898517E+03  0.00000000000E+00 0. -1.
          1    1    1    2  501    0  0.11704957987E+03  0.76178636024E+01 -0.86414683272E+02  0.14569191288E+03  0.00000000000E+00 0. -1.
<scales pt_clust_5="13000.00000" pt_clust_6="13000.00000" pt_clust_7="13000.00000" pt_clust_8="13000.00000" pt_clust_9="117.29721"></scales>
<clustering>
<clus scale="   63.302">  5  6 -1 -1</clus>
<clus scale="   90.743">  7  8 -1 -1</clus>
<clus scale="  117.297">  1  9  2 -1</clus>
<clus scale="  379.615">  2  5  1 -1</clus>
<clus scale="  117.297">  1  5  2 -1</clus>
</clustering>
</event>
<event>
 9    2  0.1654290E-004  0.1342848E+03  0.7546771E-02  0.1224099E+00
         21   -1    0    0  501  502  0.00000000000E+00  0.00000000000E+00  0.25408103241E+03  0.25408103241E+03  0.00000000000E+00 0.  1.
         -3   -1    0    0    0  501 -0.00000000000E+00 -0.00000000000E+00 -0.12438196028E+03  0.12438196028E+03  0.00000000000E+00 0.  1.
         23    2    1    2    0    0 -0.10353925173E+03  0.36214485090E+02 -0.44314081199E+02  0.14970592019E+03  0.91740172058E+02 0.  0.
         24    2    1    2    0    0  0.62004619134E+02 -0.30403558720E+02  0.11230893947E+03  0.15414941486E+03  0.79873619180E+02 0.  0.
        -13    1    4    4    0    0  0.63166981653E+02 -0.48540739227E+02  0.62894470027E+02  0.10149869603E+03  0.00000000000E+00 0.  1.
         14    1    4    4    0    0 -0.11623625184E+01  0.18137180507E+02  0.49414469440E+02  0.52650718831E+02  0.00000000000E+00 0. -1.
        -11    1    3    3    0    0 -0.27169710175E+02 -0.17885788786E+01 -0.57281127758E+02  0.63423337681E+02  0.00000000000E+00 0. -1.
         11    1    3    3    0    0 -0.76369541557E+02  0.38003063969E+02  0.12967046559E+02  0.86282582513E+02  0.00000000000E+00 0.  1.
         -4    1    1    2    0  502  0.41534632598E+02 -0.58109263702E+01  0.61704213854E+02  0.74607657634E+02  0.00000000000E+00 0.  1.
<scales pt_clust_5="13000.00000" pt_clust_6="13000.00000" pt_clust_7="13000.00000" pt_clust_8="13000.00000" pt_clust_9="41.93915"></scales>
<clustering>
<clus scale="   41.939">  1  9  2 -1</clus>
<clus scale="   79.874">  5  6 -1 -1</clus>
<clus scale="   91.740">  7  8 -1 -1</clus>
<clus scale="  126.475">  1  5  2 -1</clus>
<clus scale="   41.939">  1  5  2 -1</clus>
</clustering>
</event>
<event>
 9    2  0.1654290E-004  0.1260606E+03  0.7546771E-02  0.1235891E+00
         21   -1    0    0  501  502  0.00000000000E+00  0.00000000000E+00  0.33252560927E+02  0.33252560927E+02  0.00000000000E+00 0. -1.
          2   -1    0    0  502    0 -0.00000000000E+00 -0.00000000000E+00 -0.61118689995E+03  0.61118689995E+03  0.00000000000E+00 0. -1.
         23    2    1    2    0    0  0.87458845282E+02 -0.70619759404E+01 -0.34161253752E+03  0.36412617779E+03  0.90497659840E+02 0.  0.
         24    2    1    2    0    0 -0.83806623725E+02  0.33772376514E+02 -0.17357617732E+03  0.21202128081E+03  0.81610113274E+02 0.  0.
        -11    1    4    4    0    0  0.30495966257E+01  0.26920631464E+02 -0.14700582241E+02  0.30824139181E+02  0.00000000000E+00 0.  1.
         12    1    4    4    0    0 -0.86856220350E+02  0.68517450498E+01 -0.15887559508E+03  0.18119714163E+03  0.00000000000E+00 0. -1.
        -13    1    3    3    0    0  0.53786194720E+02 -0.25150976251E+02 -0.30658050899E+03  0.31227733642E+03  0.00000000000E+00 0.  1.
         13    1    3    3    0    0  0.33672650563E+02  0.18089000310E+02 -0.35032028528E+02  0.51848841365E+02  0.00000000000E+00 0. -1.
          1    1    1    2  501    0 -0.36522215579E+01 -0.26710400573E+02 -0.62745624180E+02  0.68292002276E+02  0.00000000000E+00 0. -1.
<scales pt_clust_5="13000.00000" pt_clust_6="13000.00000" pt_clust_7="13000.00000" pt_clust_8="13000.00000" pt_clust_9="26.95895"></scales>
<clustering>
<clus scale="   26.959">  1  9  2 -1</clus>
<clus scale="   81.610">  5  6 -1 -1</clus>
<clus scale="   90.498">  7  8 -1 -1</clus>
<clus scale="  119.840">  1  5  2 -1</clus>
<clus scale="   26.959">  1  5  2 -1</clus>
</clustering>
</event>
<event>
 9    2  0.1654290E-004  0.1407832E+03  0.7546771E-02  0.1222111E+00
         21   -1    0    0  501  502  0.00000000000E+00  0.00000000000E+00  0.33288869933E+02  0.33288869933E+02  0.00000000000E+00 0.  1.
          2   -1    0    0  502    0 -0.00000000000E+00 -0.00000000000E+00 -0.13526174022E+04  0.13526174022E+04  0.00000000000E+00 0. -1.
         24    2    1    2    0    0 -0.14945524558E+02  0.77981350890E+02 -0.73775253102E+03  0.74657131745E+03  0.82373996034E+02 0.  0.
         23    2    1    2    0    0  0.75038724204E+02  0.46917394002E+02 -0.26983680923E+03  0.29817192480E+03  0.90898521086E+02 0.  0.
        -11    1    3    3    0    0 -0.44849729380E+02  0.32927817953E+02 -0.26786321137E+03  0.27358077312E+03  0.00000000000E+00 0.  1.
         12    1    3    3    0    0  0.29904204822E+02  0.45053532936E+02 -0.46988931965E+03  0.47299054432E+03  0.00000000000E+00 0. -1.
        -11    1    4    4    0    0  0.40697856403E+02 -0.50486735244E+01 -0.31169750612E+02  0.51510755900E+02  0.00000000000E+00 0.  1.
         11    1    4    4    0    0  0.34340867801E+02  0.51966067526E+02 -0.23866705862E+03  0.24666116890E+03  0.00000000000E+00 0. -1.
          1    1    1    2  501    0 -0.60093199647E+02 -0.12489874489E+03 -0.31173919205E+03  0.34116302991E+03  0.00000000000E+00 0. -1.
<scales pt_clust_5="13000.00000" pt_clust_6="13000.00000" pt_clust_7="13000.00000" pt_clust_8="13000.00000" pt_clust_9="107.50528"></scales>
<clustering>
<clus scale="   82.374">  5  6 -1 -1</clus>
<clus scale="   90.899">  7  8 -1 -1</clus>
<clus scale="  114.411">  2  5  1 -1</clus>
<clus scale="  107.505">  1  9  2 -1</clus>
<clus scale="  107.505">  1  5  2 -1</clus>
</clustering>
</event>
<event>
 9    2  0.1654290E-004  0.1245487E+03  0.7546771E-02  0.1240138E+00
          4   -1    0    0  502    0 -0.00000000000E+00  0.00000000000E+00  0.10960466636E+03  0.10960466636E+03  0.00000000000E+00 0. -1.
         21   -1    0    0  501  502  0.00000000000E+00 -0.00000000000E+00 -0.27451640459E+03  0.27451640459E+03  0.00000000000E+00 0.  1.
         24    2    1    2    0    0 -0.85381547249E+02 -0.42112066870E+02 -0.53480732051E+02  0.13310333441E+03  0.76110933144E+02 0.  0.
         23    2    1    2    0    0  0.76817001278E+02 -0.16758194284E+02 -0.14030051269E+03  0.18489279796E+03  0.91210877187E+02 0.  0.
        -11    1    3    3    0    0 -0.52792886889E+02 -0.63633936964E+02 -0.39383918472E+02  0.91583076350E+02  0.00000000000E+00 0.  1.
         12    1    3    3    0    0 -0.32588660360E+02  0.21521870093E+02 -0.14096813579E+02  0.41520258061E+02  0.00000000000E+00 0. -1.
        -11    1    4    4    0    0 -0.72079014226E+01  0.25369432911E+02 -0.33040380330E+02  0.42275627748E+02  0.00000000000E+00 0. -1.
         11    1    4    4    0    0  0.84024902700E+02 -0.42127627194E+02 -0.10726013236E+03  0.14261717021E+03  0.00000000000E+00 0.  1.
          3    1    1    2  501    0  0.85645459712E+01  0.58870261154E+02  0.28869506504E+02  0.66124938577E+02  0.00000000000E+00 0. -1.
<scales pt_clust_5="13000.00000" pt_clust_6="13000.00000" pt_clust_7="13000.00000" pt_clust_8="13000.00000" pt_clust_9="59.49002"></scales>
<clustering>
<clus scale="   59.490">  2  9  1 -1</clus>
<clus scale="   76.111">  5  6 -1 -1</clus>
<clus scale="   91.211">  7  8 -1 -1</clus>
<clus scale="  113.955">  1  5  2 -1</clus>
<clus scale="   59.490">  2  5  1 -1</clus>
</clustering>
</event>
<event>
 9    2  0.1654290E-004  0.1474753E+03  0.7546771E-02  0.1221454E+00
         21   -1    0    0  501  502  0.00000000000E+00  0.00000000000E+00  0.19913702678E+03  0.19913702678E+03  0.00000000000E+00 0. -1.
          2   -1    0    0  502    0 -0.00000000000E+00 -0.00000000000E+00 -0.19715163617E+03  0.19715163617E+03  0.00000000000E+00 0. -1.
         24    2    1    2    0    0  0.22937823951E+02  0.59103255436E+02  0.42073827886E+02  0.10933078066E+03  0.78509069771E+02 0.  0.
         23    2    1    2    0    0 -0.16624000589E+02  0.70047050211E+02 -0.89126781865E+02  0.14866679416E+03  0.94737985000E+02 0.  0.
        -13    1    3    3    0    0  0.18432910580E+02  0.91012034110E+01 -0.20549944455E+02  0.29067237796E+02  0.00000000000E+00 0.  1.
         14    1    3    3    0    0  0.45049133708E+01  0.50002052025E+02  0.62623772341E+02  0.80263542866E+02  0.00000000000E+00 0. -1.
        -11    1    4    4    0    0  0.26306087904E+02 -0.52322840792E+01 -0.42509736290E+02  0.50263950670E+02  0.00000000000E+00 0.  1.
         11    1    4    4    0    0 -0.42930088493E+02  0.75279334290E+02 -0.46617045574E+02  0.98402843492E+02  0.00000000000E+00 0. -1.
          1    1    1    2  501    0 -0.63138233621E+01 -0.12915030565E+03  0.49038344588E+02  0.13829108812E+03  0.00000000000E+00 0. -1.
<scales pt_clust_5="13000.00000" pt_clust_6="13000.00000" pt_clust_7="13000.00000" pt_clust_8="13000.00000" pt_clust_9="113.02071"></scales>
<clustering>
<clus scale="   78.509">  5  6 -1 -1</clus>
<clus scale="   94.738">  7  8 -1 -1</clus>
<clus scale="  100.911">  2  5  1 -1</clus>
<clus scale="  113.021">  1  9  2 -1</clus>
<clus scale="  113.021">  1  5  2 -1</clus>
</clustering>
</event>
<event>
 9    2  0.1654290E-004  0.1214202E+03  0.7546771E-02  0.1255151E+00
         21   -1    0    0  501  502  0.00000000000E+00  0.00000000000E+00  0.46566543228E+02  0.46566543228E+02  0.00000000000E+00 0. -1.
          2   -1    0    0  502    0 -0.00000000000E+00 -0.00000000000E+00 -0.10656733325E+04  0.10656733325E+04  0.00000000000E+00 0. -1.
         24    2    1    2    0    0 -0.43508378948E+02 -0.35882406909E+02 -0.88800021043E+03  0.89279327001E+03  0.73177339904E+02 0.  0.
         23    2    1    2    0    0  0.38861169044E+02 -0.16408063866E+02 -0.60182859626E+02  0.13120793029E+03  0.10869282110E+03 0.  0.
        -11    1    3    3    0    0 -0.44478184408E+02 -0.24036004652E+02 -0.27082252987E+03  0.27550114536E+03  0.00000000000E+00 0.  1.
         12    1    3    3    0    0  0.96980545960E+00 -0.11846402257E+02 -0.61717768056E+03  0.61729212465E+03  0.00000000000E+00 0. -1.
        -13    1    4    4    0    0  0.19699721538E+02 -0.30270309166E+02  0.24265303288E+02  0.43510637657E+02  0.00000000000E+00 0. -1.
         13    1    4    4    0    0  0.19161447506E+02  0.13862245300E+02 -0.84448162914E+02  0.87697292631E+02  0.00000000000E+00 0.  1.
          1    1    1    2  501    0  0.46472099041E+01  0.52290470775E+02 -0.70923719171E+02  0.88238675391E+02  0.00000000000E+00 0. -1.
<scales pt_clust_5="13000.00000" pt_clust_6="13000.00000" pt_clust_7="13000.00000" pt_clust_8="13000.00000" pt_clust_9="52.49657"></scales>
<clustering>
<clus scale="   52.497">  1  9  2 -1</clus>
<clus scale="   73.177">  5  6 -1 -1</clus>
<clus scale="   91.015">  2  5  1 -1</clus>
<clus scale="  108.693">  7  8 -1 -1</clus>
<clus scale="   52.497">  1  5  2 -1</clus>
</clustering>
</event>
<event>
 9    2  0.1654290E-004  0.1086607E+03  0.7546771E-02  0.1267509E+00
         21   -1    0    0  501  502  0.00000000000E+00  0.00000000000E+00  0.30693698364E+03  0.30693698364E+03  0.00000000000E+00 0. -1.
         -1   -1    0    0    0  501 -0.00000000000E+00 -0.00000000000E+00 -0.57427831723E+02  0.57427831723E+02  0.00000000000E+00 0.  1.
         23    2    1    2    0    0 -0.47906478530E+02 -0.38675576938E+02  0.31007657947E+02  0.11390394682E+03  0.90674160115E+02 0.  0.
         24    2    1    2    0    0  0.55629650560E+02  0.18236568023E+02  0.16077957139E+03  0.18874198312E+03  0.79663261177E+02 0.  0.
        -13    1    4    4    0    0  0.35619647350E+02 -0.22056917294E+02  0.33178444288E+02  0.53442268320E+02  0.00000000000E+00 0.  1.
         14    1    4    4    0    0  0.20010003211E+02  0.40293485316E+02  0.12760112710E+03  0.13529971480E+03  0.00000000000E+00 0. -1.
        -13    1    3    3    0    0 -0.64583237063E+02 -0.54612887196E+02  0.15184354369E+02  0.85930940731E+02  0.00000000000E+00 0.  1.
         13    1    3    3    0    0  0.16676758532E+02  0.15937310258E+02  0.15823303577E+02  0.27973006086E+02  0.00000000000E+00 0. -1.
         -2    1    1    2    0  502 -0.77231720301E+01  0.20439008916E+02  0.57721922580E+02  0.61718885424E+02  0.00000000000E+00 0.  1.
<scales pt_clust_5="13000.00000" pt_clust_6="13000.00000" pt_clust_7="13000.00000" pt_clust_8="13000.00000" pt_clust_9="21.84950"></scales>
<clustering>
<clus scale="   21.849">  1  9  2 -1</clus>
<clus scale="   79.663">  5  6 -1 -1</clus>
<clus scale="   90.674">  7  8 -1 -1</clus>
<clus scale="   99.657">  1  5  2 -1</clus>
<clus scale="   21.849">  1  5  2 -1</clus>
</clustering>
</event>
<event>
 9    2  0.1654290E-004  0.3221697E+03  0.7546771E-02  0.1119237E+00
          2   -1    0    0  502    0 -0.00000000000E+00  0.00000000000E+00  0.44177877460E+03  0.44177877460E+03  0.00000000000E+00 0. -1.
         21   -1    0    0  501  502  0.00000000000E+00 -0.00000000000E+00 -0.43736944522E+03  0.43736944522E+03  0.00000000000E+00 0. -1.
         24    2    1    2    0    0 -0.43404142839E+02 -0.45347794981E+02 -0.15624202381E+02  0.10181470879E+03  0.78624278060E+02 0.  0.
         23    2    1    2    0    0  0.30216151586E+03  0.18881031454E+03  0.21143054453E+03  0.42495631383E+03  0.94520246302E+02 0.  0.
        -11    1    3    3    0    0 -0.90744529026E+01  0.21030588770E+02 -0.14436867023E+02  0.27074979020E+02  0.00000000000E+00 0.  1.
         12    1    3    3    0    0 -0.34329689937E+02 -0.66378383752E+02 -0.11873353582E+01  0.74739729769E+02  0.00000000000E+00 0. -1.
        -13    1    4    4    0    0  0.59393718528E+02  0.11104474672E+02  0.70127654599E+02  0.92567872925E+02  0.00000000000E+00 0.  1.
         13    1    4    4    0    0  0.24276779734E+03  0.17770583987E+03  0.14130288993E+03  0.33238844091E+03  0.00000000000E+00 0. -1.
          1    1    1    2  501    0 -0.25875737303E+03 -0.14346251956E+03 -0.19139701276E+03  0.35237719720E+03  0.00000000000E+00 0. -1.
<scales pt_clust_5="13000.00000" pt_clust_6="13000.00000" pt_clust_7="13000.00000" pt_clust_8="13000.00000" pt_clust_9="307.99229"></scales>
<clustering>
<clus scale="   78.624">  5  6 -1 -1</clus>
<clus scale="   94.520">  7  8 -1 -1</clus>
<clus scale="  100.609">  1  5  2 -1</clus>
<clus scale="  307.992">  2  9  1 -1</clus>
<clus scale="  307.992">  2  5  1 -1</clus>
</clustering>
</event>
<event>
 9    2  0.1654290E-004  0.1155069E+03  0.7546771E-02  0.1266243E+00
         21   -1    0    0  501  502  0.00000000000E+00  0.00000000000E+00  0.43868392848E+03  0.43868392848E+03  0.00000000000E+00 0. -1.
         -1   -1    0    0    0  501 -0.00000000000E+00 -0.00000000000E+00 -0.28707332510E+02  0.28707332510E+02  0.00000000000E+00 0.  1.
         23    2    1    2    0    0 -0.43714106962E+02 -0.32120696045E+01  0.18563147982E+03  0.21864107719E+03  0.10688140060E+03 0.  0.
         24    2    1    2    0    0  0.39514236057E+02  0.23706805666E+02  0.17278943976E+03  0.19311152018E+03  0.72886770052E+02 0.  0.
        -11    1    4    4    0    0  0.59281144574E+02  0.63193036969E+01  0.12691729766E+03  0.14022192463E+03  0.00000000000E+00 0.  1.
         12    1    4    4    0    0 -0.19766908516E+02  0.17387501970E+02  0.45872142094E+02  0.52889595548E+02  0.00000000000E+00 0. -1.
        -11    1    3    3    0    0 -0.37530840199E+02 -0.34027519701E+02  0.27952044347E+02  0.57859768806E+02  0.00000000000E+00 0.  1.
         11    1    3    3    0    0 -0.61832667622E+01  0.30815450096E+02  0.15767943548E+03  0.16078130838E+03  0.00000000000E+00 0. -1.
         -2    1    1    2    0  502  0.41998709041E+01 -0.20494736062E+02  0.51555676393E+02  0.55638663627E+02  0.00000000000E+00 0.  1.
<scales pt_clust_5="13000.00000" pt_clust_6="13000.00000" pt_clust_7="13000.00000" pt_clust_8="13000.00000" pt_clust_9="20.92064"></scales>
<clustering>
<clus scale="   20.921">  1  9  2 -1</clus>
<clus scale="   72.887">  5  6 -1 -1</clus>
<clus scale="   85.033">  1  5  2 -1</clus>
<clus scale="  106.881">  7  8 -1 -1</clus>
<clus scale="   20.921">  1  5  2 -1</clus>
</clustering>
</event>
<event>
 9    2  0.1654290E-004  0.9922879E+02  0.7546771E-02  0.1288374E+00
         -3   -1    0    0    0  501 -0.00000000000E+00  0.00000000000E+00  0.31793554428E+03  0.31793554428E+03  0.00000000000E+00 0.  1.
         21   -1    0    0  501  502  0.00000000000E+00 -0.00000000000E+00 -0.58027214564E+02  0.58027214564E+02  0.00000000000E+00 0. -1.
         24    2    1    2    0    0 -0.25306825330E+02  0.22543259046E+01  0.21205318299E+03  0.22921939687E+03  0.83243390691E+02 0.  0.
         23    2    1    2    0    0  0.39119283926E+02  0.26853802775E+02  0.39693711349E+02  0.11350669254E+03  0.95166871506E+02 0.  0.
        -13    1    3    3    0    0 -0.40069584615E+02  0.30044456662E+02  0.16638742976E+03  0.17376138170E+03  0.00000000000E+00 0.  1.
         14    1    3    3    0    0  0.14762759285E+02 -0.27790130758E+02  0.45665753226E+02  0.55458015173E+02  0.00000000000E+00 0. -1.
        -11    1    4    4    0    0 -0.24519281349E+02  0.23118415996E+02 -0.70855631792E+01  0.34436340131E+02  0.00000000000E+00 0. -1.
         11    1    4    4    0    0  0.63638565275E+02  0.37353867786E+01  0.46779274528E+02  0.79070352408E+02  0.00000000000E+00 0.  1.
         -4    1    1    2    0  502 -0.13812458596E+02 -0.29108128679E+02  0.81614353840E+01  0.33236669436E+02  0.00000000000E+00 0.  1.
<scales pt_clust_5="13000.00000" pt_clust_6="13000.00000" pt_clust_7="13000.00000" pt_clust_8="13000.00000" pt_clust_9="32.21905"></scales>
<clustering>
<clus scale="   32.219">  2  9  1 -1</clus>
<clus scale="   83.243">  5  6 -1 -1</clus>
<clus scale="   87.858">  1  5  2 -1</clus>
<clus scale="   95.167">  7  8 -1 -1</clus>
<clus scale="   32.219">  2  5  1 -1</clus>
</clustering>
</event>
<event>
 9    2  0.1654290E-004  0.1326740E+03  0.7546771E-02  0.1227264E+00
          2   -1    0    0  502    0 -0.00000000000E+00  0.00000000000E+00  0.44186486002E+03  0.44186486002E+03  0.00000000000E+00 0. -1.
         21   -1    0    0  501  502  0.00000000000E+00 -0.00000000000E+00 -0.66872267667E+02  0.66872267667E+02  0.00000000000E+00 0.  1.
         23    2    1    2    0    0 -0.84467099105E+02  0.13147459075E+02  0.20329989460E+03  0.23883564317E+03  0.91673719202E+02 0.  0.
         24    2    1    2    0    0  0.12300961589E+03  0.19111484273E+02  0.83424692576E+02  0.16832685302E+03  0.76665739953E+02 0.  0.
        -13    1    4    4    0    0  0.11837950821E+03  0.14959948741E+02  0.42090007161E+02  0.12652698026E+03  0.00000000000E+00 0.  1.
         14    1    4    4    0    0  0.46301076829E+01  0.41515355319E+01  0.41334685415E+02  0.41799872761E+02  0.00000000000E+00 0. -1.
        -13    1    3    3    0    0 -0.63833600648E+02  0.46459567778E+02  0.16989994126E+03  0.18734783172E+03  0.00000000000E+00 0.  1.
         13    1    3    3    0    0 -0.20633498456E+02 -0.33312108703E+02  0.33399953342E+02  0.51487811452E+02  0.00000000000E+00 0. -1.
          1    1    1    2  501    0 -0.38542516789E+02 -0.32258943347E+02  0.88268005177E+02  0.10157463150E+03  0.00000000000E+00 0. -1.
<scales pt_clust_5="13000.00000" pt_clust_6="13000.00000" pt_clust_7="13000.00000" pt_clust_8="13000.00000" pt_clust_9="50.26099"></scales>
<clustering>
<clus scale="   50.261">  2  9  1 -1</clus>
<clus scale="   76.666">  5  6 -1 -1</clus>
<clus scale="   91.674">  7  8 -1 -1</clus>
<clus scale="  122.784">  2  5  1 -1</clus>
<clus scale="   50.261">  2  5  1 -1</clus>
</clustering>
</event>
<event>
 9    2  0.1654290E-004  0.1121765E+03  0.7546771E-02  0.1257975E+00
         21   -1    0    0  501  502  0.00000000000E+00  0.00000000000E+00  0.36162731737E+02  0.36162731737E+02  0.00000000000E+00 0.  1.
          2   -1    0    0  502    0 -0.00000000000E+00 -0.00000000000E+00 -0.62873251965E+03  0.62873251965E+03  0.00000000000E+00 0. -1.
         23    2    1    2    0    0 -0.33094684580E+02  0.71671517998E+02 -0.44212655970E+03  0.45803195139E+03  0.89918346627E+02 0.  0.
         24    2    1    2    0    0 -0.15294514898E+01 -0.44354899810E+02 -0.11435886791E+03  0.14987988587E+03  0.86118134899E+02 0.  0.
        -11    1    4    4    0    0  0.16095454139E+02  0.21252706443E+02 -0.18747111274E+02  0.32591338669E+02  0.00000000000E+00 0.  1.
         12    1    4    4    0    0 -0.17624905629E+02 -0.65607606252E+02 -0.95611756635E+02  0.11728854720E+03  0.00000000000E+00 0. -1.
        -11    1    3    3    0    0  0.28401422602E+02  0.66845477926E+01 -0.85001948977E+02  0.89870213724E+02  0.00000000000E+00 0.  1.
         11    1    3    3    0    0 -0.61496107182E+02  0.64986970205E+02 -0.35712461072E+03  0.36816173766E+03  0.00000000000E+00 0. -1.
          1    1    1    2  501    0  0.34624136070E+02 -0.27316618188E+02 -0.36084360302E+02  0.56983414133E+02  0.00000000000E+00 0. -1.
<scales pt_clust_5="13000.00000" pt_clust_6="13000.00000" pt_clust_7="13000.00000" pt_clust_8="13000.00000" pt_clust_9="44.10248"></scales>
<clustering>
<clus scale="   44.102">  1  9  2 -1</clus>
<clus scale="   86.118">  5  6 -1 -1</clus>
<clus scale="   89.918">  7  8 -1 -1</clus>
<clus scale="  109.154">  1  5  2 -1</clus>
<clus scale="   44.102">  1  5  2 -1</clus>
</clustering>
</event>
<event>
 9    2  0.1654290E-004  0.9925051E+02  0.7546771E-02  0.1284733E+00
         -1   -1    0    0    0  501 -0.00000000000E+00  0.00000000000E+00  0.11744439313E+03  0.11744439313E+03  0.00000000000E+00 0.  1.
         21   -1    0    0  501  502  0.00000000000E+00 -0.00000000000E+00 -0.10640116139E+03  0.10640116139E+03  0.00000000000E+00 0.  1.
         23    2    1    2    0    0  0.51681392038E+02  0.58931560672E+02  0.19094247006E+02  0.10217602606E+03  0.62701315029E+02 0.  0.
         24    2    1    2    0    0 -0.51989779067E+02 -0.31931020842E+02 -0.13721649588E+02  0.94078219196E+02  0.70284425304E+02 0.  0.
        -13    1    4    4    0    0 -0.29002253949E+02  0.19754812933E+02 -0.13249257651E+02  0.37509014869E+02  0.00000000000E+00 0.  1.
         14    1    4    4    0    0 -0.22987525118E+02 -0.51685833775E+02 -0.47239193758E+00  0.56569204327E+02  0.00000000000E+00 0. -1.
        -11    1    3    3    0    0  0.55578123925E+02  0.27030163901E+02  0.29381531667E+02  0.68431221110E+02  0.00000000000E+00 0.  1.
         11    1    3    3    0    0 -0.38967318870E+01  0.31901396771E+02 -0.10287284661E+02  0.33744804949E+02  0.00000000000E+00 0. -1.
         -2    1    1    2    0  502  0.30838702858E+00 -0.27000539830E+02  0.56706343196E+01  0.27591309271E+02  0.00000000000E+00 0.  1.
<scales pt_clust_5="13000.00000" pt_clust_6="13000.00000" pt_clust_7="13000.00000" pt_clust_8="13000.00000" pt_clust_9="27.00231"></scales>
<clustering>
<clus scale="   27.002">  2  9  1 -1</clus>
<clus scale="   62.701">  7  8 -1 -1</clus>
<clus scale="   70.284">  5  6 -1 -1</clus>
<clus scale="   94.033">  1  7  2 -1</clus>
<clus scale="   27.002">  2  5  1 -1</clus>
</clustering>
</event>
<event>
 9    2  0.1654290E-004  0.1112649E+03  0.7546771E-02  0.1264126E+00
         21   -1    0    0  501  502  0.00000000000E+00  0.00000000000E+00  0.13462212148E+03  0.13462212148E+03  0.00000000000E+00 0. -1.
          2   -1    0    0  502    0 -0.00000000000E+00 -0.00000000000E+00 -0.70962432245E+03  0.70962432245E+03  0.00000000000E+00 0. -1.
         24    2    1    2    0    0 -0.55631693274E+01 -0.63213611888E+02 -0.61142641959E+03  0.61944415097E+03  0.76432192349E+02 0.  0.
         23    2    1    2    0    0 -0.43746254054E+02  0.62340024627E+02 -0.46855283457E+02  0.12801563141E+03  0.91610975779E+02 0.  0.
        -11    1    3    3    0    0  0.14845048361E+02 -0.73872602119E+02 -0.42850070902E+03  0.43507515953E+03  0.00000000000E+00 0.  1.
         12    1    3    3    0    0 -0.20408217689E+02  0.10658990232E+02 -0.18292571056E+03  0.18436899145E+03  0.00000000000E+00 0. -1.
        -11    1    4    4    0    0 -0.31949402816E+02 -0.53974155032E+01  0.14838251523E+02  0.35638043474E+02  0.00000000000E+00 0. -1.
         11    1    4    4    0    0 -0.11796851238E+02  0.67737440130E+02 -0.61693534980E+02  0.92377587936E+02  0.00000000000E+00 0.  1.
          1    1    1    2  501    0  0.49309423381E+02  0.87358726119E+00  0.83279502073E+02  0.96786661552E+02  0.00000000000E+00 0. -1.
<scales pt_clust_5="13000.00000" pt_clust_6="13000.00000" pt_clust_7="13000.00000" pt_clust_8="13000.00000" pt_clust_9="49.31716"></scales>
<clustering>
<clus scale="   49.317">  1  9  2 -1</clus>
<clus scale="   76.432">  5  6 -1 -1</clus>
<clus scale="   91.611">  7  8 -1 -1</clus>
<clus scale="   99.142">  2  5  1 -1</clus>
<clus scale="   49.317">  1  5  2 -1</clus>
</clustering>
</event>
<event>
 9    2  0.1654290E-004  0.9790752E+02  0.7546771E-02  0.1288498E+00
         21   -1    0    0  501  502  0.00000000000E+00  0.00000000000E+00  0.51674223890E+02  0.51674223890E+02  0.00000000000E+00 0.  1.
          2   -1    0    0  502    0 -0.00000000000E+00 -0.00000000000E+00 -0.38478673891E+03  0.38478673891E+03  0.00000000000E+00 0. -1.
         24    2    1    2    0    0 -0.13754100871E+02 -0.27721628653E+02 -0.25054424330E+03  0.26651880642E+03  0.85452866206E+02 0.  0.
         23    2    1    2    0    0 -0.32820294631E+01  0.38452964068E+02 -0.10124259433E+03  0.14248088143E+03  0.92527490531E+02 0.  0.
        -13    1    3    3    0    0  0.14121612622E+02  0.21654417735E+02 -0.34223825044E+02  0.42890604462E+02  0.00000000000E+00 0.  1.
         14    1    3    3    0    0 -0.27875713493E+02 -0.49376046388E+02 -0.21632041825E+03  0.22362820196E+03  0.00000000000E+00 0. -1.
        -11    1    4    4    0    0  0.14385233017E+02 -0.26002814755E+02 -0.50393405133E+02  0.58502791259E+02  0.00000000000E+00 0. -1.
         11    1    4    4    0    0 -0.17667262480E+02  0.64455778823E+02 -0.50849189200E+02  0.83978090176E+02  0.00000000000E+00 0.  1.
          1    1    1    2  501    0  0.17036130334E+02 -0.10731335415E+02  0.18674322609E+02  0.27461274942E+02  0.00000000000E+00 0. -1.
<scales pt_clust_5="13000.00000" pt_clust_6="13000.00000" pt_clust_7="13000.00000" pt_clust_8="13000.00000" pt_clust_9="20.13433"></scales>
<clustering>
<clus scale="   20.134">  1  9  2 -1</clus>
<clus scale="   85.453">  5  6 -1 -1</clus>
<clus scale="   91.251">  2  5  1 -1</clus>
<clus scale="   92.527">  7  8 -1 -1</clus>
<clus scale="   20.134">  1  5  2 -1</clus>
</clustering>
</event>
<event>
 9    2  0.1654290E-004  0.1225818E+03  0.7546771E-02  0.1248453E+00
          2   -1    0    0  502    0 -0.00000000000E+00  0.00000000000E+00  0.49917158167E+03  0.49917158167E+03  0.00000000000E+00 0. -1.
         21   -1    0    0  501  502  0.00000000000E+00 -0.00000000000E+00 -0.10206426067E+03  0.10206426067E+03  0.00000000000E+00 0.  1.
         23    2    1    2    0    0  0.48333932522E+02  0.48288566462E+02  0.31549562449E+03  0.33935808113E+03  0.10468267993E+03 0.  0.
         24    2    1    2    0    0 -0.19013060534E+02 -0.23927432499E+02 -0.67554341150E+02  0.10791774959E+03  0.78413220640E+02 0.  0.
        -11    1    4    4    0    0 -0.24114456814E+02 -0.41848792575E+02 -0.73856596521E+02  0.88247523008E+02  0.00000000000E+00 0.  1.
         12    1    4    4    0    0  0.51013962803E+01  0.17921360076E+02  0.63022553705E+01  0.19670226581E+02  0.00000000000E+00 0. -1.
        -13    1    3    3    0    0  0.69941276835E+02  0.63312459193E+02  0.27781976749E+03  0.29340087407E+03  0.00000000000E+00 0. -1.
         13    1    3    3    0    0 -0.21607344314E+02 -0.15023892730E+02  0.37675856994E+02  0.45957207066E+02  0.00000000000E+00 0.  1.
          1    1    1    2  501    0 -0.29320871988E+02 -0.24361133964E+02  0.14916603767E+03  0.15396001162E+03  0.00000000000E+00 0. -1.
<scales pt_clust_5="13000.00000" pt_clust_6="13000.00000" pt_clust_7="13000.00000" pt_clust_8="13000.00000" pt_clust_9="38.12060"></scales>
<clustering>
<clus scale="   38.121">  2  9  1 -1</clus>
<clus scale="   78.413">  5  6 -1 -1</clus>
<clus scale="  101.077">  2  5  1 -1</clus>
<clus scale="  104.683">  7  8 -1 -1</clus>
<clus scale="   38.121">  2  5  1 -1</clus>
</clustering>
</event>
<event>
 9    2  0.1654290E-004  0.1866765E+03  0.7546771E-02  0.1179158E+00
         -1   -1    0    0    0  501 -0.00000000000E+00  0.00000000000E+00  0.83973141984E+03  0.83973141984E+03  0.00000000000E+00 0.  1.
         21   -1    0    0  501  502  0.00000000000E+00 -0.00000000000E+00 -0.12202847370E+03  0.12202847370E+03  0.00000000000E+00 0.  1.
         23    2    1    2    0    0 -0.78875268300E+02 -0.27718400514E+02 -0.21032418871E+02  0.12641627537E+03  0.92461312759E+02 0.  0.
         24    2    1    2    0    0 -0.14087848011E+03  0.13263301431E+02  0.24282575639E+03  0.29273233949E+03  0.81885366783E+02 0.  0.
        -11    1    4    4    0    0 -0.13325083709E+03  0.23307542591E+02  0.16256272812E+03  0.21148443844E+03  0.00000000000E+00 0.  1.
         12    1    4    4    0    0 -0.76276430193E+01 -0.10044241160E+02  0.80263028262E+02  0.81247901046E+02  0.00000000000E+00 0. -1.
        -13    1    3    3    0    0 -0.26246234298E+02  0.67880642362E+01 -0.50200445928E+02  0.57052847451E+02  0.00000000000E+00 0.  1.
         13    1    3    3    0    0 -0.52629034002E+02 -0.34506464750E+02  0.29168027057E+02  0.69363427914E+02  0.00000000000E+00 0. -1.
         -2    1    1    2    0  502  0.21975374841E+03  0.14455099082E+02  0.49590960862E+03  0.54261127868E+03  0.00000000000E+00 0.  1.
<scales pt_clust_5="13000.00000" pt_clust_6="13000.00000" pt_clust_7="13000.00000" pt_clust_8="13000.00000" pt_clust_9="167.75854"></scales>
<clustering>
<clus scale="   81.885">  5  6 -1 -1</clus>
<clus scale="   92.461">  7  8 -1 -1</clus>
<clus scale="  124.654">  1  7  2 -1</clus>
<clus scale="  167.759">  2  9  1 -1</clus>
<clus scale="  167.759">  2  5  1 -1</clus>
</clustering>
</event>
<event>
 9    2  0.1654290E-004  0.1672742E+03  0.7546771E-02  0.1182349E+00
         21   -1    0    0  501  502  0.00000000000E+00  0.00000000000E+00  0.64260605506E+02  0.64260605506E+02  0.00000000000E+00 0. -1.
          2   -1    0    0  502    0 -0.00000000000E+00 -0.00000000000E+00 -0.59534059477E+03  0.59534059477E+03  0.00000000000E+00 0. -1.
         23    2    1    2    0    0  0.42943150052E+02 -0.13201061675E+03 -0.22077322045E+03  0.27621283634E+03  0.91004390087E+02 0.  0.
         24    2    1    2    0    0 -0.16052009890E+02  0.14302654659E+03 -0.15689445436E+03  0.22724797085E+03  0.79445014917E+02 0.  0.
        -13    1    4    4    0    0  0.57927572930E+01  0.13183539692E+03 -0.15356995648E+03  0.20247928154E+03  0.00000000000E+00 0.  1.
         14    1    4    4    0    0 -0.21844767183E+02  0.11191149673E+02 -0.33244978827E+01  0.24768689316E+02  0.00000000000E+00 0. -1.
        -13    1    3    3    0    0  0.23271815101E+02 -0.96209030633E+00 -0.63438484661E+01  0.24140161748E+02  0.00000000000E+00 0.  1.
         13    1    3    3    0    0  0.19671334951E+02 -0.13104852645E+03 -0.21442937199E+03  0.25207267459E+03  0.00000000000E+00 0. -1.
          1    1    1    2  501    0 -0.26891140162E+02 -0.11015929840E+02 -0.15341231445E+03  0.15614039309E+03  0.00000000000E+00 0. -1.
<scales pt_clust_5="13000.00000" pt_clust_6="13000.00000" pt_clust_7="13000.00000" pt_clust_8="13000.00000" pt_clust_9="29.06002"></scales>
<clustering>
<clus scale="   29.060">  1  9  2 -1</clus>
<clus scale="   79.445">  5  6 -1 -1</clus>
<clus scale="   91.004">  7  8 -1 -1</clus>
<clus scale="  161.277">  1  5  2 -1</clus>
<clus scale="   29.060">  1  5  2 -1</clus>
</clustering>
</event>
<event>
 9    2  0.1654290E-004  0.2225099E+03  0.7546771E-02  0.1148184E+00
         21   -1    0    0  501  502  0.00000000000E+00  0.00000000000E+00  0.14082766581E+04  0.14082766581E+04  0.00000000000E+00 0.  1.
          2   -1    0    0  502    0 -0.00000000000E+00 -0.00000000000E+00 -0.77080154011E+02  0.77080154011E+02  0.00000000000E+00 0. -1.
         23    2    1    2    0    0  0.51184605345E+02  0.10823063981E+03  0.30186363399E+03  0.33738799570E+03  0.91516506151E+02 0.  0.
         24    2    1    2    0    0  0.65570105317E+02 -0.21949734343E+03  0.92341465528E+03  0.95501646470E+03  0.82965654199E+02 0.  0.
        -13    1    4    4    0    0  0.51561889814E+02 -0.22326100656E+03  0.86860530084E+03  0.89832025145E+03  0.00000000000E+00 0.  1.
         14    1    4    4    0    0  0.14008215503E+02  0.37636631327E+01  0.54809354447E+02  0.56696213248E+02  0.00000000000E+00 0. -1.
        -11    1    3    3    0    0 -0.26121146460E+02  0.19289483366E+02  0.55756001465E+02  0.64522322961E+02  0.00000000000E+00 0. -1.
         11    1    3    3    0    0  0.77305751805E+02  0.88941156448E+02  0.24610763252E+03  0.27286567274E+03  0.00000000000E+00 0.  1.
          1    1    1    2  501    0 -0.11675471066E+03  0.11126670361E+03  0.10591821478E+03  0.19295235168E+03  0.00000000000E+00 0. -1.
<scales pt_clust_5="13000.00000" pt_clust_6="13000.00000" pt_clust_7="13000.00000" pt_clust_8="13000.00000" pt_clust_9="206.46403"></scales>
<clustering>
<clus scale="   82.966">  5  6 -1 -1</clus>
<clus scale="   91.517">  7  8 -1 -1</clus>
<clus scale="  150.695">  2  7  1 -1</clus>
<clus scale="  206.464">  1  9  2 -1</clus>
<clus scale="  206.464">  1  5  2 -1</clus>
</clustering>
</event>
<event>
 9    2  0.1654290E-004  0.1145874E+03  0.7546771E-02  0.1255674E+00
         21   -1    0    0  501  502  0.00000000000E+00  0.00000000000E+00  0.33267967096E+03  0.33267967096E+03  0.00000000000E+00 0.  1.
          4   -1    0    0  502    0 -0.00000000000E+00 -0.00000000000E+00 -0.85585743873E+02  0.85585743873E+02  0.00000000000E+00 0. -1.
         23    2    1    2    0    0  0.43900165451E+02  0.54271302745E+02 -0.22697465865E+02  0.11616952725E+03  0.90042130564E+02 0.  0.
         24    2    1    2    0    0 -0.30527802632E+02 -0.72251402206E+02  0.20835575419E+03  0.23670137884E+03  0.80394095459E+02 0.  0.
        -13    1    4    4    0    0 -0.52647200912E+02 -0.26204965735E+02  0.86779147991E+02  0.10482866268E+03  0.00000000000E+00 0.  1.
         14    1    4    4    0    0  0.22119398279E+02 -0.46046436471E+02  0.12157660620E+03  0.13187271616E+03  0.00000000000E+00 0. -1.
        -11    1    3    3    0    0 -0.27705528909E+02  0.17403381948E+02 -0.12335033807E+02  0.34966084916E+02  0.00000000000E+00 0.  1.
         11    1    3    3    0    0  0.71605694360E+02  0.36867920797E+02 -0.10362432059E+02  0.81203442334E+02  0.00000000000E+00 0. -1.
          3    1    1    2  501    0 -0.13372362819E+02  0.17980099461E+02  0.61435638760E+02  0.65394508744E+02  0.00000000000E+00 0. -1.
<scales pt_clust_5="13000.00000" pt_clust_6="13000.00000" pt_clust_7="13000.00000" pt_clust_8="13000.00000" pt_clust_9="22.40768"></scales>
<clustering>
<clus scale="   22.408">  1  9  2 -1</clus>
<clus scale="   80.394">  5  6 -1 -1</clus>
<clus scale="   90.042">  7  8 -1 -1</clus>
<clus scale="  107.172">  1  5  2 -1</clus>
<clus scale="   22.408">  1  5  2 -1</clus>
</clustering>
</event>
<event>
 9    2  0.1654290E-004  0.8783106E+02  0.7546771E-02  0.1312114E+00
          2   -1    0    0  502    0 -0.00000000000E+00  0.00000000000E+00  0.39759893008E+03  0.39759893008E+03  0.00000000000E+00 0. -1.
         21   -1    0    0  501  502  0.00000000000E+00 -0.00000000000E+00 -0.74933005168E+02  0.74933005168E+02  0.00000000000E+00 0.  1.
         24    2    1    2    0    0  0.82611306778E+01  0.43616731131E+01  0.33264049876E+03  0.34250808561E+03  0.81085244144E+02 0.  0.
         23    2    1    2    0    0 -0.30410854083E+02  0.16964693348E+02  0.83364196137E+01  0.94236748122E+02  0.87169076731E+02 0.  0.
        -11    1    3    3    0    0 -0.35749229730E+02  0.24205261934E+00  0.18371599027E+03  0.18716204503E+03  0.00000000000E+00 0.  1.
         12    1    3    3    0    0  0.44010360408E+02  0.41196204938E+01  0.14892450849E+03  0.15534604058E+03  0.00000000000E+00 0. -1.
        -11    1    4    4    0    0  0.30314228967E+02  0.99989893525E+00 -0.28317883834E+01  0.30462621378E+02  0.00000000000E+00 0. -1.
         11    1    4    4    0    0 -0.60725083050E+02  0.15964794413E+02  0.11168207997E+02  0.63774126744E+02  0.00000000000E+00 0.  1.
          1    1    1    2  501    0  0.22149723405E+02 -0.21326366461E+02 -0.18310993465E+02  0.35787101518E+02  0.00000000000E+00 0. -1.
<scales pt_clust_5="13000.00000" pt_clust_6="13000.00000" pt_clust_7="13000.00000" pt_clust_8="13000.00000" pt_clust_9="30.74775"></scales>
<clustering>
<clus scale="   30.748">  2  9  1 -1</clus>
<clus scale="   81.085">  5  6 -1 -1</clus>
<clus scale="   81.796">  1  5  2 -1</clus>
<clus scale="   87.169">  7  8 -1 -1</clus>
<clus scale="   30.748">  2  5  1 -1</clus>
</clustering>
</event>
<event>
 9    2  0.1654290E-004  0.1254146E+03  0.7546771E-02  0.1236898E+00
         21   -1    0    0  501  502  0.00000000000E+00  0.00000000000E+00  0.35508429684E+02  0.35508429684E+02  0.00000000000E+00 0.  1.
          2   -1    0    0  502    0 -0.00000000000E+00 -0.00000000000E+00 -0.65022176997E+03  0.65022176997E+03  0.00000000000E+00 0. -1.
         24    2    1    2    0    0  0.55958427509E+02  0.83098368344E+02 -0.25371297137E+03  0.28510484146E+03  0.82932589196E+02 0.  0.
         23    2    1    2    0    0 -0.40035137034E+02 -0.55551143387E+02 -0.15747227962E+03  0.19462515452E+03  0.91611626959E+02 0.  0.
        -13    1    3    3    0    0  0.16880288348E+02  0.60773643402E+02 -0.62979700253E+02  0.89133733856E+02  0.00000000000E+00 0.  1.
         14    1    3    3    0    0  0.39078139162E+02  0.22324724942E+02 -0.19073327112E+03  0.19597110760E+03  0.00000000000E+00 0. -1.
        -11    1    4    4    0    0 -0.64215674343E+02 -0.61998924267E+02 -0.12607485937E+03  0.15447455974E+03  0.00000000000E+00 0. -1.
         11    1    4    4    0    0  0.24180537309E+02  0.64477808803E+01 -0.31397420252E+02  0.40150594782E+02  0.00000000000E+00 0.  1.
          1    1    1    2  501    0 -0.15923290475E+02 -0.27547224957E+02 -0.20352808930E+03  0.20600020368E+03  0.00000000000E+00 0. -1.
<scales pt_clust_5="13000.00000" pt_clust_6="13000.00000" pt_clust_7="13000.00000" pt_clust_8="13000.00000" pt_clust_9="31.81826"></scales>
<clustering>
<clus scale="   31.818">  1  9  2 -1</clus>
<clus scale="   82.933">  5  6 -1 -1</clus>
<clus scale="   91.612">  7  8 -1 -1</clus>
<clus scale="  119.222">  2  5  1 -1</clus>
<clus scale="   31.818">  1  5  2 -1</clus>
</clustering>
</event>
<event>
 9    2  0.1654290E-004  0.1329800E+03  0.7546771E-02  0.1234010E+00
          2   -1    0    0  502    0 -0.00000000000E+00  0.00000000000E+00  0.70138543938E+03  0.70138543938E+03  0.00000000000E+00 0. -1.
         21   -1    0    0  501  502  0.00000000000E+00 -0.00000000000E+00 -0.69443926578E+02  0.69443926578E+02  0.00000000000E+00 0.  1.
         24    2    1    2    0    0  0.47431496593E+02  0.58755608763E+02  0.22595445359E+02  0.10847731736E+03  0.74530569573E+02 0.  0.
         23    2    1    2    0    0 -0.77576778030E+02  0.56027963299E+02  0.22733893988E+03  0.26233523405E+03  0.89328003889E+02 0.  0.
        -11    1    3    3    0    0  0.38475130350E+02  0.64297133890E+02 -0.87226749682E+01  0.75435682144E+02  0.00000000000E+00 0.  1.
         12    1    3    3    0    0  0.89563662431E+01 -0.55415251271E+01  0.31318120327E+02  0.33041635218E+02  0.00000000000E+00 0. -1.
        -13    1    4    4    0    0 -0.56292309812E+02 -0.11019375552E+02  0.13136300334E+03  0.14334046682E+03  0.00000000000E+00 0.  1.
         13    1    4    4    0    0 -0.21284468218E+02  0.67047338850E+02  0.95975936542E+02  0.11899476724E+03  0.00000000000E+00 0. -1.
          1    1    1    2  501    0  0.30145281437E+02 -0.11478357206E+03  0.38200712756E+03  0.40001681454E+03  0.00000000000E+00 0. -1.
<scales pt_clust_5="13000.00000" pt_clust_6="13000.00000" pt_clust_7="13000.00000" pt_clust_8="13000.00000" pt_clust_9="98.50991"></scales>
<clustering>
<clus scale="   74.531">  5  6 -1 -1</clus>
<clus scale="   89.328">  7  8 -1 -1</clus>
<clus scale="  106.098">  1  5  2 -1</clus>
<clus scale="   98.510">  2  9  1 -1</clus>
<clus scale="   98.510">  2  5  1 -1</clus>
</clustering>
</event>
<event>
 9    2  0.1654290E-004  0.1266855E+03  0.7546771E-02  0.1237123E+00
         21   -1    0    0  501  502  0.00000000000E+00  0.00000000000E+00  0.17437729873E+03  0.17437729873E+03  0.00000000000E+00 0. -1.
          2   -1    0    0  502    0 -0.00000000000E+00 -0.00000000000E+00 -0.69231205983E+03  0.69231205983E+03  0.00000000000E+00 0. -1.
         23    2    1    2    0    0 -0.10522136824E+02 -0.87110156345E+02 -0.56189998301E+03  0.57644029830E+03  0.94090020210E+02 0.  0.
         24    2    1    2    0    0 -0.20845309576E+02  0.76509901217E+02 -0.95735816056E+02  0.14667795553E+03  0.77851038837E+02 0.  0.
        -13    1    4    4    0    0 -0.28382964926E+02  0.84854279779E+02 -0.56402866442E+02  0.10576920553E+03  0.00000000000E+00 0.  1.
         14    1    4    4    0    0  0.75376553499E+01 -0.83443785622E+01 -0.39332949615E+02  0.40908750007E+02  0.00000000000E+00 0. -1.
        -11    1    3    3    0    0 -0.38103338244E+02 -0.14034869438E+01 -0.14504895783E+03  0.14997677930E+03  0.00000000000E+00 0. -1.
         11    1    3    3    0    0  0.27581201420E+02 -0.85706669402E+02 -0.41685102517E+03  0.42646351900E+03  0.00000000000E+00 0.  1.
          1    1    1    2  501    0  0.31367446401E+02  0.10600255129E+02  0.13970103796E+03  0.14357110472E+03  0.00000000000E+00 0. -1.
<scales pt_clust_5="13000.00000" pt_clust_6="13000.00000" pt_clust_7="13000.00000" pt_clust_8="13000.00000" pt_clust_9="33.11015"></scales>
<clustering>
<clus scale="   33.110">  1  9  2 -1</clus>
<clus scale="   77.851">  5  6 -1 -1</clus>
<clus scale="   94.090">  7  8 -1 -1</clus>
<clus scale="  115.139">  1  5  2 -1</clus>
<clus scale="   33.110">  1  5  2 -1</clus>
</clustering>
</event>
<event>
 9    2  0.1654290E-004  0.9749487E+02  0.7546771E-02  0.1289999E+00
          2   -1    0    0  502    0 -0.00000000000E+00  0.00000000000E+00  0.57840926237E+03  0.57840926237E+03  0.00000000000E+00 0. -1.
         21   -1    0    0  501  502  0.00000000000E+00 -0.00000000000E+00 -0.71693461605E+02  0.71693461605E+02  0.00000000000E+00 0. -1.
         23    2    1    2    0    0 -0.40107190716E+02  0.17446479594E+02  0.50669349196E+03  0.51614310744E+03  0.88047976518E+02 0.  0.
         24    2    1    2    0    0  0.14081742479E+02 -0.36696120956E+02  0.26040998752E+02  0.92428364744E+02  0.79498227835E+02 0.  0.
        -11    1    4    4    0    0  0.14393963531E+02  0.23672834557E+02  0.32314005522E+01  0.27893211210E+02  0.00000000000E+00 0.  1.
         12    1    4    4    0    0 -0.31222105159E+00 -0.60368955512E+02  0.22809598200E+02  0.64535153534E+02  0.00000000000E+00 0. -1.
        -13    1    3    3    0    0 -0.17921540384E+02 -0.35827484249E+02  0.23479057973E+03  0.23818355646E+03  0.00000000000E+00 0.  1.
         13    1    3    3    0    0 -0.22185650332E+02  0.53273963843E+02  0.27190291223E+03  0.27795955098E+03  0.00000000000E+00 0. -1.
          1    1    1    2  501    0  0.26025448237E+02  0.19249641362E+02 -0.26018689947E+02  0.41531251787E+02  0.00000000000E+00 0. -1.
<scales pt_clust_5="13000.00000" pt_clust_6="13000.00000" pt_clust_7="13000.00000" pt_clust_8="13000.00000" pt_clust_9="32.37086"></scales>
<clustering>
<clus scale="   32.371">  2  9  1 -1</clus>
<clus scale="   79.498">  5  6 -1 -1</clus>
<clus scale="   88.048">  7  8 -1 -1</clus>
<clus scale="   89.849">  2  5  1 -1</clus>
<clus scale="   32.371">  2  5  1 -1</clus>
</clustering>
</event>
<event>
 9    2  0.1654290E-004  0.1026979E+03  0.7546771E-02  0.1278650E+00
         21   -1    0    0  501  502  0.00000000000E+00  0.00000000000E+00  0.31085920315E+02  0.31085920315E+02  0.00000000000E+00 0. -1.
          2   -1    0    0  502    0 -0.00000000000E+00 -0.00000000000E+00 -0.13528223545E+04  0.13528223545E+04  0.00000000000E+00 0. -1.
         24    2    1    2    0    0 -0.27369802891E+02 -0.60749502420E+02 -0.96616322425E+03  0.97177218988E+03  0.80188558898E+02 0.  0.
         23    2    1    2    0    0 -0.42481797201E+02  0.19810795659E+02 -0.29316432027E+03  0.30991038730E+03  0.88892962368E+02 0.  0.
        -11    1    3    3    0    0 -0.36501445765E+02 -0.36480732643E+02 -0.25673824879E+03  0.26187349577E+03  0.00000000000E+00 0.  1.
         12    1    3    3    0    0  0.91316428748E+01 -0.24268769777E+02 -0.70942497546E+03  0.70989869411E+03  0.00000000000E+00 0. -1.
        -13    1    4    4    0    0  0.12163815738E+02  0.39220063633E+02 -0.14802123533E+03  0.15361138602E+03  0.00000000000E+00 0.  1.
         13    1    4    4    0    0 -0.54645612938E+02 -0.19409267974E+02 -0.14514308494E+03  0.15629900129E+03  0.00000000000E+00 0. -1.
          1    1    1    2  501    0  0.69851600091E+02  0.40938706760E+02 -0.62408889650E+02  0.10222569762E+03  0.00000000000E+00 0. -1.
<scales pt_clust_5="13000.00000" pt_clust_6="13000.00000" pt_clust_7="13000.00000" pt_clust_8="13000.00000" pt_clust_9="80.96434"></scales>
<clustering>
<clus scale="   80.189">  5  6 -1 -1</clus>
<clus scale="   80.964">  1  9  2 -1</clus>
<clus scale="   88.893">  7  8 -1 -1</clus>
<clus scale="   95.263">  2  5  1 -1</clus>
<clus scale="   80.964">  1  5  2 -1</clus>
</clustering>
</event>
<event>
 9    2  0.1654290E-004  0.2344133E+03  0.7546771E-02  0.1165367E+00
         -1   -1    0    0    0  501 -0.00000000000E+00  0.00000000000E+00  0.90243463920E+03  0.90243463920E+03  0.00000000000E+00 0.  1.
         21   -1    0    0  501  502  0.00000000000E+00 -0.00000000000E+00 -0.16584202980E+03  0.16584202980E+03  0.00000000000E+00 0.  1.
         24    2    1    2    0    0 -0.22194467763E+02  0.31328832980E+02 -0.52897058513E+02  0.10113329974E+03  0.77173540421E+02 0.  0.
         23    2    1    2    0    0 -0.27405094024E+02  0.20541733950E+03  0.12428485338E+03  0.25932537570E+03  0.94104214349E+02 0.  0.
        -11    1    3    3    0    0 -0.35972829022E+02  0.45808554325E+02 -0.18079311739E+02  0.60986306579E+02  0.00000000000E+00 0.  1.
         12    1    3    3    0    0  0.13778361260E+02 -0.14479721345E+02 -0.34817746773E+02  0.40146993157E+02  0.00000000000E+00 0. -1.
        -13    1    4    4    0    0 -0.51724506694E+02  0.17010544055E+03  0.12343138191E+03  0.21644073447E+03  0.00000000000E+00 0.  1.
         13    1    4    4    0    0  0.24319412670E+02  0.35311898949E+02  0.85347146683E+00  0.42884641231E+02  0.00000000000E+00 0. -1.
         -2    1    1    2    0  502  0.49599561786E+02 -0.23674617248E+03  0.66520481454E+03  0.70781799356E+03  0.00000000000E+00 0.  1.
<scales pt_clust_5="13000.00000" pt_clust_6="13000.00000" pt_clust_7="13000.00000" pt_clust_8="13000.00000" pt_clust_9="214.69527"></scales>
<clustering>
<clus scale="   77.174">  5  6 -1 -1</clus>
<clus scale="   86.197">  1  5  2 -1</clus>
<clus scale="   94.104">  7  8 -1 -1</clus>
<clus scale="  214.695">  2  9  1 -1</clus>
<clus scale="  214.695">  2  5  1 -1</clus>
</clustering>
</event>
<event>
 9    2  0.1654290E-004  0.1277410E+03  0.7546771E-02  0.1237316E+00
         21   -1    0    0  501  502  0.00000000000E+00  0.00000000000E+00  0.17670080265E+02  0.17670080265E+02  0.00000000000E+00 0.  1.
          2   -1    0    0  502    0 -0.00000000000E+00 -0.00000000000E+00 -0.10281674304E+04  0.10281674304E+04  0.00000000000E+00 0. -1.
         23    2    1    2    0    0 -0.52789340613E+01  0.97776150184E+02 -0.57665523211E+03  0.59260088052E+03  0.95165667048E+02 0.  0.
         24    2    1    2    0    0  0.52860498575E+01 -0.71599167616E+02 -0.30038449493E+03  0.31723599915E+03  0.72480695634E+02 0.  0.
        -13    1    4    4    0    0 -0.18715098418E+02 -0.67442488083E+02 -0.15835735615E+03  0.17313519675E+03  0.00000000000E+00 0.  1.
         14    1    4    4    0    0  0.24001148276E+02 -0.41566795331E+01 -0.14202713878E+03  0.14410080240E+03  0.00000000000E+00 0. -1.
        -11    1    3    3    0    0 -0.24590432765E+02  0.10592644937E+03 -0.53533723550E+03  0.54627013260E+03  0.00000000000E+00 0. -1.
         11    1    3    3    0    0  0.19311498703E+02 -0.81502991840E+01 -0.41317996611E+02  0.46330747921E+02  0.00000000000E+00 0.  1.
          1    1    1    2  501    0 -0.71157961144E-02 -0.26176982569E+02 -0.13345762311E+03  0.13600063101E+03  0.00000000000E+00 0. -1.
<scales pt_clust_5="13000.00000" pt_clust_6="13000.00000" pt_clust_7="13000.00000" pt_clust_8="13000.00000" pt_clust_9="26.17700"></scales>
<clustering>
<clus scale="   26.177">  1  9  2 -1</clus>
<clus scale="   72.481">  5  6 -1 -1</clus>
<clus scale="   95.166">  7  8 -1 -1</clus>
<clus scale="  111.869">  1  5  2 -1</clus>
<clus scale="   26.177">  1  5  2 -1</clus>
</clustering>
</event>
<event>
 9    2  0.1654290E-004  0.2017423E+03  0.7546771E-02  0.1149511E+00
          2   -1    0    0  502    0 -0.00000000000E+00  0.00000000000E+00  0.11787676543E+04  0.11787676543E+04  0.00000000000E+00 0. -1.
         21   -1    0    0  501  502  0.00000000000E+00 -0.00000000000E+00 -0.16408326659E+03  0.16408326659E+03  0.00000000000E+00 0. -1.
         24    2    1    2    0    0  0.73363387450E+02  0.17370710505E+03  0.90836627981E+03  0.93119927127E+03  0.80289722588E+02 0.  0.
         23    2    1    2    0    0 -0.17922771577E+03 -0.54422495174E+02  0.13564468411E+03  0.24949085829E+03  0.93604625749E+02 0.  0.
        -11    1    3    3    0    0  0.30456112914E+02  0.62012938066E+01  0.17366074783E+03  0.17642019781E+03  0.00000000000E+00 0.  1.
         12    1    3    3    0    0  0.42907274536E+02  0.16750581125E+03  0.73470553198E+03  0.75477907346E+03  0.00000000000E+00 0. -1.
        -11    1    4    4    0    0 -0.77486033194E+02 -0.61729809764E+02  0.10172511185E+03  0.14199525744E+03  0.00000000000E+00 0.  1.
         11    1    4    4    0    0 -0.10174168257E+03  0.73073145905E+01  0.33919572253E+02  0.10749560085E+03  0.00000000000E+00 0. -1.
          1    1    1    2  501    0  0.10586432832E+03 -0.11928460988E+03 -0.29326576228E+02  0.16216079131E+03  0.00000000000E+00 0. -1.
<scales pt_clust_5="13000.00000" pt_clust_6="13000.00000" pt_clust_7="13000.00000" pt_clust_8="13000.00000" pt_clust_9="159.48691"></scales>
<clustering>
<clus scale="   80.290">  5  6 -1 -1</clus>
<clus scale="   93.605">  7  8 -1 -1</clus>
<clus scale="  159.487">  2  9  1 -1</clus>
<clus scale="  195.920">  1  5  2 -1</clus>
<clus scale="  159.487">  2  5  1 -1</clus>
</clustering>
</event>
<event>
 9    2  0.1654290E-004  0.1549814E+03  0.7546771E-02  0.1196577E+00
         21   -1    0    0  501  502  0.00000000000E+00  0.00000000000E+00  0.19943824483E+03  0.19943824483E+03  0.00000000000E+00 0.  1.
          4   -1    0    0  502    0 -0.00000000000E+00 -0.00000000000E+00 -0.14415351544E+03  0.14415351544E+03  0.00000000000E+00 0. -1.
         23    2    1    2    0    0  0.13626586147E+03 -0.12155055313E+02 -0.11018084978E+02  0.16525383789E+03  0.92039678241E+02 0.  0.
         24    2    1    2    0    0 -0.10695137643E+03  0.19089479056E+02  0.60081402668E+02  0.14757867613E+03  0.79791513159E+02 0.  0.
        -11    1    4    4    0    0 -0.10334896028E+03 -0.76792738448E+01  0.61541113368E+02  0.12052919759E+03  0.00000000000E+00 0.  1.
         12    1    4    4    0    0 -0.36024161468E+01  0.26768752901E+02 -0.14597106997E+01  0.27049478540E+02  0.00000000000E+00 0. -1.
        -13    1    3    3    0    0  0.80800963756E+02 -0.22523220698E+02  0.36506223980E+02  0.91481121571E+02  0.00000000000E+00 0. -1.
         13    1    3    3    0    0  0.55464897711E+02  0.10368165385E+02 -0.47524308959E+02  0.73772716322E+02  0.00000000000E+00 0.  1.
          3    1    1    2  501    0 -0.29314485040E+02 -0.69344237425E+01  0.62214117030E+01  0.30759246242E+02  0.00000000000E+00 0. -1.
<scales pt_clust_5="13000.00000" pt_clust_6="13000.00000" pt_clust_7="13000.00000" pt_clust_8="13000.00000" pt_clust_9="30.12350"></scales>
<clustering>
<clus scale="   30.124">  1  9  2 -1</clus>
<clus scale="   79.792">  5  6 -1 -1</clus>
<clus scale="   92.040">  7  8 -1 -1</clus>
<clus scale="  148.036">  1  5  2 -1</clus>
<clus scale="   30.124">  1  5  2 -1</clus>
</clustering>
</event>
<event>
 9    2  0.1654290E-004  0.9729506E+02  0.7546771E-02  0.1295873E+00
          2   -1    0    0  502    0 -0.00000000000E+00  0.00000000000E+00  0.13404402115E+03  0.13404402115E+03  0.00000000000E+00 0. -1.
         21   -1    0    0  501  502  0.00000000000E+00 -0.00000000000E+00 -0.12527890490E+03  0.12527890490E+03  0.00000000000E+00 0.  1.
         23    2    1    2    0    0 -0.29314995337E+02  0.27243579693E+02  0.71275798083E+02  0.12268516376E+03  0.91486766407E+02 0.  0.
         24    2    1    2    0    0 -0.11421321204E+02 -0.28023781806E+02 -0.48903281810E+02  0.93681766948E+02  0.73952441217E+02 0.  0.
        -11    1    4    4    0    0  0.39853443565E+01 -0.46355993669E+02 -0.51722411469E+02  0.69569885488E+02  0.00000000000E+00 0.  1.
         12    1    4    4    0    0 -0.15406665561E+02  0.18332211863E+02  0.28191296587E+01  0.24111881460E+02  0.00000000000E+00 0. -1.
        -13    1    3    3    0    0  0.29464720480E+02  0.23465775258E+01  0.44588946613E+02  0.53496264721E+02  0.00000000000E+00 0. -1.
         13    1    3    3    0    0 -0.58779715817E+02  0.24897002168E+02  0.26686851470E+02  0.69188899036E+02  0.00000000000E+00 0.  1.
          1    1    1    2  501    0  0.40736316541E+02  0.78020211256E+00 -0.13607400018E+02  0.42955995343E+02  0.00000000000E+00 0. -1.
<scales pt_clust_5="13000.00000" pt_clust_6="13000.00000" pt_clust_7="13000.00000" pt_clust_8="13000.00000" pt_clust_9="40.74379"></scales>
<clustering>
<clus scale="   40.744">  2  9  1 -1</clus>
<clus scale="   73.952">  5  6 -1 -1</clus>
<clus scale="   81.028">  2  5  1 -1</clus>
<clus scale="   91.487">  7  8 -1 -1</clus>
<clus scale="   40.744">  2  5  1 -1</clus>
</clustering>
</event>
<event>
 9    2  0.1654290E-004  0.1084662E+03  0.7546771E-02  0.1266914E+00
          2   -1    0    0  502    0 -0.00000000000E+00  0.00000000000E+00  0.23254955651E+03  0.23254955651E+03  0.00000000000E+00 0. -1.
         21   -1    0    0  501  502  0.00000000000E+00 -0.00000000000E+00 -0.12791192611E+03  0.12791192611E+03  0.00000000000E+00 0. -1.
         24    2    1    2    0    0  0.47861454319E+02  0.47685388348E+02  0.16418261162E+03  0.19531920716E+03  0.81418963742E+02 0.  0.
         23    2    1    2    0    0 -0.93120637263E+01 -0.16274772680E+02 -0.68346800369E+02  0.11464322287E+03  0.90112156078E+02 0.  0.
        -11    1    3    3    0    0  0.21826059190E+01  0.35034124017E+02  0.13925358029E+02  0.37763331559E+02  0.00000000000E+00 0.  1.
         12    1    3    3    0    0  0.45678848400E+02  0.12651264331E+02  0.15025725359E+03  0.15755587560E+03  0.00000000000E+00 0. -1.
        -13    1    4    4    0    0 -0.20072402171E+02  0.21874834351E+02 -0.68875488062E+02  0.75001617066E+02  0.00000000000E+00 0. -1.
         13    1    4    4    0    0  0.10760338444E+02 -0.38149607032E+02  0.52868769320E+00  0.39641605805E+02  0.00000000000E+00 0.  1.
          1    1    1    2  501    0 -0.38549390593E+02 -0.31410615667E+02  0.88018191458E+01  0.50499052585E+02  0.00000000000E+00 0. -1.
<scales pt_clust_5="13000.00000" pt_clust_6="13000.00000" pt_clust_7="13000.00000" pt_clust_8="13000.00000" pt_clust_9="49.72607"></scales>
<clustering>
<clus scale="   49.726">  2  9  1 -1</clus>
<clus scale="   81.419">  5  6 -1 -1</clus>
<clus scale="   90.112">  7  8 -1 -1</clus>
<clus scale="  101.360">  1  5  2 -1</clus>
<clus scale="   49.726">  2  5  1 -1</clus>
</clustering>
</event>
<event>
 9    2  0.1654290E-004  0.2058581E+03  0.7546771E-02  0.1145755E+00
         21   -1    0    0  501  502  0.00000000000E+00  0.00000000000E+00  0.13201559505E+03  0.13201559505E+03  0.00000000000E+00 0. -1.
         -3   -1    0    0    0  501 -0.00000000000E+00 -0.00000000000E+00 -0.50969106341E+03  0.50969106341E+03  0.00000000000E+00 0.  1.
         23    2    1    2    0    0 -0.13506515885E+03 -0.11956221485E+03 -0.30093109404E+03  0.36231026890E+03  0.90396278874E+02 0.  0.
         24    2    1    2    0    0  0.16543414333E+03  0.10579155418E+03 -0.10404495341E+03  0.23630082212E+03  0.80326941233E+02 0.  0.
        -13    1    4    4    0    0  0.23043117610E+02 -0.13229483462E+02 -0.13706478253E+02  0.29897693021E+02  0.00000000000E+00 0.  1.
         14    1    4    4    0    0  0.14239102572E+03  0.11902103764E+03 -0.90338475152E+02  0.20640312910E+03  0.00000000000E+00 0. -1.
        -11    1    3    3    0    0 -0.21056123701E+02  0.41967941717E+01 -0.52513336804E+01  0.22103165657E+02  0.00000000000E+00 0. -1.
         11    1    3    3    0    0 -0.11400903514E+03 -0.12375900902E+03 -0.29567976036E+03  0.34020710324E+03  0.00000000000E+00 0.  1.
         -4    1    1    2    0  502 -0.30368984489E+02  0.13770660673E+02  0.27300579091E+02  0.43095567440E+02  0.00000000000E+00 0.  1.
<scales pt_clust_5="13000.00000" pt_clust_6="13000.00000" pt_clust_7="13000.00000" pt_clust_8="13000.00000" pt_clust_9="33.34526"></scales>
<clustering>
<clus scale="   33.345">  1  9  2 -1</clus>
<clus scale="   80.327">  5  6 -1 -1</clus>
<clus scale="   90.396">  7  8 -1 -1</clus>
<clus scale="  201.639">  1  5  2 -1</clus>
<clus scale="   33.345">  1  5  2 -1</clus>
</clustering>
</event>
<event>
 9    2  0.1654290E-004  0.3924518E+03  0.7546771E-02  0.1046697E+00
         21   -1    0    0  501  502  0.00000000000E+00  0.00000000000E+00  0.54889548175E+03  0.54889548175E+03  0.00000000000E+00 0. -1.
          2   -1    0    0  502    0 -0.00000000000E+00 -0.00000000000E+00 -0.45330861704E+03  0.45330861704E+03  0.00000000000E+00 0. -1.
         24    2    1    2    0    0  0.30082153600E+03 -0.27420059693E+03 -0.18695853285E+03  0.45480374781E+03  0.78825073029E+02 0.  0.
         23    2    1    2    0    0 -0.18817896369E+03  0.25603961357E+03  0.27955733649E+03  0.43326403369E+03  0.92724389533E+02 0.  0.
        -13    1    3    3    0    0  0.31843832633E+02 -0.54768044610E+02 -0.68275071628E+01  0.63719567177E+02  0.00000000000E+00 0.  1.
         14    1    3    3    0    0  0.26897770337E+03 -0.21943255233E+03 -0.18013102568E+03  0.39108418064E+03  0.00000000000E+00 0. -1.
        -13    1    4    4    0    0 -0.11466858270E+03  0.11856822333E+03  0.19674848494E+03  0.25674359538E+03  0.00000000000E+00 0. -1.
         13    1    4    4    0    0 -0.73510380981E+02  0.13747139024E+03  0.82808851554E+02  0.17652043831E+03  0.00000000000E+00 0.  1.
          1    1    1    2  501    0 -0.11264257232E+03  0.18160983365E+02  0.29880610606E+01  0.11413631729E+03  0.00000000000E+00 0. -1.
<scales pt_clust_5="13000.00000" pt_clust_6="13000.00000" pt_clust_7="13000.00000" pt_clust_8="13000.00000" pt_clust_9="114.09725"></scales>
<clustering>
<clus scale="   78.825">  5  6 -1 -1</clus>
<clus scale="   92.724">  7  8 -1 -1</clus>
<clus scale="  114.097">  1  9  2 -1</clus>
<clus scale="  389.402">  2  5  1 -1</clus>
<clus scale="  114.097">  1  5  2 -1</clus>
</clustering>
</event>
<event>
 9    2  0.1654290E-004  0.1068965E+03  0.7546771E-02  0.1271166E+00
          2   -1    0    0  502    0 -0.00000000000E+00  0.00000000000E+00  0.62963745691E+03  0.62963745691E+03  0.00000000000E+00 0. -1.
         21   -1    0    0  501  502  0.00000000000E+00 -0.00000000000E+00 -0.77029764569E+02  0.77029764569E+02  0.00000000000E+00 0. -1.
         24    2    1    2    0    0 -0.34372014020E+02  0.51850270798E+02  0.38091292641E+03  0.39423997703E+03  0.80377957485E+02 0.  0.
         23    2    1    2    0    0 -0.93384040742E+00 -0.49332641938E+02  0.22533043961E+03  0.24816506815E+03  0.91528751862E+02 0.  0.
        -11    1    3    3    0    0 -0.31384242067E+02  0.17520183117E+02  0.50225189841E+02  0.61761615597E+02  0.00000000000E+00 0.  1.
         12    1    3    3    0    0 -0.29877719534E+01  0.34330087681E+02  0.33068773657E+03  0.33247836143E+03  0.00000000000E+00 0. -1.
        -13    1    4    4    0    0  0.28083223629E+02 -0.27434260941E+02  0.20009908646E+03  0.20391407633E+03  0.00000000000E+00 0.  1.
         13    1    4    4    0    0 -0.29017064037E+02 -0.21898380997E+02  0.25231353151E+02  0.44250991825E+02  0.00000000000E+00 0. -1.
          1    1    1    2  501    0  0.35305854427E+02 -0.25176288595E+01 -0.53635673680E+02  0.64262176302E+02  0.00000000000E+00 0. -1.
<scales pt_clust_5="13000.00000" pt_clust_6="13000.00000" pt_clust_7="13000.00000" pt_clust_8="13000.00000" pt_clust_9="35.39551"></scales>
<clustering>
<clus scale="   35.396">  2  9  1 -1</clus>
<clus scale="   80.378">  5  6 -1 -1</clus>
<clus scale="   91.529">  7  8 -1 -1</clus>
<clus scale="   97.519">  1  5  2 -1</clus>
<clus scale="   35.396">  2  5  1 -1</clus>
</clustering>
</event>
<event>
 9    2  0.1654290E-004  0.1062364E+03  0.7546771E-02  0.1274896E+00
          2   -1    0    0  502    0 -0.00000000000E+00  0.00000000000E+00  0.10852145689E+03  0.10852145689E+03  0.00000000000E+00 0. -1.
         21   -1    0    0  501  502  0.00000000000E+00 -0.00000000000E+00 -0.13134548415E+03  0.13134548415E+03  0.00000000000E+00 0. -1.
         23    2    1    2    0    0 -0.32717808081E+02 -0.51596540475E+02  0.32331459194E+02  0.11470893548E+03  0.91543206579E+02 0.  0.
         24    2    1    2    0    0  0.30150036263E+02  0.28175138272E+02 -0.54526398933E+02  0.10158787013E+03  0.75127252535E+02 0.  0.
        -11    1    4    4    0    0  0.13280100465E+02  0.31247123217E+02  0.95395953571E+01  0.35266806735E+02  0.00000000000E+00 0.  1.
         12    1    4    4    0    0  0.16869935798E+02 -0.30719849455E+01 -0.64065994290E+02  0.66321063394E+02  0.00000000000E+00 0. -1.
        -13    1    3    3    0    0 -0.15989825146E+02  0.25649530013E+02  0.28755472783E+01  0.30361845633E+02  0.00000000000E+00 0.  1.
         13    1    3    3    0    0 -0.16727982935E+02 -0.77246070488E+02  0.29455911916E+02  0.84347089847E+02  0.00000000000E+00 0. -1.
          1    1    1    2  501    0  0.25677718180E+01  0.23421402203E+02 -0.62908751634E+00  0.23570135434E+02  0.00000000000E+00 0. -1.
<scales pt_clust_5="13000.00000" pt_clust_6="13000.00000" pt_clust_7="13000.00000" pt_clust_8="13000.00000" pt_clust_9="23.56175"></scales>
<clustering>
<clus scale="   23.562">  2  9  1 -1</clus>
<clus scale="   75.127">  5  6 -1 -1</clus>
<clus scale="   91.543">  7  8 -1 -1</clus>
<clus scale="   92.467">  2  5  1 -1</clus>
<clus scale="   23.562">  2  5  1 -1</clus>
</clustering>
</event>
<event>
 9    2  0.1654290E-004  0.1599251E+03  0.7546771E-02  0.1190302E+00
         21   -1    0    0  501  502  0.00000000000E+00  0.00000000000E+00  0.21533092775E+03  0.21533092775E+03  0.00000000000E+00 0. -1.
          2   -1    0    0  502    0 -0.00000000000E+00 -0.00000000000E+00 -0.76518029026E+03  0.76518029026E+03  0.00000000000E+00 0. -1.
         24    2    1    2    0    0  0.48336119856E+02  0.12018118552E+03 -0.67021895536E+03  0.68749769346E+03  0.81729630823E+02 0.  0.
         23    2    1    2    0    0  0.42159705273E+00 -0.16886097980E+03  0.59261005917E+02  0.20091956858E+03  0.91337823336E+02 0.  0.
        -11    1    3    3    0    0 -0.23231218621E+02  0.25794938903E+02 -0.15241212413E+03  0.15631546300E+03  0.00000000000E+00 0.  1.
         12    1    3    3    0    0  0.71567338477E+02  0.94386246620E+02 -0.51780683123E+03  0.53118223046E+03  0.00000000000E+00 0. -1.
        -13    1    4    4    0    0  0.25601050566E+02 -0.16442101093E+03  0.52102486373E+02  0.17436843668E+03  0.00000000000E+00 0. -1.
         13    1    4    4    0    0 -0.25179453514E+02 -0.44399688719E+01  0.71585195432E+01  0.26551131894E+02  0.00000000000E+00 0.  1.
          1    1    1    2  501    0 -0.48757716909E+02  0.48679794279E+02  0.61108586936E+02  0.92093955972E+02  0.00000000000E+00 0. -1.
<scales pt_clust_5="13000.00000" pt_clust_6="13000.00000" pt_clust_7="13000.00000" pt_clust_8="13000.00000" pt_clust_9="68.89875"></scales>
<clustering>
<clus scale="   68.899">  1  9  2 -1</clus>
<clus scale="   81.730">  5  6 -1 -1</clus>
<clus scale="   91.338">  7  8 -1 -1</clus>
<clus scale="  154.639">  2  5  1 -1</clus>
<clus scale="   68.899">  1  5  2 -1</clus>
</clustering>
</event>
<event>
 9    2  0.1654290E-004  0.1088762E+03  0.7546771E-02  0.1266182E+00
         21   -1    0    0  501  502  0.00000000000E+00  0.00000000000E+00  0.23489440119E+03  0.23489440119E+03  0.00000000000E+00 0. -1.
          2   -1    0    0  502    0 -0.00000000000E+00 -0.00000000000E+00 -0.11950222757E+03  0.11950222757E+03  0.00000000000E+00 0. -1.
         23    2    1    2    0    0  0.46614658145E+02  0.54986674246E+02 -0.37762294846E+02  0.12154003103E+03  0.90274733627E+02 0.  0.
         24    2    1    2    0    0  0.20508725287E+02 -0.56593638152E+02  0.58927554256E+02  0.11715507528E+03  0.81421172443E+02 0.  0.
        -13    1    4    4    0    0 -0.30743181862E+02 -0.29857362613E+02  0.31406622162E+02  0.53131734856E+02  0.00000000000E+00 0.  1.
         14    1    4    4    0    0  0.51251907150E+02 -0.26736275539E+02  0.27520932094E+02  0.64023340427E+02  0.00000000000E+00 0. -1.
        -11    1    3    3    0    0 -0.22661960026E+02  0.54331643439E+01  0.82622617121E+01  0.24725466135E+02  0.00000000000E+00 0.  1.
         11    1    3    3    0    0  0.69276618171E+02  0.49553509902E+02 -0.46024556559E+02  0.96814564892E+02  0.00000000000E+00 0. -1.
          1    1    1    2  501    0 -0.67123383432E+02  0.16069639053E+01  0.94226914209E+02  0.11570152245E+03  0.00000000000E+00 0. -1.
<scales pt_clust_5="13000.00000" pt_clust_6="13000.00000" pt_clust_7="13000.00000" pt_clust_8="13000.00000" pt_clust_9="67.14262"></scales>
<clustering>
<clus scale="   67.143">  1  9  2 -1</clus>
<clus scale="   81.421">  5  6 -1 -1</clus>
<clus scale="   90.275">  7  8 -1 -1</clus>
<clus scale="  101.656">  1  5  2 -1</clus>
<clus scale="   67.143">  1  5  2 -1</clus>
</clustering>
</event>
<event>
 9    2  0.1654290E-004  0.1040634E+03  0.7546771E-02  0.1276893E+00
         21   -1    0    0  501  502  0.00000000000E+00  0.00000000000E+00  0.11667786393E+03  0.11667786393E+03  0.00000000000E+00 0. -1.
          2   -1    0    0  502    0 -0.00000000000E+00 -0.00000000000E+00 -0.25047099852E+03  0.25047099852E+03  0.00000000000E+00 0. -1.
         24    2    1    2    0    0  0.29269553684E+02  0.53741027748E+02 -0.17081621699E+03  0.19864181121E+03  0.80842960983E+02 0.  0.
         23    2    1    2    0    0 -0.92692735246E+01 -0.14812017857E+02 -0.21192957930E+02  0.95674459844E+02  0.91646852079E+02 0.  0.
        -13    1    3    3    0    0 -0.17142832594E+02  0.25358541430E+02 -0.15987029034E+02  0.34532845671E+02  0.00000000000E+00 0.  1.
         14    1    3    3    0    0  0.46412386278E+02  0.28382486318E+02 -0.15482918795E+03  0.16410896554E+03  0.00000000000E+00 0. -1.
        -11    1    4    4    0    0 -0.28666931872E+01 -0.51972445164E+02  0.73031806628E+00  0.52056568756E+02  0.00000000000E+00 0.  1.
         11    1    4    4    0    0 -0.64025803373E+01  0.37160427307E+02 -0.21923275996E+02  0.43617891088E+02  0.00000000000E+00 0. -1.
          1    1    1    2  501    0 -0.20000280159E+02 -0.38929009890E+02  0.58216040323E+02  0.72832591388E+02  0.00000000000E+00 0. -1.
<scales pt_clust_5="13000.00000" pt_clust_6="13000.00000" pt_clust_7="13000.00000" pt_clust_8="13000.00000" pt_clust_9="43.76619"></scales>
<clustering>
<clus scale="   43.766">  1  9  2 -1</clus>
<clus scale="   80.843">  5  6 -1 -1</clus>
<clus scale="   91.647">  7  8 -1 -1</clus>
<clus scale="   94.687">  2  5  1 -1</clus>
<clus scale="   43.766">  1  5  2 -1</clus>
</clustering>
</event>
<event>
 9    2  0.1654290E-004  0.9601922E+02  0.7546771E-02  0.1291897E+00
         21   -1    0    0  501  502  0.00000000000E+00  0.00000000000E+00  0.21386679415E+02  0.21386679415E+02  0.00000000000E+00 0.  1.
          2   -1    0    0  502    0 -0.00000000000E+00 -0.00000000000E+00 -0.11170709823E+04  0.11170709823E+04  0.00000000000E+00 0. -1.
         23    2    1    2    0    0  0.95742321240E+01  0.52975937332E+02 -0.55753549020E+03  0.56549754902E+03  0.77740203636E+02 0.  0.
         24    2    1    2    0    0 -0.70476638317E+02 -0.23686903143E+01 -0.38862487819E+03  0.40376317561E+03  0.83802379382E+02 0.  0.
        -11    1    4    4    0    0 -0.36150159460E+02 -0.73245272902E+01 -0.44076611803E+02  0.57473736933E+02  0.00000000000E+00 0.  1.
         12    1    4    4    0    0 -0.34326478858E+02  0.49558369759E+01 -0.34454826638E+03  0.34628943868E+03  0.00000000000E+00 0. -1.
        -13    1    3    3    0    0 -0.20202480509E+02  0.60507936794E+02 -0.38520034001E+03  0.39044673462E+03  0.00000000000E+00 0.  1.
         13    1    3    3    0    0  0.29776712633E+02 -0.75319994620E+01 -0.17233515019E+03  0.17505081440E+03  0.00000000000E+00 0. -1.
          1    1    1    2  501    0  0.60902406193E+02 -0.50607247018E+02 -0.14952393450E+03  0.16919693709E+03  0.00000000000E+00 0. -1.
<scales pt_clust_5="13000.00000" pt_clust_6="13000.00000" pt_clust_7="13000.00000" pt_clust_8="13000.00000" pt_clust_9="79.18457"></scales>
<clustering>
<clus scale="   77.740">  7  8 -1 -1</clus>
<clus scale="   79.185">  1  9  2 -1</clus>
<clus scale="   83.802">  5  6 -1 -1</clus>
<clus scale="   90.777">  2  7  1 -1</clus>
<clus scale="   79.185">  1  5  2 -1</clus>
</clustering>
</event>
<event>
 9    2  0.1654290E-004  0.1018956E+03  0.7546771E-02  0.1282636E+00
         -3   -1    0    0    0  501 -0.00000000000E+00  0.00000000000E+00  0.10261935042E+03  0.10261935042E+03  0.00000000000E+00 0.  1.
         21   -1    0    0  501  502  0.00000000000E+00 -0.00000000000E+00 -0.18425284338E+03  0.18425284338E+03  0.00000000000E+00 0.  1.
         23    2    1    2    0    0 -0.44715690802E+02  0.18034281933E+02  0.36392149442E+02  0.10963230414E+03  0.91488388560E+02 0.  0.
         24    2    1    2    0    0  0.21178406379E+02 -0.39926733475E+02 -0.53627471602E+02  0.10526484124E+03  0.78499121958E+02 0.  0.
        -13    1    4    4    0    0  0.44154230195E+01 -0.61846933111E+02 -0.29744204533E+02  0.68769592110E+02  0.00000000000E+00 0.  1.
         14    1    4    4    0    0  0.16762983359E+02  0.21920199636E+02 -0.23883267069E+02  0.36495249130E+02  0.00000000000E+00 0. -1.
        -11    1    3    3    0    0 -0.48942159907E+02 -0.27687770643E+02  0.11474492417E+02  0.57389995955E+02  0.00000000000E+00 0.  1.
         11    1    3    3    0    0  0.42264691045E+01  0.45722052576E+02  0.24917657025E+02  0.52242308185E+02  0.00000000000E+00 0. -1.
         -4    1    1    2    0  502  0.23537284424E+02  0.21892451542E+02 -0.64398170801E+02  0.71975048420E+02  0.00000000000E+00 0.  1.
<scales pt_clust_5="13000.00000" pt_clust_6="13000.00000" pt_clust_7="13000.00000" pt_clust_8="13000.00000" pt_clust_9="32.14472"></scales>
<clustering>
<clus scale="   32.145">  2  9  1 -1</clus>
<clus scale="   78.499">  5  6 -1 -1</clus>
<clus scale="   90.414">  2  5  1 -1</clus>
<clus scale="   91.488">  7  8 -1 -1</clus>
<clus scale="   32.145">  2  5  1 -1</clus>
</clustering>
</event>
<event>
 9    2  0.1654290E-004  0.1123414E+03  0.7546771E-02  0.1259944E+00
         -3   -1    0    0    0  501 -0.00000000000E+00  0.00000000000E+00  0.15893878315E+03  0.15893878315E+03  0.00000000000E+00 0.  1.
         21   -1    0    0  501  502  0.00000000000E+00 -0.00000000000E+00 -0.18569533911E+03  0.18569533911E+03  0.00000000000E+00 0.  1.
         24    2    1    2    0    0 -0.70064964747E+02 -0.58739670864E+02 -0.20093043305E+01  0.12265669773E+03  0.81738485285E+02 0.  0.
         23    2    1    2    0    0  0.16396464520E+02  0.11686490400E+02 -0.86559992247E+02  0.12755748695E+03  0.91503344813E+02 0.  0.
        -13    1    3    3    0    0 -0.42980708161E+02  0.42272027604E+01  0.23922089673E+02  0.49370810116E+02  0.00000000000E+00 0.  1.
         14    1    3    3    0    0 -0.27084256587E+02 -0.62966873625E+02 -0.25931394004E+02  0.73285887618E+02  0.00000000000E+00 0. -1.
        -11    1    4    4    0    0 -0.35514978949E+02  0.16060986028E+02 -0.22562275430E+02  0.45036932340E+02  0.00000000000E+00 0. -1.
         11    1    4    4    0    0  0.51911443469E+02 -0.43744956279E+01 -0.63997716816E+02  0.82520554608E+02  0.00000000000E+00 0.  1.
         -4    1    1    2    0  502  0.53668500227E+02  0.47053180464E+02  0.61812740623E+02  0.94419937575E+02  0.00000000000E+00 0.  1.
<scales pt_clust_5="13000.00000" pt_clust_6="13000.00000" pt_clust_7="13000.00000" pt_clust_8="13000.00000" pt_clust_9="71.37447"></scales>
<clustering>
<clus scale="   71.374">  2  9  1 -1</clus>
<clus scale="   81.738">  5  6 -1 -1</clus>
<clus scale="   91.503">  7  8 -1 -1</clus>
<clus scale="  104.541">  1  5  2 -1</clus>
<clus scale="   71.374">  2  5  1 -1</clus>
</clustering>
</event>
<event>
 9    2  0.1654290E-004  0.8668972E+02  0.7546771E-02  0.1314301E+00
         21   -1    0    0  501  502  0.00000000000E+00  0.00000000000E+00  0.32607995347E+03  0.32607995347E+03  0.00000000000E+00 0. -1.
         -3   -1    0    0    0  501 -0.00000000000E+00 -0.00000000000E+00 -0.66454736097E+02  0.66454736097E+02  0.00000000000E+00 0.  1.
         24    2    1    2    0    0  0.92450224376E+01 -0.18177191964E+01 -0.25397965025E+02  0.85681800808E+02  0.81286775181E+02 0.  0.
         23    2    1    2    0    0  0.15885753820E+01  0.19881644589E+02  0.25688505596E+03  0.27170425576E+03  0.86229155506E+02 0.  0.
        -11    1    3    3    0    0 -0.14153050267E+02  0.28794368768E+02  0.97451246826E+01  0.33531954308E+02  0.00000000000E+00 0.  1.
         12    1    3    3    0    0  0.23398072705E+02 -0.30612087964E+02 -0.35143089707E+02  0.52149846500E+02  0.00000000000E+00 0. -1.
        -13    1    4    4    0    0 -0.35337817273E+02 -0.14362283777E+02  0.11053893467E+03  0.11693542065E+03  0.00000000000E+00 0.  1.
         13    1    4    4    0    0  0.36926392655E+02  0.34243928366E+02  0.14634612129E+03  0.15476883511E+03  0.00000000000E+00 0. -1.
         -4    1    1    2    0  502 -0.10833597820E+02 -0.18063925392E+02  0.28138126439E+02  0.35148633000E+02  0.00000000000E+00 0.  1.
<scales pt_clust_5="13000.00000" pt_clust_6="13000.00000" pt_clust_7="13000.00000" pt_clust_8="13000.00000" pt_clust_9="21.06353"></scales>
<clustering>
<clus scale="   21.064">  1  9  2 -1</clus>
<clus scale="   81.287">  5  6 -1 -1</clus>
<clus scale="   81.775">  2  5  1 -1</clus>
<clus scale="   86.229">  7  8 -1 -1</clus>
<clus scale="   21.064">  1  5  2 -1</clus>
</clustering>
</event>
<event>
 9    2  0.1654290E-004  0.1151739E+03  0.7546771E-02  0.1253783E+00
         21   -1    0    0  501  502  0.00000000000E+00  0.00000000000E+00  0.49324110999E+02  0.49324110999E+02  0.00000000000E+00 0.  1.
          2   -1    0    0  502    0 -0.00000000000E+00 -0.00000000000E+00 -0.42957257611E+03  0.42957257611E+03  0.00000000000E+00 0. -1.
         24    2    1    2    0    0 -0.75023831479E+02 -0.14507453644E+00 -0.28529429973E+03  0.31071051867E+03  0.97568399701E+02 0.  0.
         23    2    1    2    0    0  0.32960557253E+02  0.12824855884E+01 -0.64100198163E+02  0.11600782009E+03  0.90889690364E+02 0.  0.
        -11    1    3    3    0    0 -0.12480808347E+02  0.43501556802E+02 -0.83341473363E+02  0.94836476123E+02  0.00000000000E+00 0.  1.
         12    1    3    3    0    0 -0.62543023132E+02 -0.43646631339E+02 -0.20195282636E+03  0.21587404255E+03  0.00000000000E+00 0. -1.
        -11    1    4    4    0    0  0.22074920227E+02  0.45808774164E+02 -0.33314912607E+02  0.60791687717E+02  0.00000000000E+00 0.  1.
         11    1    4    4    0    0  0.10885637026E+02 -0.44526288576E+02 -0.30785285556E+02  0.55216132376E+02  0.00000000000E+00 0. -1.
          1    1    1    2  501    0  0.42063274226E+02 -0.11374110519E+01 -0.30853967218E+02  0.52178348341E+02  0.00000000000E+00 0. -1.
<scales pt_clust_5="13000.00000" pt_clust_6="13000.00000" pt_clust_7="13000.00000" pt_clust_8="13000.00000" pt_clust_9="42.07865"></scales>
<clustering>
<clus scale="   42.079">  1  9  2 -1</clus>
<clus scale="   90.890">  7  8 -1 -1</clus>
<clus scale="   97.568">  5  6 -1 -1</clus>
<clus scale="  109.574">  1  7  2 -1</clus>
<clus scale="   42.079">  1  5  2 -1</clus>
</clustering>
</event>
<event>
 9    2  0.1654290E-004  0.1676047E+03  0.7546771E-02  0.1182168E+00
         21   -1    0    0  501  502  0.00000000000E+00  0.00000000000E+00  0.10347890915E+04  0.10347890915E+04  0.00000000000E+00 0.  1.
          2   -1    0    0  502    0 -0.00000000000E+00 -0.00000000000E+00 -0.33530312266E+02  0.33530312266E+02  0.00000000000E+00 0. -1.
         23    2    1    2    0    0 -0.97922195215E+02  0.79761986444E+02  0.36693337492E+03  0.39895082197E+03  0.92579295299E+02 0.  0.
         24    2    1    2    0    0  0.11521399162E+03 -0.11027393740E+03  0.54199681969E+03  0.57060344163E+03  0.79957050411E+02 0.  0.
        -11    1    4    4    0    0  0.64216444459E+02 -0.10929968265E+03  0.36401807485E+03  0.38545989568E+03  0.00000000000E+00 0.  1.
         12    1    4    4    0    0  0.50997547164E+02 -0.97425474982E+00  0.17797874485E+03  0.18514354595E+03  0.00000000000E+00 0. -1.
        -13    1    3    3    0    0 -0.52211268706E+02  0.84035912588E+02  0.31225912960E+03  0.32755734643E+03  0.00000000000E+00 0.  1.
         13    1    3    3    0    0 -0.45710926508E+02 -0.42739261438E+01  0.54674245323E+02  0.71393475532E+02  0.00000000000E+00 0. -1.
          1    1    1    2  501    0 -0.17291796409E+02  0.30511950955E+02  0.92328584583E+02  0.98765140131E+02  0.00000000000E+00 0. -1.
<scales pt_clust_5="13000.00000" pt_clust_6="13000.00000" pt_clust_7="13000.00000" pt_clust_8="13000.00000" pt_clust_9="35.07116"></scales>
<clustering>
<clus scale="   35.071">  1  9  2 -1</clus>
<clus scale="   79.957">  5  6 -1 -1</clus>
<clus scale="   92.579">  7  8 -1 -1</clus>
<clus scale="  160.977">  1  5  2 -1</clus>
<clus scale="   35.071">  1  5  2 -1</clus>
</clustering>
</event>
<event>
 9    2  0.1654290E-004  0.1974604E+03  0.7546771E-02  0.1165040E+00
          2   -1    0    0  502    0 -0.00000000000E+00  0.00000000000E+00  0.12671978751E+04  0.12671978751E+04  0.00000000000E+00 0. -1.
         21   -1    0    0  501  502  0.00000000000E+00 -0.00000000000E+00 -0.99602344505E+02  0.99602344505E+02  0.00000000000E+00 0. -1.
         23    2    1    2    0    0 -0.47654237879E+02 -0.10095802436E+03  0.48358613403E+02  0.15313643004E+03  0.92998718515E+02 0.  0.
         24    2    1    2    0    0 -0.13588042585E+03 -0.80753054579E+02  0.24685595535E+03  0.30385478126E+03  0.80033239672E+02 0.  0.
        -11    1    4    4    0    0 -0.30279989569E+02  0.13707275801E+02  0.67926031829E+02  0.75622172531E+02  0.00000000000E+00 0.  1.
         12    1    4    4    0    0 -0.10560043628E+03 -0.94460330380E+02  0.17892992352E+03  0.22823260873E+03  0.00000000000E+00 0. -1.
        -11    1    3    3    0    0 -0.20343335843E+02 -0.20371635939E+01 -0.20972986922E+02  0.29289375704E+02  0.00000000000E+00 0. -1.
         11    1    3    3    0    0 -0.27310902036E+02 -0.98920860763E+02  0.69331600325E+02  0.12384705434E+03  0.00000000000E+00 0.  1.
          1    1    1    2  501    0  0.18353466373E+03  0.18171107894E+03  0.87238096182E+03  0.90980900828E+03  0.00000000000E+00 0. -1.
<scales pt_clust_5="13000.00000" pt_clust_6="13000.00000" pt_clust_7="13000.00000" pt_clust_8="13000.00000" pt_clust_9="180.51409"></scales>
<clustering>
<clus scale="   80.033">  5  6 -1 -1</clus>
<clus scale="   92.999">  7  8 -1 -1</clus>
<clus scale="  145.300">  1  7  2 -1</clus>
<clus scale="  180.514">  2  9  1 -1</clus>
<clus scale="  180.514">  2  5  1 -1</clus>
</clustering>
</event>
<event>
 9    2  0.1654290E-004  0.1332296E+03  0.7546771E-02  0.1228114E+00
         21   -1    0    0  501  502  0.00000000000E+00  0.00000000000E+00  0.42510574285E+03  0.42510574285E+03  0.00000000000E+00 0. -1.
         -3   -1    0    0    0  501 -0.00000000000E+00 -0.00000000000E+00 -0.15572632303E+03  0.15572632303E+03  0.00000000000E+00 0.  1.
         24    2    1    2    0    0  0.44303639049E+02  0.73127845896E+02 -0.11046310614E+03  0.16333097583E+03  0.84642870767E+02 0.  0.
         23    2    1    2    0    0 -0.19127179697E+02 -0.69789249805E+02  0.20479321831E+03  0.24061903771E+03  0.10354163728E+03 0.  0.
        -13    1    3    3    0    0  0.55939883550E+02  0.58196574025E+02 -0.11798897989E+03  0.14295982364E+03  0.00000000000E+00 0.  1.
         14    1    3    3    0    0 -0.11636244501E+02  0.14931271871E+02  0.75258737581E+01  0.20371152191E+02  0.00000000000E+00 0. -1.
        -13    1    4    4    0    0  0.13646518587E+01  0.22420015831E+02  0.85802964716E+02  0.88694239602E+02  0.00000000000E+00 0. -1.
         13    1    4    4    0    0 -0.20491831556E+02 -0.92209265636E+02  0.11899025359E+03  0.15192479810E+03  0.00000000000E+00 0.  1.
         -4    1    1    2    0  502 -0.25176459352E+02 -0.33385960908E+01  0.17504930765E+03  0.17688205234E+03  0.00000000000E+00 0.  1.
<scales pt_clust_5="13000.00000" pt_clust_6="13000.00000" pt_clust_7="13000.00000" pt_clust_8="13000.00000" pt_clust_9="25.39686"></scales>
<clustering>
<clus scale="   25.397">  1  9  2 -1</clus>
<clus scale="   84.643">  5  6 -1 -1</clus>
<clus scale="  103.542">  7  8 -1 -1</clus>
<clus scale="  119.137">  2  5  1 -1</clus>
<clus scale="   25.397">  1  5  2 -1</clus>
</clustering>
</event>
<event>
 9    2  0.1654290E-004  0.1624825E+03  0.7546771E-02  0.1208422E+00
         21   -1    0    0  501  502  0.00000000000E+00  0.00000000000E+00  0.12236707773E+03  0.12236707773E+03  0.00000000000E+00 0. -1.
         -1   -1    0    0    0  501 -0.00000000000E+00 -0.00000000000E+00 -0.36107595999E+03  0.36107595999E+03  0.00000000000E+00 0.  1.
         24    2    1    2    0    0  0.57389016235E+02  0.86123836492E+01 -0.42086983891E+02  0.10797275324E+03  0.80741122687E+02 0.  0.
         23    2    1    2    0    0 -0.11095669730E+03  0.96820588454E+02 -0.37946247067E+02  0.17757240582E+03  0.91686567285E+02 0.  0.
        -11    1    3    3    0    0 -0.13767493037E+02 -0.14902258647E+02  0.30075635112E+01  0.20510158839E+02  0.00000000000E+00 0.  1.
         12    1    3    3    0    0  0.71156509272E+02  0.23514642297E+02 -0.45094547402E+02  0.87462594402E+02  0.00000000000E+00 0. -1.
        -13    1    4    4    0    0 -0.67808538205E+02  0.95496281577E+02 -0.57154490605E+02  0.13032334190E+03  0.00000000000E+00 0. -1.
         13    1    4    4    0    0 -0.43148159091E+02  0.13243068769E+01  0.19208243537E+02  0.47249063921E+02  0.00000000000E+00 0.  1.
         -2    1    1    2    0  502  0.53567681061E+02 -0.10543297210E+03 -0.15867565130E+03  0.19789787866E+03  0.00000000000E+00 0.  1.
<scales pt_clust_5="13000.00000" pt_clust_6="13000.00000" pt_clust_7="13000.00000" pt_clust_8="13000.00000" pt_clust_9="134.14227"></scales>
<clustering>
<clus scale="   80.741">  5  6 -1 -1</clus>
<clus scale="   91.687">  7  8 -1 -1</clus>
<clus scale="   99.432">  2  5  1 -1</clus>
<clus scale="  134.142">  1  9  2 -1</clus>
<clus scale="  134.142">  1  5  2 -1</clus>
</clustering>
</event>
<event>
 9    2  0.1654290E-004  0.1071444E+03  0.7546771E-02  0.1270106E+00
         21   -1    0    0  501  502  0.00000000000E+00  0.00000000000E+00  0.34698372735E+02  0.34698372735E+02  0.00000000000E+00 0. -1.
          2   -1    0    0  502    0 -0.00000000000E+00 -0.00000000000E+00 -0.10687557112E+04  0.10687557112E+04  0.00000000000E+00 0. -1.
         24    2    1    2    0    0 -0.22146307415E+02  0.46188948807E+02 -0.87588202064E+03  0.88133393113E+03  0.83404473266E+02 0.  0.
         23    2    1    2    0    0  0.58212266527E+02 -0.47979013331E+02 -0.12279541035E+03  0.17156626481E+03  0.93089294356E+02 0.  0.
        -13    1    3    3    0    0 -0.44074890716E+02  0.27970829647E+02 -0.28347253165E+03  0.28823885842E+03  0.00000000000E+00 0.  1.
         14    1    3    3    0    0  0.21928583301E+02  0.18218119160E+02 -0.59240948899E+03  0.59309507271E+03  0.00000000000E+00 0. -1.
        -13    1    4    4    0    0 -0.71972986146E+01  0.22345645640E+02 -0.19478776122E+02  0.30504945593E+02  0.00000000000E+00 0.  1.
         13    1    4    4    0    0  0.65409565141E+02 -0.70324658971E+02 -0.10331663422E+03  0.14106131922E+03  0.00000000000E+00 0. -1.
          1    1    1    2  501    0 -0.36065959112E+02  0.17900645237E+01 -0.35379907460E+02  0.50553887977E+02  0.00000000000E+00 0. -1.
<scales pt_clust_5="13000.00000" pt_clust_6="13000.00000" pt_clust_7="13000.00000" pt_clust_8="13000.00000" pt_clust_9="36.11035"></scales>
<clustering>
<clus scale="   36.110">  1  9  2 -1</clus>
<clus scale="   83.404">  5  6 -1 -1</clus>
<clus scale="   93.089">  7  8 -1 -1</clus>
<clus scale="   98.846">  2  5  1 -1</clus>
<clus scale="   36.110">  1  5  2 -1</clus>
</clustering>
</event>
<event>
 9    2  0.1654290E-004  0.1479343E+03  0.7546771E-02  0.1205067E+00
         21   -1    0    0  501  502  0.00000000000E+00  0.00000000000E+00  0.12708138433E+03  0.12708138433E+03  0.00000000000E+00 0.  1.
          2   -1    0    0  502    0 -0.00000000000E+00 -0.00000000000E+00 -0.37345902920E+03  0.37345902920E+03  0.00000000000E+00 0. -1.
         24    2    1    2    0    0  0.55363410205E+02 -0.13621908213E+03 -0.10874164081E+03  0.19960108077E+03  0.79969378329E+02 0.  0.
         23    2    1    2    0    0 -0.13754169172E+02  0.68196250778E+02  0.27468234710E+02  0.11758763742E+03  0.90732809755E+02 0.  0.
        -11    1    3    3    0    0  0.75880024935E+02 -0.11178717540E+03 -0.82616583969E+02  0.15836556038E+03  0.00000000000E+00 0.  1.
         12    1    3    3    0    0 -0.20516614730E+02 -0.24431906737E+02 -0.26125056838E+02  0.41235520387E+02  0.00000000000E+00 0. -1.
        -11    1    4    4    0    0 -0.26357093846E+02  0.13824409246E+01 -0.21298406781E+02  0.33915036051E+02  0.00000000000E+00 0. -1.
         11    1    4    4    0    0  0.12602924674E+02  0.66813809853E+02  0.48766641491E+02  0.83672601369E+02  0.00000000000E+00 0.  1.
          1    1    1    2  501    0 -0.41609241033E+02  0.68022831356E+02 -0.16510423877E+03  0.18335169534E+03  0.00000000000E+00 0. -1.
<scales pt_clust_5="13000.00000" pt_clust_6="13000.00000" pt_clust_7="13000.00000" pt_clust_8="13000.00000" pt_clust_9="79.73983"></scales>
<clustering>
<clus scale="   79.740">  1  9  2 -1</clus>
<clus scale="   79.969">  5  6 -1 -1</clus>
<clus scale="   90.733">  7  8 -1 -1</clus>
<clus scale="  141.588">  2  5  1 -1</clus>
<clus scale="   79.740">  1  5  2 -1</clus>
</clustering>
</event>
<event>
 9    2  0.1654290E-004  0.9555111E+02  0.7546771E-02  0.1294214E+00
         21   -1    0    0  501  502  0.00000000000E+00  0.00000000000E+00  0.68360759952E+02  0.68360759952E+02  0.00000000000E+00 0. -1.
          2   -1    0    0  502    0 -0.00000000000E+00 -0.00000000000E+00 -0.32953690254E+03  0.32953690254E+03  0.00000000000E+00 0. -1.
         24    2    1    2    0    0 -0.43751604239E+02  0.12452687645E+02 -0.99725410600E+02  0.13600189619E+03  0.80511402585E+02 0.  0.
         23    2    1    2    0    0 -0.25878064440E+02 -0.63924456153E+02 -0.55794668618E+02  0.12529109053E+03  0.88480517669E+02 0.  0.
        -13    1    3    3    0    0  0.65928879011E+01 -0.19793815777E+02 -0.61738363412E+02  0.65168142759E+02  0.00000000000E+00 0.  1.
         14    1    3    3    0    0 -0.50344492140E+02  0.32246503422E+02 -0.37987047188E+02  0.70833753436E+02  0.00000000000E+00 0. -1.
        -11    1    4    4    0    0  0.30787797958E+02 -0.31135834338E+02 -0.86991291539E+01  0.44643068119E+02  0.00000000000E+00 0. -1.
         11    1    4    4    0    0 -0.56665862398E+02 -0.32788621814E+02 -0.47095539464E+02  0.80648022413E+02  0.00000000000E+00 0.  1.
          1    1    1    2  501    0  0.69629668678E+02  0.51471768507E+02 -0.10565606337E+03  0.13660467576E+03  0.00000000000E+00 0. -1.
<scales pt_clust_5="13000.00000" pt_clust_6="13000.00000" pt_clust_7="13000.00000" pt_clust_8="13000.00000" pt_clust_9="86.58892"></scales>
<clustering>
<clus scale="   80.511">  5  6 -1 -1</clus>
<clus scale="   86.589">  1  9  2 -1</clus>
<clus scale="   88.223">  2  5  1 -1</clus>
<clus scale="   88.481">  7  8 -1 -1</clus>
<clus scale="   86.589">  1  5  2 -1</clus>
</clustering>
</event>
<event>
 9    2  0.1654290E-004  0.1014895E+03  0.7546771E-02  0.1282410E+00
         -1   -1    0    0    0  501 -0.00000000000E+00  0.00000000000E+00  0.18515500113E+03  0.18515500113E+03  0.00000000000E+00 0.  1.
         21   -1    0    0  501  502  0.00000000000E+00 -0.00000000000E+00 -0.30580294191E+03  0.30580294191E+03  0.00000000000E+00 0.  1.
         23    2    1    2    0    0 -0.41857181578E+02  0.38832004107E+01  0.36076622415E+01  0.10013004451E+03  0.90806980413E+02 0.  0.
         24    2    1    2    0    0  0.51129750252E+02 -0.61615002293E+02 -0.23767045785E+03  0.26322746445E+03  0.79942427013E+02 0.  0.
        -11    1    4    4    0    0  0.72543376639E+02 -0.47262989086E+02 -0.16921258055E+03  0.19007690298E+03  0.00000000000E+00 0.  1.
         12    1    4    4    0    0 -0.21413626387E+02 -0.14352013207E+02 -0.68457877306E+02  0.73150561470E+02  0.00000000000E+00 0. -1.
        -11    1    3    3    0    0  0.21935374483E+01  0.23440111974E+02 -0.32341535639E+02  0.40002817193E+02  0.00000000000E+00 0. -1.
         11    1    3    3    0    0 -0.44050719026E+02 -0.19556911563E+02  0.35949197881E+02  0.60127227317E+02  0.00000000000E+00 0.  1.
         -2    1    1    2    0  502 -0.92725686746E+01  0.57731801882E+02  0.11341485484E+03  0.12760043408E+03  0.00000000000E+00 0.  1.
<scales pt_clust_5="13000.00000" pt_clust_6="13000.00000" pt_clust_7="13000.00000" pt_clust_8="13000.00000" pt_clust_9="58.47174"></scales>
<clustering>
<clus scale="   58.472">  2  9  1 -1</clus>
<clus scale="   79.942">  5  6 -1 -1</clus>
<clus scale="   90.807">  7  8 -1 -1</clus>
<clus scale="   91.897">  2  5  1 -1</clus>
<clus scale="   58.472">  2  5  1 -1</clus>
</clustering>
</event>
<event>
 9    2  0.1654290E-004  0.1006823E+03  0.7546771E-02  0.1284696E+00
          2   -1    0    0  502    0 -0.00000000000E+00  0.00000000000E+00  0.28669965972E+03  0.28669965972E+03  0.00000000000E+00 0. -1.
         21   -1    0    0  501  502  0.00000000000E+00 -0.00000000000E+00 -0.13844816721E+03  0.13844816721E+03  0.00000000000E+00 0.  1.
         23    2    1    2    0    0 -0.37625482623E+02  0.25014671228E+02  0.24052593250E+03  0.26106699443E+03  0.90894667932E+02 0.  0.
         24    2    1    2    0    0 -0.64403793988E+00 -0.46463857456E+02 -0.65371481298E+02  0.11261829291E+03  0.79057855375E+02 0.  0.
        -11    1    4    4    0    0 -0.37815306617E+02 -0.36573683723E+02 -0.44203895696E+02  0.68714017131E+02  0.00000000000E+00 0.  1.
         12    1    4    4    0    0  0.37171268677E+02 -0.98901737326E+01 -0.21167585603E+02  0.43904275780E+02  0.00000000000E+00 0. -1.
        -11    1    3    3    0    0 -0.13199634752E+02 -0.34624626910E+02  0.88642674763E+02  0.96076110118E+02  0.00000000000E+00 0.  1.
         11    1    3    3    0    0 -0.24425847871E+02  0.59639298138E+02  0.15188325774E+03  0.16499088432E+03  0.00000000000E+00 0. -1.
          1    1    1    2  501    0  0.38269520563E+02  0.21449186228E+02 -0.26902958694E+02  0.51462539584E+02  0.00000000000E+00 0. -1.
<scales pt_clust_5="13000.00000" pt_clust_6="13000.00000" pt_clust_7="13000.00000" pt_clust_8="13000.00000" pt_clust_9="43.87053"></scales>
<clustering>
<clus scale="   43.871">  2  9  1 -1</clus>
<clus scale="   79.058">  5  6 -1 -1</clus>
<clus scale="   90.140">  2  5  1 -1</clus>
<clus scale="   90.895">  7  8 -1 -1</clus>
<clus scale="   43.871">  2  5  1 -1</clus>
</clustering>
</event>
<event>
 9    2  0.1654290E-004  0.2352784E+03  0.7546771E-02  0.1148403E+00
          2   -1    0    0  502    0 -0.00000000000E+00  0.00000000000E+00  0.12361085153E+04  0.12361085153E+04  0.00000000000E+00 0. -1.
         21   -1    0    0  501  502  0.00000000000E+00 -0.00000000000E+00 -0.74129921896E+02  0.74129921896E+02  0.00000000000E+00 0. -1.
         23    2    1    2    0    0  0.87383715655E+02 -0.34134607749E+01  0.14781466986E+03  0.19475394210E+03  0.91827859937E+02 0.  0.
         24    2    1    2    0    0 -0.41251211308E+02  0.22234676594E+03  0.50371034249E+03  0.55814899607E+03  0.81648306281E+02 0.  0.
        -13    1    4    4    0    0  0.20326989324E+01  0.27889771088E+02  0.18222300078E+02  0.33376989325E+02  0.00000000000E+00 0.  1.
         14    1    4    4    0    0 -0.43283910240E+02  0.19445699485E+03  0.48548804241E+03  0.52477200674E+03  0.00000000000E+00 0. -1.
        -11    1    3    3    0    0  0.47280087581E+02 -0.31594138881E+02  0.24243916869E+02  0.61817180447E+02  0.00000000000E+00 0. -1.
         11    1    3    3    0    0  0.40103628074E+02  0.28180678106E+02  0.12357075299E+03  0.13293676165E+03  0.00000000000E+00 0.  1.
          1    1    1    2  501    0 -0.46132504347E+02 -0.21893330517E+03  0.51045358103E+03  0.55733549901E+03  0.00000000000E+00 0. -1.
<scales pt_clust_5="13000.00000" pt_clust_6="13000.00000" pt_clust_7="13000.00000" pt_clust_8="13000.00000" pt_clust_9="220.65708"></scales>
<clustering>
<clus scale="   81.648">  5  6 -1 -1</clus>
<clus scale="   91.828">  7  8 -1 -1</clus>
<clus scale="  126.807">  1  7  2 -1</clus>
<clus scale="  220.657">  2  9  1 -1</clus>
<clus scale="  220.657">  2  5  1 -1</clus>
</clustering>
</event>
<event>
 9    2  0.1654290E-004  0.2026120E+03  0.7546771E-02  0.1148543E+00
         -3   -1    0    0    0  501 -0.00000000000E+00  0.00000000000E+00  0.43367050131E+03  0.43367050131E+03  0.00000000000E+00 0.  1.
         21   -1    0    0  501  502  0.00000000000E+00 -0.00000000000E+00 -0.17132287853E+03  0.17132287853E+03  0.00000000000E+00 0.  1.
         23    2    1    2    0    0  0.16734479100E+02 -0.18074111948E+03  0.29360466315E+03  0.35723373359E+03  0.92004603860E+02 0.  0.
         24    2    1    2    0    0  0.13641186227E+02  0.17788674909E+03 -0.60894778805E+02  0.20522467223E+03  0.81112357527E+02 0.  0.
        -11    1    4    4    0    0  0.32539611432E+01  0.17228729319E+03 -0.33703297352E+02  0.17558306271E+03  0.00000000000E+00 0.  1.
         12    1    4    4    0    0  0.10387225084E+02  0.55994558958E+01 -0.27191481453E+02  0.29641609519E+02  0.00000000000E+00 0. -1.
        -13    1    3    3    0    0  0.49200063907E+02 -0.84632071194E+02  0.18022602246E+03  0.20509669167E+03  0.00000000000E+00 0.  1.
         13    1    3    3    0    0 -0.32465584807E+02 -0.96109048289E+02  0.11337864068E+03  0.15213704192E+03  0.00000000000E+00 0. -1.
         -4    1    1    2    0  502 -0.30375665328E+02  0.28543703946E+01  0.29637738437E+02  0.42534974011E+02  0.00000000000E+00 0.  1.
<scales pt_clust_5="13000.00000" pt_clust_6="13000.00000" pt_clust_7="13000.00000" pt_clust_8="13000.00000" pt_clust_9="30.50950"></scales>
<clustering>
<clus scale="   30.509">  2  9  1 -1</clus>
<clus scale="   81.112">  5  6 -1 -1</clus>
<clus scale="   92.005">  7  8 -1 -1</clus>
<clus scale="  197.904">  2  5  1 -1</clus>
<clus scale="   30.509">  2  5  1 -1</clus>
</clustering>
</event>
<event>
 9    2  0.1654290E-004  0.1418578E+03  0.7546771E-02  0.1236092E+00
          2   -1    0    0  502    0 -0.00000000000E+00  0.00000000000E+00  0.35762694732E+03  0.35762694732E+03  0.00000000000E+00 0. -1.
         21   -1    0    0  501  502  0.00000000000E+00 -0.00000000000E+00 -0.15335847669E+03  0.15335847669E+03  0.00000000000E+00 0. -1.
         24    2    1    2    0    0 -0.20328068613E+02  0.75737294013E+01  0.12284275067E+03  0.14867614677E+03  0.80892913632E+02 0.  0.
         23    2    1    2    0    0  0.79742596055E+02 -0.99976452160E+02  0.16357458484E+03  0.22513498940E+03  0.87034165908E+02 0.  0.
        -11    1    3    3    0    0  0.20586274899E+02  0.13901060499E+02  0.96405759509E+02  0.99554531106E+02  0.00000000000E+00 0.  1.
         12    1    3    3    0    0 -0.40914343512E+02 -0.63273310979E+01  0.26436991159E+02  0.49121615664E+02  0.00000000000E+00 0. -1.
        -11    1    4    4    0    0 -0.67982007541E+00 -0.20222351008E+02 -0.60972652007E+01  0.21132493430E+02  0.00000000000E+00 0.  1.
         11    1    4    4    0    0  0.80422416131E+02 -0.79754101152E+02  0.16967185004E+03  0.20400249597E+03  0.00000000000E+00 0. -1.
          1    1    1    2  501    0 -0.59414527442E+02  0.92402722759E+02 -0.82148864872E+02  0.13717428784E+03  0.00000000000E+00 0. -1.
<scales pt_clust_5="13000.00000" pt_clust_6="13000.00000" pt_clust_7="13000.00000" pt_clust_8="13000.00000" pt_clust_9="112.02095"></scales>
<clustering>
<clus scale="   80.893">  5  6 -1 -1</clus>
<clus scale="   83.751">  1  5  2 -1</clus>
<clus scale="   87.034">  7  8 -1 -1</clus>
<clus scale="  112.021">  2  9  1 -1</clus>
<clus scale="  112.021">  2  5  1 -1</clus>
</clustering>
</event>
<event>
 9    2  0.1654290E-004  0.3751879E+03  0.7546771E-02  0.1053117E+00
          2   -1    0    0  502    0 -0.00000000000E+00  0.00000000000E+00  0.19934478094E+03  0.19934478094E+03  0.00000000000E+00 0. -1.
         21   -1    0    0  501  502  0.00000000000E+00 -0.00000000000E+00 -0.18168886433E+04  0.18168886433E+04  0.00000000000E+00 0.  1.
         24    2    1    2    0    0  0.18093545910E+03  0.32431639450E+03 -0.35382979330E+02  0.38007170370E+03  0.72689618389E+02 0.  0.
         23    2    1    2    0    0 -0.14466707677E+03 -0.27347930636E+03 -0.14920174968E+04  0.15265002635E+04  0.91473217135E+02 0.  0.
        -11    1    3    3    0    0  0.10369371062E+02  0.54434139189E+02 -0.24594776989E+02  0.60625922019E+02  0.00000000000E+00 0.  1.
         12    1    3    3    0    0  0.17056608804E+03  0.26988225531E+03 -0.10788202340E+02  0.31944578168E+03  0.00000000000E+00 0. -1.
        -13    1    4    4    0    0 -0.13132212635E+03 -0.16689240308E+03 -0.10821181678E+04  0.11027594045E+04  0.00000000000E+00 0.  1.
         13    1    4    4    0    0 -0.13344950414E+02 -0.10658690327E+03 -0.40989932906E+03  0.42374085903E+03  0.00000000000E+00 0. -1.
          1    1    1    2  501    0 -0.36268382336E+02 -0.50837088144E+02 -0.90143386206E+02  0.10966145706E+03  0.00000000000E+00 0. -1.
<scales pt_clust_5="13000.00000" pt_clust_6="13000.00000" pt_clust_7="13000.00000" pt_clust_8="13000.00000" pt_clust_9="62.44842"></scales>
<clustering>
<clus scale="   62.448">  2  9  1 -1</clus>
<clus scale="   72.690">  5  6 -1 -1</clus>
<clus scale="   91.473">  7  8 -1 -1</clus>
<clus scale="  371.056">  1  5  2 -1</clus>
<clus scale="   62.448">  2  5  1 -1</clus>
</clustering>
</event>
<event>
 9    2  0.1654290E-004  0.1083860E+03  0.7546771E-02  0.1268052E+00
          4   -1    0    0  502    0 -0.00000000000E+00  0.00000000000E+00  0.40936751296E+02  0.40936751296E+02  0.00000000000E+00 0. -1.
         21   -1    0    0  501  502  0.00000000000E+00 -0.00000000000E+00 -0.45840115740E+03  0.45840115740E+03  0.00000000000E+00 0. -1.
         24    2    1    2    0    0 -0.72135668402E+02  0.25190379401E+02 -0.11820772019E+03  0.16221620715E+03  0.80640702364E+02 0.  0.
         23    2    1    2    0    0  0.27410488690E+02 -0.29911068347E+02 -0.14329155499E+03  0.17480180546E+03  0.91527015463E+02 0.  0.
        -11    1    3    3    0    0 -0.41696811866E+02  0.45611915972E+02 -0.10755503264E+03  0.12404497590E+03  0.00000000000E+00 0.  1.
         12    1    3    3    0    0 -0.30438856536E+02 -0.20421536571E+02 -0.10652687550E+02  0.38171231250E+02  0.00000000000E+00 0. -1.
        -13    1    4    4    0    0 -0.20614963192E+02 -0.96431618979E+01 -0.46877375810E+00  0.22763721743E+02  0.00000000000E+00 0. -1.
         13    1    4    4    0    0  0.48025451882E+02 -0.20267906449E+02 -0.14282278123E+03  0.15203808371E+03  0.00000000000E+00 0.  1.
          3    1    1    2  501    0  0.44725179711E+02  0.47206889465E+01 -0.15596513092E+03  0.16231989609E+03  0.00000000000E+00 0. -1.
<scales pt_clust_5="13000.00000" pt_clust_6="13000.00000" pt_clust_7="13000.00000" pt_clust_8="13000.00000" pt_clust_9="44.97362"></scales>
<clustering>
<clus scale="   44.974">  2  9  1 -1</clus>
<clus scale="   80.641">  5  6 -1 -1</clus>
<clus scale="   91.527">  7  8 -1 -1</clus>
<clus scale="   99.364">  1  5  2 -1</clus>
<clus scale="   44.974">  2  5  1 -1</clus>
</clustering>
</event>
<event>
 9    2  0.1654290E-004  0.1002799E+03  0.7546771E-02  0.1288134E+00
          2   -1    0    0  502    0 -0.00000000000E+00  0.00000000000E+00  0.46076042004E+02  0.46076042004E+02  0.00000000000E+00 0. -1.
         21   -1    0    0  501  502  0.00000000000E+00 -0.00000000000E+00 -0.36191444824E+03  0.36191444824E+03  0.00000000000E+00 0. -1.
         24    2    1    2    0    0  0.46286463632E+02  0.25901132924E+02 -0.59880413310E+02  0.11048681779E+03  0.76212647274E+02 0.  0.
         23    2    1    2    0    0 -0.73383918808E+01  0.80049357956E+01 -0.20401175255E+03  0.22425760991E+03  0.92481076076E+02 0.  0.
        -13    1    3    3    0    0  0.42859360724E+02 -0.19410235891E+02 -0.35332269059E+02  0.58839198633E+02  0.00000000000E+00 0.  1.
         14    1    3    3    0    0  0.34271029081E+01  0.45311368815E+02 -0.24548144251E+02  0.51647619155E+02  0.00000000000E+00 0. -1.
        -13    1    4    4    0    0 -0.50269068728E+01  0.48521237683E+02 -0.14201723404E+03  0.15016149661E+03  0.00000000000E+00 0.  1.
         13    1    4    4    0    0 -0.23114850080E+01 -0.40516301887E+02 -0.61994518513E+02  0.74096113307E+02  0.00000000000E+00 0. -1.
          1    1    1    2  501    0 -0.38948071751E+02 -0.33906068720E+02 -0.51946240377E+02  0.73246062546E+02  0.00000000000E+00 0. -1.
<scales pt_clust_5="13000.00000" pt_clust_6="13000.00000" pt_clust_7="13000.00000" pt_clust_8="13000.00000" pt_clust_9="51.63890"></scales>
<clustering>
<clus scale="   51.639">  2  9  1 -1</clus>
<clus scale="   76.213">  5  6 -1 -1</clus>
<clus scale="   85.508">  1  5  2 -1</clus>
<clus scale="   92.481">  7  8 -1 -1</clus>
<clus scale="   51.639">  2  5  1 -1</clus>
</clustering>
</event>
<event>
 9    2  0.1654290E-004  0.2856957E+03  0.7546771E-02  0.1092618E+00
          2   -1    0    0  502    0 -0.00000000000E+00  0.00000000000E+00  0.67446109921E+03  0.67446109921E+03  0.00000000000E+00 0. -1.
         21   -1    0    0  501  502  0.00000000000E+00 -0.00000000000E+00 -0.13644996422E+03  0.13644996422E+03  0.00000000000E+00 0. -1.
         24    2    1    2    0    0 -0.87989329881E+02 -0.29536671793E+02  0.55478026915E+02  0.13714560941E+03  0.84359762657E+02 0.  0.
         23    2    1    2    0    0 -0.12653049715E+03  0.11712322579E+02  0.12116599353E+02  0.15643755482E+03  0.90436449339E+02 0.  0.
        -13    1    3    3    0    0 -0.70462973376E+02 -0.57945535165E+02  0.47373078046E+02  0.10279554556E+03  0.00000000000E+00 0.  1.
         14    1    3    3    0    0 -0.17526356505E+02  0.28408863371E+02  0.81049488687E+01  0.34350063851E+02  0.00000000000E+00 0. -1.
        -11    1    4    4    0    0 -0.12066072509E+03  0.34402411660E+02 -0.77570182430E+01  0.12570882164E+03  0.00000000000E+00 0. -1.
         11    1    4    4    0    0 -0.58697720675E+01 -0.22690089081E+02  0.19873617596E+02  0.30728733182E+02  0.00000000000E+00 0.  1.
          1    1    1    2  501    0  0.21451982703E+03  0.17824349215E+02  0.47041650872E+03  0.51732789920E+03  0.00000000000E+00 0. -1.
<scales pt_clust_5="13000.00000" pt_clust_6="13000.00000" pt_clust_7="13000.00000" pt_clust_8="13000.00000" pt_clust_9="215.25917"></scales>
<clustering>
<clus scale="   84.360">  5  6 -1 -1</clus>
<clus scale="   90.436">  7  8 -1 -1</clus>
<clus scale="  103.954">  5  7 -1 -1</clus>
<clus scale="  215.259">  2  9  1 -1</clus>
<clus scale="  215.259">  2  5  1 -1</clus>
</clustering>
</event>
<event>
 9    2  0.1654290E-004  0.1658493E+03  0.7546771E-02  0.1183738E+00
          2   -1    0    0  502    0 -0.00000000000E+00  0.00000000000E+00  0.38054669401E+03  0.38054669401E+03  0.00000000000E+00 0. -1.
         21   -1    0    0  501  502  0.00000000000E+00 -0.00000000000E+00 -0.15682765036E+03  0.15682765036E+03  0.00000000000E+00 0. -1.
         24    2    1    2    0    0 -0.25750671981E+02  0.10055755175E+03  0.90348305562E+02  0.15943311387E+03  0.80505795809E+02 0.  0.
         23    2    1    2    0    0 -0.76101457065E+00 -0.21330729050E+03  0.12080191960E+03  0.26143651681E+03  0.90859062383E+02 0.  0.
        -11    1    3    3    0    0 -0.34447103121E+02  0.88894936851E+02  0.33968468157E+02  0.10120656866E+03  0.00000000000E+00 0.  1.
         12    1    3    3    0    0  0.86964311399E+01  0.11662614894E+02  0.56379837405E+02  0.58226545205E+02  0.00000000000E+00 0. -1.
        -13    1    4    4    0    0 -0.24506187251E+02 -0.36008725423E+02  0.56518772309E+02  0.71355119953E+02  0.00000000000E+00 0.  1.
         13    1    4    4    0    0  0.23745172681E+02 -0.17729856508E+03  0.64283147295E+02  0.19008139686E+03  0.00000000000E+00 0. -1.
          1    1    1    2  501    0  0.26511686552E+02  0.11274973876E+03  0.12568818485E+02  0.11650471369E+03  0.00000000000E+00 0. -1.
<scales pt_clust_5="13000.00000" pt_clust_6="13000.00000" pt_clust_7="13000.00000" pt_clust_8="13000.00000" pt_clust_9="115.82475"></scales>
<clustering>
<clus scale="   80.506">  5  6 -1 -1</clus>
<clus scale="   90.859">  7  8 -1 -1</clus>
<clus scale="  115.825">  2  9  1 -1</clus>
<clus scale="  160.411">  1  5  2 -1</clus>
<clus scale="  115.825">  2  5  1 -1</clus>
</clustering>
</event>
<event>
 9    2  0.1654290E-004  0.9373731E+02  0.7546771E-02  0.1300265E+00
         21   -1    0    0  501  502  0.00000000000E+00  0.00000000000E+00  0.52603399816E+02  0.52603399816E+02  0.00000000000E+00 0.  1.
          2   -1    0    0  502    0 -0.00000000000E+00 -0.00000000000E+00 -0.60282133320E+03  0.60282133320E+03  0.00000000000E+00 0. -1.
         23    2    1    2    0    0  0.23046677063E+02  0.36795014977E+01 -0.33947759195E+03  0.35223491066E+03  0.90992905184E+02 0.  0.
         24    2    1    2    0    0 -0.15985374064E+02  0.56118399104E+02 -0.17659381223E+02  0.10093773186E+03  0.80447281279E+02 0.  0.
        -13    1    4    4    0    0  0.10168648734E+02  0.69334166732E+02 -0.12185561081E+02  0.71127462997E+02  0.00000000000E+00 0.  1.
         14    1    4    4    0    0 -0.26154022798E+02 -0.13215767628E+02 -0.54738201417E+01  0.29810268860E+02  0.00000000000E+00 0. -1.
        -11    1    3    3    0    0  0.58183894587E+02  0.53515629109E+01 -0.19727671082E+03  0.20574767422E+03  0.00000000000E+00 0. -1.
         11    1    3    3    0    0 -0.35137217523E+02 -0.16720614132E+01 -0.14220088113E+03  0.14648723643E+03  0.00000000000E+00 0.  1.
          1    1    1    2  501    0 -0.70613029991E+01 -0.59797900602E+02 -0.19308096021E+03  0.20225209050E+03  0.00000000000E+00 0. -1.
<scales pt_clust_5="13000.00000" pt_clust_6="13000.00000" pt_clust_7="13000.00000" pt_clust_8="13000.00000" pt_clust_9="60.21341"></scales>
<clustering>
<clus scale="   60.213">  1  9  2 -1</clus>
<clus scale="   80.447">  5  6 -1 -1</clus>
<clus scale="   83.539">  1  5  2 -1</clus>
<clus scale="   90.993">  7  8 -1 -1</clus>
<clus scale="   60.213">  1  5  2 -1</clus>
</clustering>
</event>
<event>
 9    2  0.1654290E-004  0.1193266E+03  0.7546771E-02  0.1247890E+00
          2   -1    0    0  502    0 -0.00000000000E+00  0.00000000000E+00  0.41273888883E+03  0.41273888883E+03  0.00000000000E+00 0. -1.
         21   -1    0    0  501  502  0.00000000000E+00 -0.00000000000E+00 -0.89069727706E+02  0.89069727706E+02  0.00000000000E+00 0. -1.
         24    2    1    2    0    0  0.79052716455E+02  0.30828144939E+01  0.32283446087E+03  0.34180224042E+03  0.79673375139E+02 0.  0.
         23    2    1    2    0    0 -0.59469109472E+02 -0.23742908080E+02 -0.32638973497E+02  0.11606500650E+03  0.91134419827E+02 0.  0.
        -11    1    3    3    0    0  0.22963130490E+02  0.39138701490E+02  0.14142158440E+03  0.14852342526E+03  0.00000000000E+00 0.  1.
         12    1    3    3    0    0  0.56089585965E+02 -0.36055886996E+02  0.18141287647E+03  0.19327881516E+03  0.00000000000E+00 0. -1.
        -13    1    4    4    0    0 -0.53074529415E+02  0.17446249846E+01 -0.58630798609E+02  0.79104487449E+02  0.00000000000E+00 0. -1.
         13    1    4    4    0    0 -0.63945800568E+01 -0.25487533065E+02  0.25991825112E+02  0.36960519051E+02  0.00000000000E+00 0.  1.
          1    1    1    2  501    0 -0.19583606983E+02  0.20660093586E+02  0.33473673750E+02  0.43941369617E+02  0.00000000000E+00 0. -1.
<scales pt_clust_5="13000.00000" pt_clust_6="13000.00000" pt_clust_7="13000.00000" pt_clust_8="13000.00000" pt_clust_9="28.46679"></scales>
<clustering>
<clus scale="   28.467">  2  9  1 -1</clus>
<clus scale="   79.673">  5  6 -1 -1</clus>
<clus scale="   91.134">  7  8 -1 -1</clus>
<clus scale="  110.821">  1  5  2 -1</clus>
<clus scale="   28.467">  2  5  1 -1</clus>
</clustering>
</event>
<event>
 9    2  0.1654290E-004  0.1678517E+03  0.7546771E-02  0.1181218E+00
          2   -1    0    0  502    0 -0.00000000000E+00  0.00000000000E+00  0.59944532447E+03  0.59944532447E+03  0.00000000000E+00 0. -1.
         21   -1    0    0  501  502  0.00000000000E+00 -0.00000000000E+00 -0.87392930988E+02  0.87392930988E+02  0.00000000000E+00 0. -1.
         23    2    1    2    0    0 -0.13430222230E+03  0.31363295039E+02  0.38496065755E+03  0.41866841267E+03  0.89820870157E+02 0.  0.
         24    2    1    2    0    0  0.15649318040E+03 -0.22519128019E+02  0.46341628703E+02  0.18396035562E+03  0.81832996103E+02 0.  0.
        -13    1    4    4    0    0  0.63888797662E+02 -0.32273658897E+02  0.55246651246E+02  0.90418803350E+02  0.00000000000E+00 0.  1.
         14    1    4    4    0    0  0.92604382736E+02  0.97545308779E+01 -0.89050225431E+01  0.93541552270E+02  0.00000000000E+00 0. -1.
        -11    1    3    3    0    0 -0.89720040616E+01 -0.20645108723E+02  0.23335000296E+02  0.32422825446E+02  0.00000000000E+00 0.  1.
         11    1    3    3    0    0 -0.12533021824E+03  0.52008403762E+02  0.36162565726E+03  0.38624558723E+03  0.00000000000E+00 0. -1.
          1    1    1    2  501    0 -0.22190958095E+02 -0.88441670199E+01  0.80750107228E+02  0.84209487166E+02  0.00000000000E+00 0. -1.
<scales pt_clust_5="13000.00000" pt_clust_6="13000.00000" pt_clust_7="13000.00000" pt_clust_8="13000.00000" pt_clust_9="23.88846"></scales>
<clustering>
<clus scale="   23.888">  2  9  1 -1</clus>
<clus scale="   81.833">  5  6 -1 -1</clus>
<clus scale="   89.821">  7  8 -1 -1</clus>
<clus scale="  163.716">  2  5  1 -1</clus>
<clus scale="   23.888">  2  5  1 -1</clus>
</clustering>
</event>
<event>
 9    2  0.1654290E-004  0.1157826E+03  0.7546771E-02  0.1250657E+00
         21   -1    0    0  501  502  0.00000000000E+00  0.00000000000E+00  0.10110418955E+03  0.10110418955E+03  0.00000000000E+00 0. -1.
          2   -1    0    0  502    0 -0.00000000000E+00 -0.00000000000E+00 -0.39899334645E+03  0.39899334645E+03  0.00000000000E+00 0. -1.
         24    2    1    2    0    0  0.20719709074E+02  0.90348214526E+02 -0.22582757955E+03  0.25716416726E+03  0.80890092257E+02 0.  0.
         23    2    1    2    0    0 -0.51995825331E+02 -0.15837760337E+02  0.38590380303E+02  0.10591563644E+03  0.82307375651E+02 0.  0.
        -11    1    3    3    0    0 -0.29353126125E+02  0.52066524652E+02 -0.11769913305E+03  0.13200611699E+03  0.00000000000E+00 0.  1.
         12    1    3    3    0    0  0.50072835199E+02  0.38281689874E+02 -0.10812844650E+03  0.12515805027E+03  0.00000000000E+00 0. -1.
        -11    1    4    4    0    0  0.18793876674E+02 -0.19988685132E+02  0.14442092122E+02  0.31005344033E+02  0.00000000000E+00 0.  1.
         11    1    4    4    0    0 -0.70789702005E+02  0.41509247955E+01  0.24148288181E+02  0.74910292408E+02  0.00000000000E+00 0. -1.
          1    1    1    2  501    0  0.31276116257E+02 -0.74510454189E+02 -0.11065195766E+03  0.13701773230E+03  0.00000000000E+00 0. -1.
<scales pt_clust_5="13000.00000" pt_clust_6="13000.00000" pt_clust_7="13000.00000" pt_clust_8="13000.00000" pt_clust_9="80.80848"></scales>
<clustering>
<clus scale="   80.808">  1  9  2 -1</clus>
<clus scale="   80.890">  5  6 -1 -1</clus>
<clus scale="   82.307">  7  8 -1 -1</clus>
<clus scale="  114.779">  2  5  1 -1</clus>
<clus scale="   80.808">  1  5  2 -1</clus>
</clustering>
</event>
<event>
 9    2  0.1654290E-004  0.1579297E+03  0.7546771E-02  0.1193407E+00
          2   -1    0    0  502    0 -0.00000000000E+00  0.00000000000E+00  0.60176785923E+03  0.60176785923E+03  0.00000000000E+00 0. -1.
         21   -1    0    0  501  502  0.00000000000E+00 -0.00000000000E+00 -0.75730588918E+02  0.75730588918E+02  0.00000000000E+00 0. -1.
         23    2    1    2    0    0  0.15651562812E+03 -0.44977367804E+02  0.33828911091E+03  0.38636894322E+03  0.91221336645E+02 0.  0.
         24    2    1    2    0    0 -0.93481069460E+02 -0.29881425799E+02  0.99936402117E+02  0.15964528807E+03  0.76601067752E+02 0.  0.
        -11    1    4    4    0    0 -0.30595248998E+02 -0.37664809918E+02  0.79364629743E+02  0.93023930371E+02  0.00000000000E+00 0.  1.
         12    1    4    4    0    0 -0.62885820461E+02  0.77833841189E+01  0.20571772374E+02  0.66621357702E+02  0.00000000000E+00 0. -1.
        -11    1    3    3    0    0  0.26822332566E+02 -0.49938758329E+02  0.95069487758E+02  0.11068660538E+03  0.00000000000E+00 0.  1.
         11    1    3    3    0    0  0.12969329556E+03  0.49613905252E+01  0.24321962316E+03  0.27568233784E+03  0.00000000000E+00 0. -1.
          1    1    1    2  501    0 -0.63034558663E+02  0.74858793602E+02  0.87811757278E+02  0.13148421685E+03  0.00000000000E+00 0. -1.
<scales pt_clust_5="13000.00000" pt_clust_6="13000.00000" pt_clust_7="13000.00000" pt_clust_8="13000.00000" pt_clust_9="97.86314"></scales>
<clustering>
<clus scale="   76.601">  5  6 -1 -1</clus>
<clus scale="   91.221">  7  8 -1 -1</clus>
<clus scale="   97.863">  2  9  1 -1</clus>
<clus scale="  149.961">  2  5  1 -1</clus>
<clus scale="   97.863">  2  5  1 -1</clus>
</clustering>
</event>
<event>
 9    2  0.1654290E-004  0.1160912E+03  0.7546771E-02  0.1256048E+00
         21   -1    0    0  501  502  0.00000000000E+00  0.00000000000E+00  0.11760301268E+03  0.11760301268E+03  0.00000000000E+00 0. -1.
         -3   -1    0    0    0  501 -0.00000000000E+00 -0.00000000000E+00 -0.14553658380E+03  0.14553658380E+03  0.00000000000E+00 0.  1.
         23    2    1    2    0    0 -0.13555867953E+02  0.44281082384E+02  0.13766516612E+01  0.10669497799E+03  0.96111119776E+02 0.  0.
         24    2    1    2    0    0  0.22133261562E+02 -0.80246649948E+02 -0.11105750126E+02  0.11523179820E+03  0.78902620585E+02 0.  0.
        -13    1    4    4    0    0  0.39579175091E+02 -0.13087288601E+02  0.96822808533E+01  0.42796434271E+02  0.00000000000E+00 0.  1.
         14    1    4    4    0    0 -0.17445913529E+02 -0.67159361348E+02 -0.20788030979E+02  0.72435363929E+02  0.00000000000E+00 0. -1.
        -11    1    3    3    0    0 -0.98232614553E+01  0.20162193041E+02 -0.47241381630E+02  0.52294919755E+02  0.00000000000E+00 0.  1.
         11    1    3    3    0    0 -0.37326064979E+01  0.24118889342E+02  0.48618033291E+02  0.54400058231E+02  0.00000000000E+00 0. -1.
         -4    1    1    2    0  502 -0.85773936091E+01  0.35965567565E+02 -0.18204472660E+02  0.41212820289E+02  0.00000000000E+00 0.  1.
<scales pt_clust_5="13000.00000" pt_clust_6="13000.00000" pt_clust_7="13000.00000" pt_clust_8="13000.00000" pt_clust_9="36.97425"></scales>
<clustering>
<clus scale="   36.974">  1  9  2 -1</clus>
<clus scale="   78.903">  5  6 -1 -1</clus>
<clus scale="   96.111">  7  8 -1 -1</clus>
<clus scale="  102.301">  1  5  2 -1</clus>
<clus scale="   36.974">  1  5  2 -1</clus>
</clustering>
</event>
<event>
 9    2  0.1654290E-004  0.1018884E+03  0.7546771E-02  0.1278919E+00
         -1   -1    0    0    0  501 -0.00000000000E+00  0.00000000000E+00  0.45706727226E+03  0.45706727226E+03  0.00000000000E+00 0.  1.
         21   -1    0    0  501  502  0.00000000000E+00 -0.00000000000E+00 -0.59400600142E+02  0.59400600142E+02  0.00000000000E+00 0. -1.
         23    2    1    2    0    0 -0.91011680750E+01 -0.43600392504E+02  0.34751906107E+03  0.36150080578E+03  0.89047792140E+02 0.  0.
         24    2    1    2    0    0  0.11625464250E+02  0.73328610562E+02  0.55362768554E+02  0.12467949676E+03  0.83472775349E+02 0.  0.
        -13    1    4    4    0    0 -0.20266802238E+02 -0.96619379678E+01  0.15252950679E+02  0.27143117409E+02  0.00000000000E+00 0.  1.
         14    1    4    4    0    0  0.31892266488E+02  0.82990548530E+02  0.40109817874E+02  0.97536379352E+02  0.00000000000E+00 0. -1.
        -11    1    3    3    0    0  0.37683404520E+02 -0.10389287139E+02  0.98836131051E+02  0.10628526269E+03  0.00000000000E+00 0.  1.
         11    1    3    3    0    0 -0.46784572595E+02 -0.33211105365E+02  0.24868293002E+03  0.25521554310E+03  0.00000000000E+00 0. -1.
         -2    1    1    2    0  502 -0.25242961752E+01 -0.29728218058E+02 -0.52151575103E+01  0.30287569859E+02  0.00000000000E+00 0.  1.
<scales pt_clust_5="13000.00000" pt_clust_6="13000.00000" pt_clust_7="13000.00000" pt_clust_8="13000.00000" pt_clust_9="29.83520"></scales>
<clustering>
<clus scale="   29.835">  2  9  1 -1</clus>
<clus scale="   83.473">  5  6 -1 -1</clus>
<clus scale="   89.048">  7  8 -1 -1</clus>
<clus scale="   97.054">  2  5  1 -1</clus>
<clus scale="   29.835">  2  5  1 -1</clus>
</clustering>
</event>
<event>
 9    2  0.1654290E-004  0.9357852E+02  0.7546771E-02  0.1302438E+00
          2   -1    0    0  502    0 -0.00000000000E+00  0.00000000000E+00  0.53979534925E+02  0.53979534925E+02  0.00000000000E+00 0. -1.
         21   -1    0    0  501  502  0.00000000000E+00 -0.00000000000E+00 -0.49797266295E+03  0.49797266295E+03  0.00000000000E+00 0.  1.
         24    2    1    2    0    0 -0.98212770005E+01 -0.52058203257E+01 -0.76271741087E+00  0.80752680506E+02  0.79980345235E+02 0.  0.
         23    2    1    2    0    0  0.13804125071E+02 -0.44155966250E+02 -0.23106199073E+03  0.25332825389E+03  0.92979876507E+02 0.  0.
        -11    1    3    3    0    0  0.24919792584E+02  0.24184157741E+02 -0.48575301049E+01  0.35063729790E+02  0.00000000000E+00 0.  1.
         12    1    3    3    0    0 -0.34741069584E+02 -0.29389978066E+02  0.40948126941E+01  0.45688950717E+02  0.00000000000E+00 0. -1.
        -11    1    4    4    0    0 -0.26710380421E+02 -0.19474697480E+02 -0.23867725840E+02  0.40772252831E+02  0.00000000000E+00 0. -1.
         11    1    4    4    0    0  0.40514505493E+02 -0.24681268771E+02 -0.20719426489E+03  0.21255600106E+03  0.00000000000E+00 0.  1.
          1    1    1    2  501    0 -0.39828480707E+01  0.49361786576E+02 -0.21216841989E+03  0.21787126348E+03  0.00000000000E+00 0. -1.
<scales pt_clust_5="13000.00000" pt_clust_6="13000.00000" pt_clust_7="13000.00000" pt_clust_8="13000.00000" pt_clust_9="49.52221"></scales>
<clustering>
<clus scale="   49.522">  2  9  1 -1</clus>
<clus scale="   79.980">  5  6 -1 -1</clus>
<clus scale="   80.676">  1  5  2 -1</clus>
<clus scale="   92.980">  7  8 -1 -1</clus>
<clus scale="   49.522">  2  5  1 -1</clus>
</clustering>
</event>
<event>
 9    2  0.1654290E-004  0.2091962E+03  0.7546771E-02  0.1142590E+00
          4   -1    0    0  502    0 -0.00000000000E+00  0.00000000000E+00  0.72587446938E+03  0.72587446938E+03  0.00000000000E+00 0. -1.
         21   -1    0    0  501  502  0.00000000000E+00 -0.00000000000E+00 -0.27571623367E+03  0.27571623367E+03  0.00000000000E+00 0. -1.
         23    2    1    2    0    0  0.23168105798E+02  0.19162357072E+03  0.62357165325E+03  0.65836086859E+03  0.85680059404E+02 0.  0.
         24    2    1    2    0    0 -0.33648200043E+02 -0.17393573195E+03 -0.28440986622E+02  0.19680682485E+03  0.80859114363E+02 0.  0.
        -13    1    4    4    0    0  0.15937886533E+02 -0.10676346094E+03  0.19268062070E+01  0.10796372262E+03  0.00000000000E+00 0.  1.
         14    1    4    4    0    0 -0.49586086576E+02 -0.67172271007E+02 -0.30367792829E+02  0.88843102239E+02  0.00000000000E+00 0. -1.
        -13    1    3    3    0    0  0.39684723141E+02  0.45206336085E+02  0.12956429553E+03  0.14284745972E+03  0.00000000000E+00 0.  1.
         13    1    3    3    0    0 -0.16516617344E+02  0.14641723463E+03  0.49400735771E+03  0.51551340887E+03  0.00000000000E+00 0. -1.
          3    1    1    2  501    0  0.10480094245E+02 -0.17687838773E+02 -0.14497243092E+03  0.14642300961E+03  0.00000000000E+00 0. -1.
<scales pt_clust_5="13000.00000" pt_clust_6="13000.00000" pt_clust_7="13000.00000" pt_clust_8="13000.00000" pt_clust_9="20.55948"></scales>
<clustering>
<clus scale="   20.559">  2  9  1 -1</clus>
<clus scale="   80.859">  5  6 -1 -1</clus>
<clus scale="   85.680">  7  8 -1 -1</clus>
<clus scale="  207.268">  2  5  1 -1</clus>
<clus scale="   20.559">  2  5  1 -1</clus>
</clustering>
</event>
<event>
 9    2  0.1654290E-004  0.2217069E+03  0.7546771E-02  0.1135954E+00
          2   -1    0    0  502    0 -0.00000000000E+00  0.00000000000E+00  0.22127765650E+03  0.22127765650E+03  0.00000000000E+00 0. -1.
         21   -1    0    0  501  502  0.00000000000E+00 -0.00000000000E+00 -0.51025675962E+03  0.51025675962E+03  0.00000000000E+00 0. -1.
         24    2    1    2    0    0  0.10788757289E+03 -0.15581495487E+03 -0.10387173186E+03  0.22927058988E+03  0.76535208650E+02 0.  0.
         23    2    1    2    0    0 -0.22235390593E+03 -0.32118417798E+02 -0.12950345921E+03  0.27529843461E+03  0.92440412742E+02 0.  0.
        -11    1    3    3    0    0  0.40706291253E+02 -0.94814466646E+01 -0.10330951245E+02  0.43053786500E+02  0.00000000000E+00 0.  1.
         12    1    3    3    0    0  0.67181281633E+02 -0.14633350820E+03 -0.93540780610E+02  0.18621680338E+03  0.00000000000E+00 0. -1.
        -11    1    4    4    0    0 -0.75395575605E+02  0.25896169631E+02 -0.71210446601E+02  0.10689261961E+03  0.00000000000E+00 0.  1.
         11    1    4    4    0    0 -0.14695833032E+03 -0.58014587430E+02 -0.58293012608E+02  0.16840581500E+03  0.00000000000E+00 0. -1.
          1    1    1    2  501    0  0.11446633304E+03  0.18793337266E+03 -0.55603912062E+02  0.22696539163E+03  0.00000000000E+00 0. -1.
<scales pt_clust_5="13000.00000" pt_clust_6="13000.00000" pt_clust_7="13000.00000" pt_clust_8="13000.00000" pt_clust_9="201.51610"></scales>
<clustering>
<clus scale="   76.535">  5  6 -1 -1</clus>
<clus scale="   92.440">  7  8 -1 -1</clus>
<clus scale="  204.391">  1  5  2 -1</clus>
<clus scale="  201.516">  2  9  1 -1</clus>
<clus scale="  201.516">  2  5  1 -1</clus>
</clustering>
</event>
<event>
 9    2  0.1654290E-004  0.2813835E+03  0.7546771E-02  0.1095336E+00
          2   -1    0    0  502    0 -0.00000000000E+00  0.00000000000E+00  0.82170658335E+03  0.82170658335E+03  0.00000000000E+00 0. -1.
         21   -1    0    0  501  502  0.00000000000E+00 -0.00000000000E+00 -0.39072441282E+03  0.39072441282E+03  0.00000000000E+00 0.  1.
         23    2    1    2    0    0 -0.16157536002E+03 -0.21525532811E+03  0.71550845128E+03  0.76973135028E+03  0.89958626537E+02 0.  0.
         24    2    1    2    0    0  0.17843572900E+03  0.17262322927E+03 -0.15089706570E+03  0.30142496659E+03  0.80305649754E+02 0.  0.
        -13    1    4    4    0    0  0.10842619330E+03  0.12169839527E+03 -0.13865768345E+03  0.21399227085E+03  0.00000000000E+00 0.  1.
         14    1    4    4    0    0  0.70009535701E+02  0.50924834001E+02 -0.12239382251E+02  0.87432695744E+02  0.00000000000E+00 0. -1.
        -13    1    3    3    0    0 -0.11857043997E+03 -0.91794000235E+02  0.43829412064E+03  0.46323517127E+03  0.00000000000E+00 0. -1.
         13    1    3    3    0    0 -0.43004920059E+02 -0.12346132788E+03  0.27721433065E+03  0.30649617901E+03  0.00000000000E+00 0.  1.
          1    1    1    2  501    0 -0.16860368975E+02  0.42632098848E+02 -0.13362921506E+03  0.14127467930E+03  0.00000000000E+00 0. -1.
<scales pt_clust_5="13000.00000" pt_clust_6="13000.00000" pt_clust_7="13000.00000" pt_clust_8="13000.00000" pt_clust_9="45.84504"></scales>
<clustering>
<clus scale="   45.845">  2  9  1 -1</clus>
<clus scale="   80.306">  5  6 -1 -1</clus>
<clus scale="   89.959">  7  8 -1 -1</clus>
<clus scale="  278.448">  2  5  1 -1</clus>
<clus scale="   45.845">  2  5  1 -1</clus>
</clustering>
</event>
<event>
 9    2  0.1654290E-004  0.1284563E+03  0.7546771E-02  0.1234429E+00
         -3   -1    0    0    0  501 -0.00000000000E+00  0.00000000000E+00  0.48304520777E+02  0.48304520777E+02  0.00000000000E+00 0.  1.
         21   -1    0    0  501  502  0.00000000000E+00 -0.00000000000E+00 -0.68691937567E+03  0.68691937567E+03  0.00000000000E+00 0.  1.
         24    2    1    2    0    0 -0.16459257112E+01  0.65230565599E+02 -0.11834512527E+03  0.15632227197E+03  0.78570657869E+02 0.  0.
         23    2    1    2    0    0 -0.28233528950E+02 -0.14084507244E+03 -0.34128685460E+03  0.38231778738E+03  0.95161477697E+02 0.  0.
        -13    1    3    3    0    0  0.21653734853E+02  0.61829416914E+02 -0.11525668911E+03  0.13257399976E+03  0.00000000000E+00 0.  1.
         14    1    3    3    0    0 -0.23299660564E+02  0.34011486851E+01 -0.30884361625E+01  0.23748272204E+02  0.00000000000E+00 0. -1.
        -11    1    4    4    0    0  0.14895735936E+02 -0.12245025230E+03 -0.27191665989E+03  0.29858770431E+03  0.00000000000E+00 0.  1.
         11    1    4    4    0    0 -0.43129264886E+02 -0.18394820145E+02 -0.69370194701E+02  0.83730083068E+02  0.00000000000E+00 0. -1.
         -4    1    1    2    0  502  0.29879454661E+02  0.75614506846E+02 -0.17898287503E+03  0.19658383710E+03  0.00000000000E+00 0.  1.
<scales pt_clust_5="13000.00000" pt_clust_6="13000.00000" pt_clust_7="13000.00000" pt_clust_8="13000.00000" pt_clust_9="81.30397"></scales>
<clustering>
<clus scale="   78.571">  5  6 -1 -1</clus>
<clus scale="   81.304">  2  9  1 -1</clus>
<clus scale="   95.161">  7  8 -1 -1</clus>
<clus scale="  116.699">  1  5  2 -1</clus>
<clus scale="   81.304">  2  5  1 -1</clus>
</clustering>
</event>
<event>
 9    2  0.1654290E-004  0.1066594E+03  0.7546771E-02  0.1270842E+00
          2   -1    0    0  502    0 -0.00000000000E+00  0.00000000000E+00  0.98205307230E+03  0.98205307230E+03  0.00000000000E+00 0. -1.
         21   -1    0    0  501  502  0.00000000000E+00 -0.00000000000E+00 -0.26307995834E+02  0.26307995834E+02  0.00000000000E+00 0.  1.
         23    2    1    2    0    0 -0.20319332645E+02  0.45509403755E+01  0.18890522229E+03  0.21000442883E+03  0.89348143700E+02 0.  0.
         24    2    1    2    0    0  0.99795103032E+02 -0.16476631996E+02  0.33132812550E+03  0.35549200308E+03  0.79785308908E+02 0.  0.
        -11    1    4    4    0    0  0.11142853068E+03 -0.20712954808E+02  0.26824851061E+03  0.29120887245E+03  0.00000000000E+00 0.  1.
         12    1    4    4    0    0 -0.11633427650E+02  0.42363228122E+01  0.63079614886E+02  0.64283130633E+02  0.00000000000E+00 0. -1.
        -13    1    3    3    0    0 -0.45773993149E+02 -0.56811144164E+01  0.48449793587E+02  0.66894813016E+02  0.00000000000E+00 0.  1.
         13    1    3    3    0    0  0.25454660503E+02  0.10232054792E+02  0.14045542870E+03  0.14310961581E+03  0.00000000000E+00 0. -1.
          1    1    1    2  501    0 -0.79475770387E+02  0.11925691621E+02  0.43551172868E+03  0.44286463622E+03  0.00000000000E+00 0. -1.
<scales pt_clust_5="13000.00000" pt_clust_6="13000.00000" pt_clust_7="13000.00000" pt_clust_8="13000.00000" pt_clust_9="80.36558"></scales>
<clustering>
<clus scale="   79.785">  5  6 -1 -1</clus>
<clus scale="   80.366">  2  9  1 -1</clus>
<clus scale="   89.348">  7  8 -1 -1</clus>
<clus scale="   98.787">  2  5  1 -1</clus>
<clus scale="   80.366">  2  5  1 -1</clus>
</clustering>
</event>
<event>
 9    2  0.1654290E-004  0.1325131E+03  0.7546771E-02  0.1238736E+00
         21   -1    0    0  501  502  0.00000000000E+00  0.00000000000E+00  0.12380354735E+03  0.12380354735E+03  0.00000000000E+00 0. -1.
          2   -1    0    0  502    0 -0.00000000000E+00 -0.00000000000E+00 -0.50892688862E+03  0.50892688862E+03  0.00000000000E+00 0. -1.
         23    2    1    2    0    0 -0.45808286268E+02 -0.48207329995E+01 -0.35513244233E+03  0.36823485226E+03  0.85768387326E+02 0.  0.
         24    2    1    2    0    0 -0.68794292553E+02 -0.15133464325E+02 -0.83832128694E+02  0.13631290514E+03  0.81189321196E+02 0.  0.
        -11    1    4    4    0    0 -0.49241411590E+02 -0.35893710881E+02 -0.88465234432E+02  0.10742054179E+03  0.00000000000E+00 0.  1.
         12    1    4    4    0    0 -0.19552880963E+02  0.20760246556E+02  0.46331057378E+01  0.28892363348E+02  0.00000000000E+00 0. -1.
        -11    1    3    3    0    0 -0.23676861128E+02  0.39171963309E+02 -0.21145395410E+03  0.21635112934E+03  0.00000000000E+00 0. -1.
         11    1    3    3    0    0 -0.22131425140E+02 -0.43992696308E+02 -0.14367848823E+03  0.15188372292E+03  0.00000000000E+00 0.  1.
          1    1    1    2  501    0  0.11460257882E+03  0.19954197324E+02  0.53841229755E+02  0.12818267857E+03  0.00000000000E+00 0. -1.
<scales pt_clust_5="13000.00000" pt_clust_6="13000.00000" pt_clust_7="13000.00000" pt_clust_8="13000.00000" pt_clust_9="104.72833"></scales>
<clustering>
<clus scale="   81.189">  5  6 -1 -1</clus>
<clus scale="   85.768">  7  8 -1 -1</clus>
<clus scale="   97.354">  2  7  1 -1</clus>
<clus scale="  104.728">  1  9  2 -1</clus>
<clus scale="  104.728">  1  5  2 -1</clus>
</clustering>
</event>
<event>
 9    2  0.1654290E-004  0.1067937E+03  0.7546771E-02  0.1267530E+00
         21   -1    0    0  501  502  0.00000000000E+00  0.00000000000E+00  0.99321815662E+02  0.99321815662E+02  0.00000000000E+00 0.  1.
         -3   -1    0    0    0  501 -0.00000000000E+00 -0.00000000000E+00 -0.17555766148E+03  0.17555766148E+03  0.00000000000E+00 0.  1.
         23    2    1    2    0    0 -0.50426489390E+02 -0.22794310018E+02 -0.14585041560E+02  0.10006405164E+03  0.82083369761E+02 0.  0.
         24    2    1    2    0    0  0.84366714719E+02  0.11368203602E+02 -0.17370505589E+02  0.11786597728E+03  0.79647194112E+02 0.  0.
        -11    1    4    4    0    0  0.91432249710E+02 -0.90859997565E+01 -0.30821595765E+01  0.91934277537E+02  0.00000000000E+00 0.  1.
         12    1    4    4    0    0 -0.70655349907E+01  0.20454203358E+02 -0.14288346013E+02  0.25931699742E+02  0.00000000000E+00 0. -1.
        -13    1    3    3    0    0 -0.25244998961E+01 -0.31922018431E+02 -0.34786842540E+02  0.47281209527E+02  0.00000000000E+00 0.  1.
         13    1    3    3    0    0 -0.47901989494E+02  0.91277084127E+01  0.20201800980E+02  0.52782842110E+02  0.00000000000E+00 0. -1.
         -4    1    1    2    0  502 -0.33940225329E+02  0.11426106417E+02 -0.44280298673E+02  0.56949448231E+02  0.00000000000E+00 0.  1.
<scales pt_clust_5="13000.00000" pt_clust_6="13000.00000" pt_clust_7="13000.00000" pt_clust_8="13000.00000" pt_clust_9="35.81195"></scales>
<clustering>
<clus scale="   35.812">  1  9  2 -1</clus>
<clus scale="   79.647">  5  6 -1 -1</clus>
<clus scale="   82.083">  7  8 -1 -1</clus>
<clus scale="  104.933">  1  5  2 -1</clus>
<clus scale="   35.812">  1  5  2 -1</clus>
</clustering>
</event>
<event>
 9    2  0.1654290E-004  0.1050703E+03  0.7546771E-02  0.1275651E+00
         21   -1    0    0  501  502  0.00000000000E+00  0.00000000000E+00  0.13214742081E+02  0.13214742081E+02  0.00000000000E+00 0.  1.
          2   -1    0    0  502    0 -0.00000000000E+00 -0.00000000000E+00 -0.13139441126E+04  0.13139441126E+04  0.00000000000E+00 0. -1.
         24    2    1    2    0    0  0.50715683781E+02  0.19538028846E+02 -0.94153786774E+03  0.94654672655E+03  0.80643251491E+02 0.  0.
         23    2    1    2    0    0 -0.27373072256E+02 -0.17585450520E+02 -0.32099801612E+03  0.33580774778E+03  0.93105230586E+02 0.  0.
        -13    1    3    3    0    0  0.48674211879E+02 -0.95703297775E+01 -0.27962870427E+03  0.28399468722E+03  0.00000000000E+00 0.  1.
         14    1    3    3    0    0  0.20414719020E+01  0.29108358624E+02 -0.66190916347E+03  0.66255203934E+03  0.00000000000E+00 0. -1.
        -11    1    4    4    0    0  0.31622357323E+02 -0.15787682380E+02 -0.76249348788E+02  0.84042772373E+02  0.00000000000E+00 0.  1.
         11    1    4    4    0    0 -0.58995429579E+02 -0.17977681402E+01 -0.24474866733E+03  0.25176497541E+03  0.00000000000E+00 0. -1.
          1    1    1    2  501    0 -0.23342611525E+02 -0.19525783257E+01 -0.38193486663E+02  0.44804380348E+02  0.00000000000E+00 0. -1.
<scales pt_clust_5="13000.00000" pt_clust_6="13000.00000" pt_clust_7="13000.00000" pt_clust_8="13000.00000" pt_clust_9="23.42413"></scales>
<clustering>
<clus scale="   23.424">  1  9  2 -1</clus>
<clus scale="   80.643">  5  6 -1 -1</clus>
<clus scale="   93.105">  7  8 -1 -1</clus>
<clus scale="   94.205">  2  5  1 -1</clus>
<clus scale="   23.424">  1  5  2 -1</clus>
</clustering>
</event>
<event>
 9    2  0.1654290E-004  0.1029158E+03  0.7546771E-02  0.1277169E+00
          2   -1    0    0  502    0 -0.00000000000E+00  0.00000000000E+00  0.22366932673E+03  0.22366932673E+03  0.00000000000E+00 0. -1.
         21   -1    0    0  501  502  0.00000000000E+00 -0.00000000000E+00 -0.15566104061E+03  0.15566104061E+03  0.00000000000E+00 0.  1.
         23    2    1    2    0    0  0.57840602804E+02 -0.88824106977E+01  0.14832242415E+03  0.18261153159E+03  0.89011220719E+02 0.  0.
         24    2    1    2    0    0 -0.18374495516E+02 -0.55220746106E+02 -0.64385130428E+02  0.11977390985E+03  0.82543270930E+02 0.  0.
        -13    1    4    4    0    0 -0.27585142583E+02  0.61819961603E+01 -0.47756056330E+02  0.55495928535E+02  0.00000000000E+00 0.  1.
         14    1    4    4    0    0  0.92106470665E+01 -0.61402742266E+02 -0.16629074099E+02  0.64277981320E+02  0.00000000000E+00 0. -1.
        -11    1    3    3    0    0 -0.24856754349E+01  0.32984629596E+02  0.44645449224E+02  0.55564201681E+02  0.00000000000E+00 0.  1.
         11    1    3    3    0    0  0.60326278239E+02 -0.41867040294E+02  0.10367697492E+03  0.12704732991E+03  0.00000000000E+00 0. -1.
          1    1    1    2  501    0 -0.39466107288E+02  0.64103156803E+02 -0.15929007603E+02  0.76944925887E+02  0.00000000000E+00 0. -1.
<scales pt_clust_5="13000.00000" pt_clust_6="13000.00000" pt_clust_7="13000.00000" pt_clust_8="13000.00000" pt_clust_9="75.27807"></scales>
<clustering>
<clus scale="   75.278">  2  9  1 -1</clus>
<clus scale="   82.543">  5  6 -1 -1</clus>
<clus scale="   89.011">  7  8 -1 -1</clus>
<clus scale="   97.376">  2  5  1 -1</clus>
<clus scale="   75.278">  2  5  1 -1</clus>
</clustering>
</event>
<event>
 9    2  0.1654290E-004  0.2364790E+03  0.7546771E-02  0.1122161E+00
         21   -1    0    0  501  502  0.00000000000E+00  0.00000000000E+00  0.74222508880E+02  0.74222508880E+02  0.00000000000E+00 0. -1.
         -1   -1    0    0    0  501 -0.00000000000E+00 -0.00000000000E+00 -0.51600947320E+03  0.51600947320E+03  0.00000000000E+00 0.  1.
         24    2    1    2    0    0 -0.84000514561E+02  0.29143383882E+02 -0.63405007136E+02  0.13944042461E+03  0.86706480814E+02 0.  0.
         23    2    1    2    0    0 -0.25747717174E+02  0.47073772371E+02 -0.11970944906E+03  0.15964692720E+03  0.90982988435E+02 0.  0.
        -11    1    3    3    0    0  0.30802124921E+01 -0.21984696841E+02 -0.18618092894E+02  0.28973228802E+02  0.00000000000E+00 0.  1.
         12    1    3    3    0    0 -0.87080727053E+02  0.51128080723E+02 -0.44786914242E+02  0.11046719581E+03  0.00000000000E+00 0. -1.
        -13    1    4    4    0    0  0.20450951341E+02 -0.15839924505E+02 -0.43174006753E+02  0.50330303776E+02  0.00000000000E+00 0.  1.
         13    1    4    4    0    0 -0.46198668515E+02  0.62913696876E+02 -0.76535442304E+02  0.10931662342E+03  0.00000000000E+00 0. -1.
         -2    1    1    2    0  502  0.10974823173E+03 -0.76217156253E+02 -0.25867250813E+03  0.29114463027E+03  0.00000000000E+00 0.  1.
<scales pt_clust_5="13000.00000" pt_clust_6="13000.00000" pt_clust_7="13000.00000" pt_clust_8="13000.00000" pt_clust_9="133.61791"></scales>
<clustering>
<clus scale="   86.706">  5  6 -1 -1</clus>
<clus scale="   90.983">  7  8 -1 -1</clus>
<clus scale="  105.105">  5  7 -1 -1</clus>
<clus scale="  133.618">  1  9  2 -1</clus>
<clus scale="  133.618">  1  5  2 -1</clus>
</clustering>
</event>
<event>
 9    2  0.1654290E-004  0.1163897E+03  0.7546771E-02  0.1253397E+00
         -1   -1    0    0    0  501 -0.00000000000E+00  0.00000000000E+00  0.21897188172E+02  0.21897188172E+02  0.00000000000E+00 0.  1.
         21   -1    0    0  501  502  0.00000000000E+00 -0.00000000000E+00 -0.78544637923E+03  0.78544637923E+03  0.00000000000E+00 0.  1.
         24    2    1    2    0    0 -0.63351002561E+02  0.46470100668E+02 -0.28353005906E+03  0.30531516652E+03  0.81579634312E+02 0.  0.
         23    2    1    2    0    0  0.32684236762E+02 -0.47506144452E+02 -0.42552791885E+03  0.43949188178E+03  0.93562873703E+02 0.  0.
        -13    1    3    3    0    0 -0.76185482128E+02  0.50283374321E+02 -0.18953697303E+03  0.21037326248E+03  0.00000000000E+00 0.  1.
         14    1    3    3    0    0  0.12834479566E+02 -0.38132736526E+01 -0.93993086024E+02  0.94941904036E+02  0.00000000000E+00 0. -1.
        -13    1    4    4    0    0 -0.10033864997E+02 -0.56278917008E+02 -0.32384427985E+03  0.32885120121E+03  0.00000000000E+00 0.  1.
         13    1    4    4    0    0  0.42718101759E+02  0.87727725566E+01 -0.10168363900E+03  0.11064068057E+03  0.00000000000E+00 0. -1.
         -2    1    1    2    0  502  0.30666765799E+02  0.10360437834E+01 -0.54491213153E+02  0.62536519108E+02  0.00000000000E+00 0.  1.
<scales pt_clust_5="13000.00000" pt_clust_6="13000.00000" pt_clust_7="13000.00000" pt_clust_8="13000.00000" pt_clust_9="30.68428"></scales>
<clustering>
<clus scale="   30.684">  2  9  1 -1</clus>
<clus scale="   81.580">  5  6 -1 -1</clus>
<clus scale="   93.563">  7  8 -1 -1</clus>
<clus scale="  106.994">  1  5  2 -1</clus>
<clus scale="   30.684">  2  5  1 -1</clus>
</clustering>
</event>
<event>
 9    2  0.1654290E-004  0.1797259E+03  0.7546771E-02  0.1169096E+00
         21   -1    0    0  501  502  0.00000000000E+00  0.00000000000E+00  0.10337692488E+03  0.10337692488E+03  0.00000000000E+00 0.  1.
          2   -1    0    0  502    0 -0.00000000000E+00 -0.00000000000E+00 -0.11232086900E+04  0.11232086900E+04  0.00000000000E+00 0. -1.
         24    2    1    2    0    0 -0.13276930585E+03  0.76781170556E+02 -0.98301722605E+03  0.99833586764E+03  0.82635350587E+02 0.  0.
         23    2    1    2    0    0  0.15935235817E+03 -0.64524310598E+02 -0.40408134731E+02  0.19875732076E+03  0.91187139926E+02 0.  0.
        -13    1    3    3    0    0 -0.44248692182E+02  0.36966569484E+01 -0.12455993108E+03  0.13223762121E+03  0.00000000000E+00 0.  1.
         14    1    3    3    0    0 -0.88520613665E+02  0.73084513607E+02 -0.85845729498E+03  0.86609824643E+03  0.00000000000E+00 0. -1.
        -11    1    4    4    0    0  0.63502009311E+02  0.15465184547E+02  0.58525326470E+01  0.65619579837E+02  0.00000000000E+00 0. -1.
         11    1    4    4    0    0  0.95850348862E+02 -0.79989495145E+02 -0.46260667378E+02  0.13313774092E+03  0.00000000000E+00 0.  1.
          1    1    1    2  501    0 -0.26583052326E+02 -0.12256859958E+02  0.35935957064E+01  0.29492426437E+02  0.00000000000E+00 0. -1.
<scales pt_clust_5="13000.00000" pt_clust_6="13000.00000" pt_clust_7="13000.00000" pt_clust_8="13000.00000" pt_clust_9="29.27267"></scales>
<clustering>
<clus scale="   29.273">  1  9  2 -1</clus>
<clus scale="   82.635">  5  6 -1 -1</clus>
<clus scale="   91.187">  7  8 -1 -1</clus>
<clus scale="  175.542">  2  5  1 -1</clus>
<clus scale="   29.273">  1  5  2 -1</clus>
</clustering>
</event>
<event>
 9    2  0.1654290E-004  0.1465760E+03  0.7546771E-02  0.1206362E+00
         21   -1    0    0  501  502  0.00000000000E+00  0.00000000000E+00  0.84930381245E+02  0.84930381245E+02  0.00000000000E+00 0. -1.
          2   -1    0    0  502    0 -0.00000000000E+00 -0.00000000000E+00 -0.42063656577E+03  0.42063656577E+03  0.00000000000E+00 0. -1.
         23    2    1    2    0    0  0.78864570461E+02  0.54996443348E+02 -0.16072817129E+03  0.20720772672E+03  0.88641230305E+02 0.  0.
         24    2    1    2    0    0 -0.14076712230E+03 -0.72236465462E+02 -0.12519109829E+03  0.21707034537E+03  0.80082670335E+02 0.  0.
        -13    1    4    4    0    0 -0.44605323123E+02 -0.52161413157E+02 -0.88980079960E+02  0.11237394050E+03  0.00000000000E+00 0.  1.
         14    1    4    4    0    0 -0.96161799175E+02 -0.20075052306E+02 -0.36211018325E+02  0.10469640487E+03  0.00000000000E+00 0. -1.
        -11    1    3    3    0    0  0.23785170518E+02  0.44688322600E+02 -0.13754556936E+03  0.14656590382E+03  0.00000000000E+00 0. -1.
         11    1    3    3    0    0  0.55079399944E+02  0.10308120748E+02 -0.23182601930E+02  0.60641822893E+02  0.00000000000E+00 0.  1.
          1    1    1    2  501    0  0.61902551836E+02  0.17240022115E+02 -0.49786914951E+02  0.81288874926E+02  0.00000000000E+00 0. -1.
<scales pt_clust_5="13000.00000" pt_clust_6="13000.00000" pt_clust_7="13000.00000" pt_clust_8="13000.00000" pt_clust_9="64.25842"></scales>
<clustering>
<clus scale="   64.258">  1  9  2 -1</clus>
<clus scale="   80.083">  5  6 -1 -1</clus>
<clus scale="   88.641">  7  8 -1 -1</clus>
<clus scale="  141.564">  1  5  2 -1</clus>
<clus scale="   64.258">  1  5  2 -1</clus>
</clustering>
</event>
<event>
 9    2  0.1654290E-004  0.8344177E+02  0.7546771E-02  0.1326896E+00
          2   -1    0    0  502    0 -0.00000000000E+00  0.00000000000E+00  0.40681944413E+03  0.40681944413E+03  0.00000000000E+00 0. -1.
         21   -1    0    0  501  502  0.00000000000E+00 -0.00000000000E+00 -0.24709040854E+03  0.24709040854E+03  0.00000000000E+00 0. -1.
         23    2    1    2    0    0  0.13269613200E+02 -0.77677053203E+01  0.31679259167E+03  0.32726618286E+03  0.80679541549E+02 0.  0.
         24    2    1    2    0    0 -0.12105634220E+02  0.71554905400E+02  0.48120437755E+02  0.11177014174E+03  0.70073798153E+02 0.  0.
        -11    1    4    4    0    0 -0.19562365925E+02  0.96704022225E+01 -0.12224629051E+02  0.25012884583E+02  0.00000000000E+00 0.  1.
         12    1    4    4    0    0  0.74567317046E+01  0.61884503177E+02  0.60345066805E+02  0.86757257154E+02  0.00000000000E+00 0. -1.
        -11    1    3    3    0    0 -0.31750464966E+02  0.68924799424E+01  0.16832087934E+03  0.17142787617E+03  0.00000000000E+00 0.  1.
         11    1    3    3    0    0  0.45020078165E+02 -0.14660185263E+02  0.14847171233E+03  0.15583830669E+03  0.00000000000E+00 0. -1.
          1    1    1    2  501    0 -0.11639789793E+01 -0.63787200080E+02 -0.20518399384E+03  0.21487352808E+03  0.00000000000E+00 0. -1.
<scales pt_clust_5="13000.00000" pt_clust_6="13000.00000" pt_clust_7="13000.00000" pt_clust_8="13000.00000" pt_clust_9="63.79782"></scales>
<clustering>
<clus scale="   63.798">  2  9  1 -1</clus>
<clus scale="   70.074">  5  6 -1 -1</clus>
<clus scale="   73.237">  2  5  1 -1</clus>
<clus scale="   80.680">  7  8 -1 -1</clus>
<clus scale="   63.798">  2  5  1 -1</clus>
</clustering>
</event>
<event>
 9    2  0.1654290E-004  0.1793998E+03  0.7546771E-02  0.1185526E+00
         21   -1    0    0  501  502  0.00000000000E+00  0.00000000000E+00  0.10608730433E+03  0.10608730433E+03  0.00000000000E+00 0. -1.
         -3   -1    0    0    0  501 -0.00000000000E+00 -0.00000000000E+00 -0.54587772251E+03  0.54587772251E+03  0.00000000000E+00 0.  1.
         23    2    1    2    0    0  0.74545008522E+02 -0.31267671324E+02 -0.17227568078E+03  0.21097523307E+03  0.91087942201E+02 0.  0.
         24    2    1    2    0    0 -0.12459023504E+03  0.15579403257E+03 -0.15066317678E+03  0.26304141204E+03  0.81834493703E+02 0.  0.
        -13    1    4    4    0    0 -0.40962452377E+02  0.43178693256E+02 -0.95054466897E+02  0.11215022841E+03  0.00000000000E+00 0.  1.
         14    1    4    4    0    0 -0.83627782659E+02  0.11261533932E+03 -0.55608709884E+02  0.15089118363E+03  0.00000000000E+00 0. -1.
        -13    1    3    3    0    0  0.40056060656E+02 -0.88648851411E+01 -0.16396257286E+03  0.16901715736E+03  0.00000000000E+00 0.  1.
         13    1    3    3    0    0  0.34488947866E+02 -0.22402786183E+02 -0.83131079197E+01  0.41958075706E+02  0.00000000000E+00 0. -1.
         -4    1    1    2    0  502  0.50045226515E+02 -0.12452636125E+03 -0.11685156062E+03  0.17794838174E+03  0.00000000000E+00 0.  1.
<scales pt_clust_5="13000.00000" pt_clust_6="13000.00000" pt_clust_7="13000.00000" pt_clust_8="13000.00000" pt_clust_9="159.64774"></scales>
<clustering>
<clus scale="   81.834">  5  6 -1 -1</clus>
<clus scale="   91.088">  7  8 -1 -1</clus>
<clus scale="  121.785">  2  7  1 -1</clus>
<clus scale="  159.648">  1  9  2 -1</clus>
<clus scale="  159.648">  1  5  2 -1</clus>
</clustering>
</event>
<event>
 9    2  0.1654290E-004  0.1217427E+03  0.7546771E-02  0.1241403E+00
         21   -1    0    0  501  502  0.00000000000E+00  0.00000000000E+00  0.18116780185E+03  0.18116780185E+03  0.00000000000E+00 0.  1.
         -1   -1    0    0    0  501 -0.00000000000E+00 -0.00000000000E+00 -0.16700532500E+03  0.16700532500E+03  0.00000000000E+00 0.  1.
         23    2    1    2    0    0  0.76038061895E+02 -0.19968866860E+00 -0.35793949370E+02  0.12412976158E+03  0.91351870081E+02 0.  0.
         24    2    1    2    0    0 -0.77286676896E+02  0.77709330741E+02  0.40080102194E+02  0.14589705742E+03  0.87564640480E+02 0.  0.
        -11    1    4    4    0    0 -0.83153296956E+02  0.24613540082E+02  0.21568789522E+02  0.89361679882E+02  0.00000000000E+00 0.  1.
         12    1    4    4    0    0  0.58666200592E+01  0.53095790659E+02  0.18511312672E+02  0.56535377539E+02  0.00000000000E+00 0. -1.
        -13    1    3    3    0    0  0.18092991422E+02 -0.86164333339E+01  0.29985079149E+02  0.36065277395E+02  0.00000000000E+00 0. -1.
         13    1    3    3    0    0  0.57945070473E+02  0.84167446653E+01 -0.65779028518E+02  0.88064484190E+02  0.00000000000E+00 0.  1.
         -2    1    1    2    0  502  0.12486150017E+01 -0.77509642072E+02  0.98763240177E+01  0.78146307844E+02  0.00000000000E+00 0.  1.
<scales pt_clust_5="13000.00000" pt_clust_6="13000.00000" pt_clust_7="13000.00000" pt_clust_8="13000.00000" pt_clust_9="77.51970"></scales>
<clustering>
<clus scale="   77.520">  1  9  2 -1</clus>
<clus scale="   87.565">  5  6 -1 -1</clus>
<clus scale="   91.352">  7  8 -1 -1</clus>
<clus scale="  118.927">  1  5  2 -1</clus>
<clus scale="   77.520">  1  5  2 -1</clus>
</clustering>
</event>
<event>
 9    2  0.1654290E-004  0.2425358E+03  0.7546771E-02  0.1151413E+00
         21   -1    0    0  501  502  0.00000000000E+00  0.00000000000E+00  0.52671296757E+02  0.52671296757E+02  0.00000000000E+00 0. -1.
          2   -1    0    0  502    0 -0.00000000000E+00 -0.00000000000E+00 -0.16379814094E+04  0.16379814094E+04  0.00000000000E+00 0. -1.
         24    2    1    2    0    0 -0.16255915731E+02 -0.69827117716E+02 -0.40412168618E+03  0.41825058821E+03  0.80493081292E+02 0.  0.
         23    2    1    2    0    0  0.57951577383E+02  0.25702300796E+03 -0.63696022498E+03  0.69537078013E+03  0.91667779034E+02 0.  0.
        -11    1    3    3    0    0 -0.12406109139E+02 -0.88158156181E+02 -0.33781470736E+03  0.34934874918E+03  0.00000000000E+00 0.  1.
         12    1    3    3    0    0 -0.38498065919E+01  0.18331038465E+02 -0.66306978812E+02  0.68901839026E+02  0.00000000000E+00 0. -1.
        -11    1    4    4    0    0  0.41206014309E+02  0.14058326029E+03 -0.23842079905E+03  0.27983221063E+03  0.00000000000E+00 0. -1.
         11    1    4    4    0    0  0.16745563074E+02  0.11643974767E+03 -0.39853942593E+03  0.41553856950E+03  0.00000000000E+00 0.  1.
          1    1    1    2  501    0 -0.41695661652E+02 -0.18719589025E+03 -0.54422820149E+03  0.57703133782E+03  0.00000000000E+00 0. -1.
<scales pt_clust_5="13000.00000" pt_clust_6="13000.00000" pt_clust_7="13000.00000" pt_clust_8="13000.00000" pt_clust_9="224.54541"></scales>
<clustering>
<clus scale="   80.493">  5  6 -1 -1</clus>
<clus scale="   91.668">  7  8 -1 -1</clus>
<clus scale="  107.792">  2  5  1 -1</clus>
<clus scale="  224.545">  1  9  2 -1</clus>
<clus scale="  224.545">  1  5  2 -1</clus>
</clustering>
</event>
<event>
 9    2  0.2018207E-004  0.2400578E+03  0.7546771E-02  0.1162476E+00
         21   -1    0    0  501  502  0.00000000000E+00  0.00000000000E+00  0.21958277916E+03  0.21958277916E+03  0.00000000000E+00 0. -1.
          2   -1    0    0  502    0 -0.00000000000E+00 -0.00000000000E+00 -0.54945652262E+03  0.54945652262E+03  0.00000000000E+00 0. -1.
         24    2    1    2    0    0 -0.27300797342E+02 -0.14314891271E+02 -0.23654516651E+03  0.25162721134E+03  0.80077387845E+02 0.  0.
         23    2    1    2    0    0 -0.19346160214E+03 -0.88243982321E+02  0.47597180499E+02  0.23613921814E+03  0.91004652827E+02 0.  0.
        -13    1    3    3    0    0 -0.24170297261E+01  0.32513421249E+02 -0.97941830101E+02  0.10322580432E+03  0.00000000000E+00 0.  1.
         14    1    3    3    0    0 -0.24883767616E+02 -0.46828312520E+02 -0.13860333640E+03  0.14840140702E+03  0.00000000000E+00 0. -1.
        -11    1    4    4    0    0 -0.41585425277E+02 -0.60601440320E+02 -0.33621245308E+01  0.73574357256E+02  0.00000000000E+00 0. -1.
         11    1    4    4    0    0 -0.15187617686E+03 -0.27642542001E+02  0.50959305030E+02  0.16256486089E+03  0.00000000000E+00 0.  1.
          1    1    1    2  501    0  0.22076239948E+03  0.10255887359E+03 -0.14092575745E+03  0.28127287230E+03  0.00000000000E+00 0. -1.
<scales pt_clust_5="13000.00000" pt_clust_6="13000.00000" pt_clust_7="13000.00000" pt_clust_8="13000.00000" pt_clust_9="222.13945"></scales>
<clustering>
<clus scale="   80.077">  5  6 -1 -1</clus>
<clus scale="   85.806">  2  5  1 -1</clus>
<clus scale="   91.005">  7  8 -1 -1</clus>
<clus scale="  222.139">  1  9  2 -1</clus>
<clus scale="  222.139">  1  5  2 -1</clus>
</clustering>
</event>
<event>
 9    2  0.1654290E-004  0.9871706E+02  0.7546771E-02  0.1287397E+00
          2   -1    0    0  502    0 -0.00000000000E+00  0.00000000000E+00  0.10053930402E+04  0.10053930402E+04  0.00000000000E+00 0. -1.
         21   -1    0    0  501  502  0.00000000000E+00 -0.00000000000E+00 -0.75225061436E+02  0.75225061436E+02  0.00000000000E+00 0. -1.
         24    2    1    2    0    0 -0.28576785858E+02 -0.30565087494E+02  0.85729856814E+03  0.86221385211E+03  0.81859847115E+02 0.  0.
         23    2    1    2    0    0  0.32459828661E+02  0.10754649447E+01  0.12541842502E+03  0.15802118261E+03  0.90477155784E+02 0.  0.
        -11    1    3    3    0    0 -0.24498288818E+02  0.17439425597E+02  0.13492483831E+03  0.13823534900E+03  0.00000000000E+00 0.  1.
         12    1    3    3    0    0 -0.40784970406E+01 -0.48004513091E+02  0.72237372983E+03  0.72397850310E+03  0.00000000000E+00 0. -1.
        -13    1    4    4    0    0 -0.32728792571E+01  0.35302302726E+02  0.91234339764E+02  0.97880892255E+02  0.00000000000E+00 0. -1.
         13    1    4    4    0    0  0.35732707918E+02 -0.34226837782E+02  0.34184085254E+02  0.60140290358E+02  0.00000000000E+00 0.  1.
          1    1    1    2  501    0 -0.38830428025E+01  0.29489622549E+02 -0.52549014379E+02  0.60383066929E+02  0.00000000000E+00 0. -1.
<scales pt_clust_5="13000.00000" pt_clust_6="13000.00000" pt_clust_7="13000.00000" pt_clust_8="13000.00000" pt_clust_9="29.74417"></scales>
<clustering>
<clus scale="   29.744">  2  9  1 -1</clus>
<clus scale="   81.860">  5  6 -1 -1</clus>
<clus scale="   90.477">  7  8 -1 -1</clus>
<clus scale="   90.884">  1  5  2 -1</clus>
<clus scale="   29.744">  2  5  1 -1</clus>
</clustering>
</event>
<event>
 9    2  0.1654290E-004  0.9609097E+02  0.7546771E-02  0.1290908E+00
         21   -1    0    0  501  502  0.00000000000E+00  0.00000000000E+00  0.30347694962E+02  0.30347694962E+02  0.00000000000E+00 0. -1.
          2   -1    0    0  502    0 -0.00000000000E+00 -0.00000000000E+00 -0.12402282735E+04  0.12402282735E+04  0.00000000000E+00 0. -1.
         24    2    1    2    0    0 -0.44774139589E+02  0.18915213902E+02 -0.10482764978E+04  0.10524502690E+04  0.80034017635E+02 0.  0.
         23    2    1    2    0    0  0.36586142260E+02  0.28281786596E+02 -0.12538946381E+03  0.15807489901E+03  0.84420085318E+02 0.  0.
        -13    1    3    3    0    0 -0.27693435395E+02  0.22326601490E+02 -0.15602441696E+03  0.16002819184E+03  0.00000000000E+00 0.  1.
         14    1    3    3    0    0 -0.17080704194E+02 -0.34113875884E+01 -0.89225208087E+03  0.89242207718E+03  0.00000000000E+00 0. -1.
        -11    1    4    4    0    0  0.31793719480E+02  0.57339938634E+02 -0.74189841973E+02  0.99009301648E+02  0.00000000000E+00 0. -1.
         11    1    4    4    0    0  0.47924227803E+01 -0.29058152038E+02 -0.51199621832E+02  0.59065597362E+02  0.00000000000E+00 0.  1.
          1    1    1    2  501    0  0.81879973286E+01 -0.47197000498E+02 -0.36214616945E+02  0.60050800467E+02  0.00000000000E+00 0. -1.
<scales pt_clust_5="13000.00000" pt_clust_6="13000.00000" pt_clust_7="13000.00000" pt_clust_8="13000.00000" pt_clust_9="47.90198"></scales>
<clustering>
<clus scale="   47.902">  1  9  2 -1</clus>
<clus scale="   80.034">  5  6 -1 -1</clus>
<clus scale="   84.420">  7  8 -1 -1</clus>
<clus scale="   92.261">  2  5  1 -1</clus>
<clus scale="   47.902">  1  5  2 -1</clus>
</clustering>
</event>
<event>
 9    2  0.1654290E-004  0.1149961E+03  0.7546771E-02  0.1255051E+00
         -3   -1    0    0    0  501 -0.00000000000E+00  0.00000000000E+00  0.33215843694E+03  0.33215843694E+03  0.00000000000E+00 0.  1.
         21   -1    0    0  501  502  0.00000000000E+00 -0.00000000000E+00 -0.18551513550E+03  0.18551513550E+03  0.00000000000E+00 0.  1.
         24    2    1    2    0    0 -0.29695264563E+02  0.60052981574E+02  0.16644644157E+02  0.10645532463E+03  0.81040253150E+02 0.  0.
         23    2    1    2    0    0 -0.54217620735E+01 -0.89104387086E+02 -0.10914073165E+03  0.16777454371E+03  0.90926403812E+02 0.  0.
        -11    1    3    3    0    0  0.19767166679E+02 -0.37468239750E+01  0.16031716140E+02  0.25725386116E+02  0.00000000000E+00 0.  1.
         12    1    3    3    0    0 -0.49462431242E+02  0.63799805549E+02  0.61292801669E+00  0.80729938519E+02  0.00000000000E+00 0. -1.
        -13    1    4    4    0    0 -0.26500068924E+02 -0.98108789130E+02 -0.73574840807E+02  0.12546252571E+03  0.00000000000E+00 0.  1.
         13    1    4    4    0    0  0.21078306850E+02  0.90044020443E+01 -0.35565890845E+02  0.42312018003E+02  0.00000000000E+00 0. -1.
         -4    1    1    2    0  502  0.35117026637E+02  0.29051405511E+02  0.23913938894E+03  0.24344370409E+03  0.00000000000E+00 0.  1.
<scales pt_clust_5="13000.00000" pt_clust_6="13000.00000" pt_clust_7="13000.00000" pt_clust_8="13000.00000" pt_clust_9="45.57622"></scales>
<clustering>
<clus scale="   45.576">  2  9  1 -1</clus>
<clus scale="   81.040">  5  6 -1 -1</clus>
<clus scale="   90.926">  7  8 -1 -1</clus>
<clus scale="  107.350">  1  5  2 -1</clus>
<clus scale="   45.576">  2  5  1 -1</clus>
</clustering>
</event>
<event>
 9    2  0.1654290E-004  0.1529763E+03  0.7546771E-02  0.1217738E+00
         21   -1    0    0  501  502  0.00000000000E+00  0.00000000000E+00  0.24649602541E+03  0.24649602541E+03  0.00000000000E+00 0.  1.
          2   -1    0    0  502    0 -0.00000000000E+00 -0.00000000000E+00 -0.12733161105E+04  0.12733161105E+04  0.00000000000E+00 0. -1.
         24    2    1    2    0    0 -0.53394971390E+02 -0.16706958073E+02 -0.82714251702E+03  0.83289873626E+03  0.80158692546E+02 0.  0.
         23    2    1    2    0    0  0.17491486493E+03  0.21111244457E+02 -0.40359412618E+03  0.44949300268E+03  0.90082440926E+02 0.  0.
        -13    1    3    3    0    0 -0.47010960073E+02  0.24894609165E+00 -0.19834340409E+03  0.20383865749E+03  0.00000000000E+00 0.  1.
         14    1    3    3    0    0 -0.63840113166E+01 -0.16955904165E+02 -0.62879911293E+03  0.62906007877E+03  0.00000000000E+00 0. -1.
        -11    1    4    4    0    0  0.14035539059E+03  0.70158413700E+01 -0.38045290640E+03  0.40557770117E+03  0.00000000000E+00 0.  1.
         11    1    4    4    0    0  0.34559474332E+02  0.14095403087E+02 -0.23141219778E+02  0.43915301514E+02  0.00000000000E+00 0. -1.
          1    1    1    2  501    0 -0.12151989354E+03 -0.44042863841E+01  0.20391655806E+03  0.23742039700E+03  0.00000000000E+00 0. -1.
<scales pt_clust_5="13000.00000" pt_clust_6="13000.00000" pt_clust_7="13000.00000" pt_clust_8="13000.00000" pt_clust_9="123.64025"></scales>
<clustering>
<clus scale="   80.159">  5  6 -1 -1</clus>
<clus scale="   90.082">  7  8 -1 -1</clus>
<clus scale="   97.753">  2  5  1 -1</clus>
<clus scale="  123.640">  1  9  2 -1</clus>
<clus scale="  123.640">  1  5  2 -1</clus>
</clustering>
</event>
<event>
 9    2  0.1654290E-004  0.1970674E+03  0.7546771E-02  0.1178081E+00
          2   -1    0    0  502    0 -0.00000000000E+00  0.00000000000E+00  0.11434445802E+03  0.11434445802E+03  0.00000000000E+00 0. -1.
         21   -1    0    0  501  502  0.00000000000E+00 -0.00000000000E+00 -0.10353910943E+04  0.10353910943E+04  0.00000000000E+00 0. -1.
         23    2    1    2    0    0 -0.10168269691E+01 -0.49053922384E+02 -0.29193616774E+03  0.31146749437E+03  0.96839830541E+02 0.  0.
         24    2    1    2    0    0 -0.68562018435E+02 -0.12227309134E+03  0.19795852365E+02  0.16352842322E+03  0.81842593990E+02 0.  0.
        -11    1    4    4    0    0 -0.20532584549E+02  0.89032230731E+01 -0.40015250524E+00  0.22383353890E+02  0.00000000000E+00 0.  1.
         12    1    4    4    0    0 -0.48029433887E+02 -0.13117631441E+03  0.20196004870E+02  0.14114506933E+03  0.00000000000E+00 0. -1.
        -13    1    3    3    0    0  0.19109163253E+02  0.24419009944E+02 -0.10845098283E+03  0.11279655954E+03  0.00000000000E+00 0.  1.
         13    1    3    3    0    0 -0.20125990222E+02 -0.73472932328E+02 -0.18348518491E+03  0.19867093484E+03  0.00000000000E+00 0. -1.
          1    1    1    2  501    0  0.69578845404E+02  0.17132701372E+03 -0.64890632091E+03  0.67473963473E+03  0.00000000000E+00 0. -1.
<scales pt_clust_5="13000.00000" pt_clust_6="13000.00000" pt_clust_7="13000.00000" pt_clust_8="13000.00000" pt_clust_9="179.26898"></scales>
<clustering>
<clus scale="   81.843">  5  6 -1 -1</clus>
<clus scale="   96.840">  7  8 -1 -1</clus>
<clus scale="  108.560">  1  7  2 -1</clus>
<clus scale="  179.269">  2  9  1 -1</clus>
<clus scale="  179.269">  2  5  1 -1</clus>
</clustering>
</event>
<event>
 9    2  0.1654290E-004  0.1114876E+03  0.7546771E-02  0.1261846E+00
         21   -1    0    0  501  502  0.00000000000E+00  0.00000000000E+00  0.15559436377E+03  0.15559436377E+03  0.00000000000E+00 0.  1.
          2   -1    0    0  502    0 -0.00000000000E+00 -0.00000000000E+00 -0.12869929529E+03  0.12869929529E+03  0.00000000000E+00 0. -1.
         23    2    1    2    0    0  0.25940830986E+02 -0.61154613288E+02 -0.63517755096E+02  0.12956424522E+03  0.91321273472E+02 0.  0.
         24    2    1    2    0    0 -0.40399753884E+02  0.44184035433E+02  0.60270150841E+02  0.11723752560E+03  0.80794660873E+02 0.  0.
        -11    1    4    4    0    0  0.94705240002E+00  0.57200507945E+02  0.34775755471E+02  0.66948847533E+02  0.00000000000E+00 0.  1.
         12    1    4    4    0    0 -0.41346806284E+02 -0.13016472512E+02  0.25494395369E+02  0.50288678067E+02  0.00000000000E+00 0. -1.
        -13    1    3    3    0    0 -0.39621024372E+01  0.22829827916E+02 -0.18743576292E+02  0.29803035929E+02  0.00000000000E+00 0.  1.
         13    1    3    3    0    0  0.29902933424E+02 -0.83984441204E+02 -0.44774178804E+02  0.99761209292E+02  0.00000000000E+00 0. -1.
          1    1    1    2  501    0  0.14458922897E+02  0.16970577855E+02  0.30142672737E+02  0.37491888240E+02  0.00000000000E+00 0. -1.
<scales pt_clust_5="13000.00000" pt_clust_6="13000.00000" pt_clust_7="13000.00000" pt_clust_8="13000.00000" pt_clust_9="22.29486"></scales>
<clustering>
<clus scale="   22.295">  1  9  2 -1</clus>
<clus scale="   80.795">  5  6 -1 -1</clus>
<clus scale="   91.321">  7  8 -1 -1</clus>
<clus scale="  103.042">  1  5  2 -1</clus>
<clus scale="   22.295">  1  5  2 -1</clus>
</clustering>
</event>
<event>
 9    2  0.1654290E-004  0.1279356E+03  0.7546771E-02  0.1231201E+00
          4   -1    0    0  502    0 -0.00000000000E+00  0.00000000000E+00  0.30199183538E+03  0.30199183538E+03  0.00000000000E+00 0. -1.
         21   -1    0    0  501  502  0.00000000000E+00 -0.00000000000E+00 -0.11044367823E+03  0.11044367823E+03  0.00000000000E+00 0.  1.
         24    2    1    2    0    0 -0.52689125250E+02  0.57796651974E+02  0.11346080461E+03  0.16419501010E+03  0.89275137979E+02 0.  0.
         23    2    1    2    0    0  0.83461209338E+02 -0.91328326856E+02 -0.43897449796E+01  0.15403983474E+03  0.91664410086E+02 0.  0.
        -13    1    3    3    0    0 -0.71729623473E+02  0.50809043364E+02  0.58441023025E+02  0.10555591382E+03  0.00000000000E+00 0.  1.
         14    1    3    3    0    0  0.19040498224E+02  0.69876086092E+01  0.55019781585E+02  0.58639096278E+02  0.00000000000E+00 0. -1.
        -11    1    4    4    0    0  0.54116355011E+02 -0.74640270555E+01  0.25513125885E+02  0.60292712428E+02  0.00000000000E+00 0.  1.
         11    1    4    4    0    0  0.29344854327E+02 -0.83864299801E+02 -0.29902870864E+02  0.93747122316E+02  0.00000000000E+00 0. -1.
          3    1    1    2  501    0 -0.30772084088E+02  0.33531674883E+02  0.82477097520E+02  0.94200668760E+02  0.00000000000E+00 0. -1.
<scales pt_clust_5="13000.00000" pt_clust_6="13000.00000" pt_clust_7="13000.00000" pt_clust_8="13000.00000" pt_clust_9="45.51150"></scales>
<clustering>
<clus scale="   45.511">  2  9  1 -1</clus>
<clus scale="   89.275">  5  6 -1 -1</clus>
<clus scale="   91.664">  7  8 -1 -1</clus>
<clus scale="  126.235">  1  5  2 -1</clus>
<clus scale="   45.511">  2  5  1 -1</clus>
</clustering>
</event>
<event>
 9    2  0.1654290E-004  0.1000631E+03  0.7546771E-02  0.1285491E+00
         -1   -1    0    0    0  501 -0.00000000000E+00  0.00000000000E+00  0.92253895761E+02  0.92253895761E+02  0.00000000000E+00 0.  1.
         21   -1    0    0  501  502  0.00000000000E+00 -0.00000000000E+00 -0.38753399600E+03  0.38753399600E+03  0.00000000000E+00 0. -1.
         23    2    1    2    0    0 -0.74224847944E+01  0.49128682339E+02  0.40194189111E+02  0.11143886680E+03  0.91292537953E+02 0.  0.
         24    2    1    2    0    0 -0.24543457821E+02 -0.10467445363E+02 -0.11943942248E+03  0.14656630148E+03  0.80647110011E+02 0.  0.
        -13    1    4    4    0    0  0.15825774586E+02 -0.31144996391E+02 -0.76538831817E+02  0.84134765213E+02  0.00000000000E+00 0.  1.
         14    1    4    4    0    0 -0.40369232407E+02  0.20677551028E+02 -0.42900590663E+02  0.62431536268E+02  0.00000000000E+00 0. -1.
        -11    1    3    3    0    0  0.39991512006E+02  0.20778326271E+02  0.32719216753E+02  0.55692073225E+02  0.00000000000E+00 0.  1.
         11    1    3    3    0    0 -0.47413996801E+02  0.28350356069E+02  0.74749723581E+01  0.55746793572E+02  0.00000000000E+00 0. -1.
         -2    1    1    2    0  502  0.31965942616E+02 -0.38661236976E+02 -0.21603486687E+03  0.22178272348E+03  0.00000000000E+00 0.  1.
<scales pt_clust_5="13000.00000" pt_clust_6="13000.00000" pt_clust_7="13000.00000" pt_clust_8="13000.00000" pt_clust_9="50.16486"></scales>
<clustering>
<clus scale="   50.165">  2  9  1 -1</clus>
<clus scale="   80.647">  5  6 -1 -1</clus>
<clus scale="   90.456">  2  5  1 -1</clus>
<clus scale="   91.293">  7  8 -1 -1</clus>
<clus scale="   50.165">  2  5  1 -1</clus>
</clustering>
</event>
<event>
 9    2  0.1654290E-004  0.1079592E+03  0.7546771E-02  0.1269835E+00
         21   -1    0    0  501  502  0.00000000000E+00  0.00000000000E+00  0.49579107694E+03  0.49579107694E+03  0.00000000000E+00 0. -1.
          2   -1    0    0  502    0 -0.00000000000E+00 -0.00000000000E+00 -0.20816135987E+03  0.20816135987E+03  0.00000000000E+00 0. -1.
         23    2    1    2    0    0 -0.10381718520E+02  0.30616539108E+02 -0.10185347344E+03  0.14276764408E+03  0.94674799162E+02 0.  0.
         24    2    1    2    0    0  0.59546807511E+02 -0.86770946798E+02 -0.28582145053E+02  0.13650944818E+03  0.82114986047E+02 0.  0.
        -13    1    4    4    0    0  0.25892065949E+02  0.25940934538E+01 -0.31642840946E+02  0.40968253356E+02  0.00000000000E+00 0.  1.
         14    1    4    4    0    0  0.33654741562E+02 -0.89365040252E+02  0.30606958928E+01  0.95541194823E+02  0.00000000000E+00 0. -1.
        -13    1    3    3    0    0  0.32586911898E+02  0.21141679571E+02 -0.88716095204E+02  0.96847421186E+02  0.00000000000E+00 0.  1.
         13    1    3    3    0    0 -0.42968630418E+02  0.94748595375E+01 -0.13137378239E+02  0.45920222890E+02  0.00000000000E+00 0. -1.
          1    1    1    2  501    0 -0.49165088991E+02  0.56154407690E+02  0.41806533556E+03  0.42467534456E+03  0.00000000000E+00 0. -1.
<scales pt_clust_5="13000.00000" pt_clust_6="13000.00000" pt_clust_7="13000.00000" pt_clust_8="13000.00000" pt_clust_9="74.63594"></scales>
<clustering>
<clus scale="   74.636">  1  9  2 -1</clus>
<clus scale="   82.115">  5  6 -1 -1</clus>
<clus scale="   94.675">  7  8 -1 -1</clus>
<clus scale="   97.133">  1  5  2 -1</clus>
<clus scale="   74.636">  1  5  2 -1</clus>
</clustering>
</event>
<event>
 9    2  0.1654290E-004  0.1370785E+03  0.7546771E-02  0.1220406E+00
         -1   -1    0    0    0  501 -0.00000000000E+00  0.00000000000E+00  0.19635752065E+03  0.19635752065E+03  0.00000000000E+00 0.  1.
         21   -1    0    0  501  502  0.00000000000E+00 -0.00000000000E+00 -0.28018660603E+03  0.28018660603E+03  0.00000000000E+00 0.  1.
         23    2    1    2    0    0  0.64310014079E+01 -0.96830946365E+02  0.12694610025E+03  0.18403570420E+03  0.91303001589E+02 0.  0.
         24    2    1    2    0    0  0.27406711037E+01  0.13038530037E+03 -0.11457233984E+03  0.19020983114E+03  0.77750376058E+02 0.  0.
        -11    1    4    4    0    0  0.30943674767E+02  0.17778794949E+02 -0.29230761880E+02  0.46130618877E+02  0.00000000000E+00 0.  1.
         12    1    4    4    0    0 -0.28203003664E+02  0.11260650542E+03 -0.85341577956E+02  0.14407921227E+03  0.00000000000E+00 0. -1.
        -11    1    3    3    0    0 -0.28666383341E+02 -0.28473145473E+02  0.61485350533E+01  0.40869132976E+02  0.00000000000E+00 0. -1.
         11    1    3    3    0    0  0.35097384749E+02 -0.68357800893E+02  0.12079756519E+03  0.14316657122E+03  0.00000000000E+00 0.  1.
         -2    1    1    2    0  502 -0.91716725115E+01 -0.33554354005E+02 -0.96202845792E+02  0.10229859133E+03  0.00000000000E+00 0.  1.
<scales pt_clust_5="13000.00000" pt_clust_6="13000.00000" pt_clust_7="13000.00000" pt_clust_8="13000.00000" pt_clust_9="34.78526"></scales>
<clustering>
<clus scale="   34.785">  2  9  1 -1</clus>
<clus scale="   77.750">  5  6 -1 -1</clus>
<clus scale="   91.303">  7  8 -1 -1</clus>
<clus scale="  128.450">  2  5  1 -1</clus>
<clus scale="   34.785">  2  5  1 -1</clus>
</clustering>
</event>
<event>
 9    2  0.1654290E-004  0.1101050E+03  0.7546771E-02  0.1264931E+00
          2   -1    0    0  502    0 -0.00000000000E+00  0.00000000000E+00  0.61608082441E+03  0.61608082441E+03  0.00000000000E+00 0. -1.
         21   -1    0    0  501  502  0.00000000000E+00 -0.00000000000E+00 -0.47362181219E+02  0.47362181219E+02  0.00000000000E+00 0.  1.
         23    2    1    2    0    0 -0.59868151890E+02 -0.55364502064E+02  0.37046118612E+03  0.39044191829E+03  0.92487715076E+02 0.  0.
         24    2    1    2    0    0 -0.27825224974E+02  0.35741315562E+02  0.69560443133E+02  0.11603574342E+03  0.81079921800E+02 0.  0.
        -11    1    4    4    0    0 -0.24096878632E+02 -0.12080468932E+02 -0.49641706003E+01  0.27408762817E+02  0.00000000000E+00 0.  1.
         12    1    4    4    0    0 -0.37283463418E+01  0.47821784493E+02  0.74524613734E+02  0.88626980602E+02  0.00000000000E+00 0. -1.
        -13    1    3    3    0    0  0.10362821588E+02 -0.32010135450E+02  0.42358527501E+02  0.54095117107E+02  0.00000000000E+00 0.  1.
         13    1    3    3    0    0 -0.70230973478E+02 -0.23354366614E+02  0.32810265862E+03  0.33634680119E+03  0.00000000000E+00 0. -1.
          1    1    1    2  501    0  0.87693376864E+02  0.19623186502E+02  0.12869701394E+03  0.15696534392E+03  0.00000000000E+00 0. -1.
<scales pt_clust_5="13000.00000" pt_clust_6="13000.00000" pt_clust_7="13000.00000" pt_clust_8="13000.00000" pt_clust_9="89.86210"></scales>
<clustering>
<clus scale="   81.080">  5  6 -1 -1</clus>
<clus scale="   89.862">  2  9  1 -1</clus>
<clus scale="   92.488">  7  8 -1 -1</clus>
<clus scale="  100.713">  2  5  1 -1</clus>
<clus scale="   89.862">  2  5  1 -1</clus>
</clustering>
</event>
<event>
 9    2  0.1654290E-004  0.1021746E+03  0.7546771E-02  0.1279962E+00
         21   -1    0    0  501  502  0.00000000000E+00  0.00000000000E+00  0.29486761515E+03  0.29486761515E+03  0.00000000000E+00 0. -1.
          4   -1    0    0  502    0 -0.00000000000E+00 -0.00000000000E+00 -0.11019259468E+03  0.11019259468E+03  0.00000000000E+00 0. -1.
         24    2    1    2    0    0 -0.44903026695E+02 -0.18114801748E+02 -0.53428472216E+02  0.10890279877E+03  0.81613663610E+02 0.  0.
         23    2    1    2    0    0  0.11201100197E+02  0.67759295464E+02  0.13130328316E+03  0.17365565450E+03  0.90548039207E+02 0.  0.
        -13    1    3    3    0    0 -0.17617242985E+02 -0.35303869257E+02  0.73167340860E+01  0.40128107763E+02  0.00000000000E+00 0.  1.
         14    1    3    3    0    0 -0.27285783709E+02  0.17189067509E+02 -0.60745206302E+02  0.68774691007E+02  0.00000000000E+00 0. -1.
        -13    1    4    4    0    0  0.42052486460E+01 -0.22434016102E+02  0.21163700775E+02  0.31126699554E+02  0.00000000000E+00 0.  1.
         13    1    4    4    0    0  0.69958515506E+01  0.90193311566E+02  0.11013958238E+03  0.14252895494E+03  0.00000000000E+00 0. -1.
          3    1    1    2  501    0  0.33701926498E+02 -0.49644493716E+02  0.10680020953E+03  0.12250175657E+03  0.00000000000E+00 0. -1.
<scales pt_clust_5="13000.00000" pt_clust_6="13000.00000" pt_clust_7="13000.00000" pt_clust_8="13000.00000" pt_clust_9="60.00330"></scales>
<clustering>
<clus scale="   60.003">  1  9  2 -1</clus>
<clus scale="   81.614">  5  6 -1 -1</clus>
<clus scale="   90.548">  7  8 -1 -1</clus>
<clus scale="   94.348">  2  5  1 -1</clus>
<clus scale="   60.003">  1  5  2 -1</clus>
</clustering>
</event>
<event>
 9    2  0.1654290E-004  0.1194445E+03  0.7546771E-02  0.1248593E+00
         21   -1    0    0  501  502  0.00000000000E+00  0.00000000000E+00  0.38751454226E+02  0.38751454226E+02  0.00000000000E+00 0. -1.
          2   -1    0    0  502    0 -0.00000000000E+00 -0.00000000000E+00 -0.47278199841E+03  0.47278199841E+03  0.00000000000E+00 0. -1.
         23    2    1    2    0    0  0.74824769496E+02 -0.46485124661E+02 -0.27497198280E+03  0.30355149724E+03  0.93671272037E+02 0.  0.
         24    2    1    2    0    0 -0.50500755894E+02  0.21950713012E+02 -0.98383736235E+02  0.13816054465E+03  0.79854971002E+02 0.  0.
        -13    1    4    4    0    0  0.16095739582E+02 -0.13918223835E+02 -0.19332606255E+02  0.28749599164E+02  0.00000000000E+00 0.  1.
         14    1    4    4    0    0 -0.66596495477E+02  0.35868936848E+02 -0.79051129979E+02  0.10941094548E+03  0.00000000000E+00 0. -1.
        -11    1    3    3    0    0  0.22692618102E+02 -0.22906783798E+01 -0.28582185413E+01  0.22986333701E+02  0.00000000000E+00 0.  1.
         11    1    3    3    0    0  0.52132151393E+02 -0.44194446281E+02 -0.27211376426E+03  0.28056516354E+03  0.00000000000E+00 0. -1.
          1    1    1    2  501    0 -0.24324013601E+02  0.24534411649E+02 -0.60674825141E+02  0.69821410746E+02  0.00000000000E+00 0. -1.
<scales pt_clust_5="13000.00000" pt_clust_6="13000.00000" pt_clust_7="13000.00000" pt_clust_8="13000.00000" pt_clust_9="34.54846"></scales>
<clustering>
<clus scale="   34.548">  1  9  2 -1</clus>
<clus scale="   79.855">  5  6 -1 -1</clus>
<clus scale="   93.671">  7  8 -1 -1</clus>
<clus scale="  108.947">  1  5  2 -1</clus>
<clus scale="   34.548">  1  5  2 -1</clus>
</clustering>
</event>
<event>
 9    2  0.1654290E-004  0.2375553E+03  0.7546771E-02  0.1163965E+00
          4   -1    0    0  502    0 -0.00000000000E+00  0.00000000000E+00  0.60613167495E+03  0.60613167495E+03  0.00000000000E+00 0. -1.
         21   -1    0    0  501  502  0.00000000000E+00 -0.00000000000E+00 -0.47386106042E+03  0.47386106042E+03  0.00000000000E+00 0. -1.
         24    2    1    2    0    0  0.23170760559E+02  0.11934842013E+02  0.25927559358E+03  0.27302372164E+03  0.81478798184E+02 0.  0.
         23    2    1    2    0    0  0.15844132526E+03 -0.13757655396E+03  0.26942382378E+03  0.35317987195E+03  0.90088086774E+02 0.  0.
        -13    1    3    3    0    0 -0.19749410633E+02  0.32268073709E+02  0.10529313826E+03  0.11188347852E+03  0.00000000000E+00 0.  1.
         14    1    3    3    0    0  0.42920171192E+02 -0.20333231696E+02  0.15398245532E+03  0.16114024312E+03  0.00000000000E+00 0. -1.
        -13    1    4    4    0    0  0.10317514058E+03 -0.47935657119E+02  0.18929858782E+03  0.22085491212E+03  0.00000000000E+00 0. -1.
         13    1    4    4    0    0  0.55266184685E+02 -0.89640896841E+02  0.80125235960E+02  0.13232495983E+03  0.00000000000E+00 0.  1.
          3    1    1    2  501    0 -0.18161208582E+03  0.12564171195E+03 -0.39642880282E+03  0.45378914179E+03  0.00000000000E+00 0. -1.
<scales pt_clust_5="13000.00000" pt_clust_6="13000.00000" pt_clust_7="13000.00000" pt_clust_8="13000.00000" pt_clust_9="219.81047"></scales>
<clustering>
<clus scale="   81.479">  5  6 -1 -1</clus>
<clus scale="   85.546">  1  5  2 -1</clus>
<clus scale="   90.088">  7  8 -1 -1</clus>
<clus scale="  219.810">  2  9  1 -1</clus>
<clus scale="  219.810">  2  5  1 -1</clus>
</clustering>
</event>
<event>
 9    2  0.1749648E-004  0.1835682E+03  0.7546771E-02  0.1165456E+00
          2   -1    0    0  502    0 -0.00000000000E+00  0.00000000000E+00  0.10422808080E+04  0.10422808080E+04  0.00000000000E+00 0. -1.
         21   -1    0    0  501  502  0.00000000000E+00 -0.00000000000E+00 -0.99380586889E+02  0.99380586889E+02  0.00000000000E+00 0. -1.
         24    2    1    2    0    0  0.28403491288E+02 -0.17285486063E+03  0.90124570692E+03  0.92164511488E+03  0.80624638892E+02 0.  0.
         23    2    1    2    0    0 -0.77777968021E+01  0.91427137672E+02  0.44245941273E+02  0.13597695089E+03  0.90070040687E+02 0.  0.
        -11    1    3    3    0    0 -0.23620628784E+02 -0.30662755456E+02  0.12838337676E+03  0.13409112612E+03  0.00000000000E+00 0.  1.
         12    1    3    3    0    0  0.52024120072E+02 -0.14219210518E+03  0.77286233016E+03  0.78755398876E+03  0.00000000000E+00 0. -1.
        -13    1    4    4    0    0  0.30050920808E+02  0.25102723361E+02 -0.12212500368E+02  0.41016456780E+02  0.00000000000E+00 0.  1.
         13    1    4    4    0    0 -0.37828717611E+02  0.66324414311E+02  0.56458441641E+02  0.94960494114E+02  0.00000000000E+00 0. -1.
          1    1    1    2  501    0 -0.20625694485E+02  0.81427722960E+02 -0.25914270979E+01  0.84039329090E+02  0.00000000000E+00 0. -1.
<scales pt_clust_5="13000.00000" pt_clust_6="13000.00000" pt_clust_7="13000.00000" pt_clust_8="13000.00000" pt_clust_9="83.99937"></scales>
<clustering>
<clus scale="   80.625">  5  6 -1 -1</clus>
<clus scale="   83.999">  2  9  1 -1</clus>
<clus scale="   90.070">  7  8 -1 -1</clus>
<clus scale="  179.123">  1  5  2 -1</clus>
<clus scale="   83.999">  2  5  1 -1</clus>
</clustering>
</event>
<event>
 9    2  0.1654290E-004  0.1196290E+03  0.7546771E-02  0.1248898E+00
          2   -1    0    0  502    0 -0.00000000000E+00  0.00000000000E+00  0.58543119189E+03  0.58543119189E+03  0.00000000000E+00 0. -1.
         21   -1    0    0  501  502  0.00000000000E+00 -0.00000000000E+00 -0.70464843944E+02  0.70464843944E+02  0.00000000000E+00 0.  1.
         23    2    1    2    0    0 -0.71490464317E+02 -0.19616981782E+02  0.49588378730E+03  0.50974056160E+03  0.91864014532E+02 0.  0.
         24    2    1    2    0    0  0.89615106794E+02  0.32870100588E+02  0.20747410743E+02  0.12364060029E+03  0.75797309376E+02 0.  0.
        -13    1    4    4    0    0  0.84631716562E+02  0.15441106516E+02  0.41977817428E+02  0.95724042825E+02  0.00000000000E+00 0.  1.
         14    1    4    4    0    0  0.49833902321E+01  0.17428994072E+02 -0.21230406685E+02  0.27916557463E+02  0.00000000000E+00 0. -1.
        -11    1    3    3    0    0  0.20457687077E+02  0.78463842663E+01  0.10336258576E+03  0.10565939069E+03  0.00000000000E+00 0.  1.
         11    1    3    3    0    0 -0.91948151394E+02 -0.27463366048E+02  0.39252120154E+03  0.40408117091E+03  0.00000000000E+00 0. -1.
          1    1    1    2  501    0 -0.18124642477E+02 -0.13253118806E+02 -0.16648501010E+01  0.22514873948E+02  0.00000000000E+00 0. -1.
<scales pt_clust_5="13000.00000" pt_clust_6="13000.00000" pt_clust_7="13000.00000" pt_clust_8="13000.00000" pt_clust_9="22.45324"></scales>
<clustering>
<clus scale="   22.453">  2  9  1 -1</clus>
<clus scale="   75.797">  5  6 -1 -1</clus>
<clus scale="   91.864">  7  8 -1 -1</clus>
<clus scale="  107.784">  2  5  1 -1</clus>
<clus scale="   22.453">  2  5  1 -1</clus>
</clustering>
</event>
<event>
 9    2  0.1654290E-004  0.1182725E+03  0.7546771E-02  0.1249535E+00
         -3   -1    0    0    0  501 -0.00000000000E+00  0.00000000000E+00  0.54184416741E+03  0.54184416741E+03  0.00000000000E+00 0.  1.
         21   -1    0    0  501  502  0.00000000000E+00 -0.00000000000E+00 -0.40995632444E+02  0.40995632444E+02  0.00000000000E+00 0.  1.
         23    2    1    2    0    0  0.61262972403E+02 -0.50184936121E+02  0.34276609637E+03  0.36362445685E+03  0.91991680066E+02 0.  0.
         24    2    1    2    0    0 -0.29117347393E+02  0.59398913761E+02  0.72714387988E+02  0.12753141499E+03  0.81245484262E+02 0.  0.
        -11    1    4    4    0    0  0.23247240589E+02  0.14744665924E+02  0.15845518674E+00  0.27529338464E+02  0.00000000000E+00 0.  1.
         12    1    4    4    0    0 -0.52364587981E+02  0.44654247837E+02  0.72555932802E+02  0.10000207652E+03  0.00000000000E+00 0. -1.
        -13    1    3    3    0    0  0.53743244593E+02 -0.76769387839E+02  0.26049455472E+03  0.27683801814E+03  0.00000000000E+00 0.  1.
         13    1    3    3    0    0  0.75197278107E+01  0.26584451718E+02  0.82271541651E+02  0.86786438717E+02  0.00000000000E+00 0. -1.
         -4    1    1    2    0  502 -0.32145625011E+02 -0.92139776402E+01  0.85368050615E+02  0.91683928019E+02  0.00000000000E+00 0.  1.
<scales pt_clust_5="13000.00000" pt_clust_6="13000.00000" pt_clust_7="13000.00000" pt_clust_8="13000.00000" pt_clust_9="33.44009"></scales>
<clustering>
<clus scale="   33.440">  2  9  1 -1</clus>
<clus scale="   81.245">  5  6 -1 -1</clus>
<clus scale="   91.992">  7  8 -1 -1</clus>
<clus scale="  110.122">  2  5  1 -1</clus>
<clus scale="   33.440">  2  5  1 -1</clus>
</clustering>
</event>
<event>
 9    2  0.1654290E-004  0.1500806E+03  0.7546771E-02  0.1215253E+00
          2   -1    0    0  502    0 -0.00000000000E+00  0.00000000000E+00  0.62542088898E+03  0.62542088898E+03  0.00000000000E+00 0. -1.
         21   -1    0    0  501  502  0.00000000000E+00 -0.00000000000E+00 -0.89169011045E+02  0.89169011045E+02  0.00000000000E+00 0. -1.
         24    2    1    2    0    0  0.45793481192E+02  0.57132100880E+02  0.25249031703E+02  0.11198434593E+03  0.80881767177E+02 0.  0.
         23    2    1    2    0    0  0.78623329054E+02 -0.58368858371E+02  0.43702932426E+03  0.45785351026E+03  0.95113905895E+02 0.  0.
        -11    1    3    3    0    0  0.30642334386E+02 -0.15268823529E+02  0.13960977545E+01  0.34264248387E+02  0.00000000000E+00 0.  1.
         12    1    3    3    0    0  0.15151146806E+02  0.72400924409E+02  0.23852933949E+02  0.77720097547E+02  0.00000000000E+00 0. -1.
        -13    1    4    4    0    0  0.44697261663E+02 -0.67231322665E+02  0.39477170348E+03  0.40294241998E+03  0.00000000000E+00 0. -1.
         13    1    4    4    0    0  0.33926067391E+02  0.88624642932E+01  0.42257620772E+02  0.54911090276E+02  0.00000000000E+00 0.  1.
          1    1    1    2  501    0 -0.12441681025E+03  0.12367574912E+01  0.73973521977E+02  0.14475204384E+03  0.00000000000E+00 0. -1.
<scales pt_clust_5="13000.00000" pt_clust_6="13000.00000" pt_clust_7="13000.00000" pt_clust_8="13000.00000" pt_clust_9="116.09283"></scales>
<clustering>
<clus scale="   80.882">  5  6 -1 -1</clus>
<clus scale="   95.114">  7  8 -1 -1</clus>
<clus scale="  109.101">  1  5  2 -1</clus>
<clus scale="  116.093">  2  9  1 -1</clus>
<clus scale="  116.093">  2  5  1 -1</clus>
</clustering>
</event>
<event>
 9    2  0.1654290E-004  0.9723802E+02  0.7546771E-02  0.1289789E+00
          2   -1    0    0  502    0 -0.00000000000E+00  0.00000000000E+00  0.45510485701E+03  0.45510485701E+03  0.00000000000E+00 0. -1.
         21   -1    0    0  501  502  0.00000000000E+00 -0.00000000000E+00 -0.33862343751E+03  0.33862343751E+03  0.00000000000E+00 0. -1.
         24    2    1    2    0    0  0.10456809089E+02  0.36533420872E+02  0.37672257915E+03  0.38714825027E+03  0.80745466443E+02 0.  0.
         23    2    1    2    0    0 -0.60659404322E+02 -0.67595966485E+02  0.13041698504E+02  0.12699337992E+03  0.87797805365E+02 0.  0.
        -13    1    3    3    0    0 -0.34359780661E+02  0.17347069346E+02  0.12671582050E+03  0.13243267915E+03  0.00000000000E+00 0.  1.
         14    1    3    3    0    0  0.44816589750E+02  0.19186351526E+02  0.25000675865E+03  0.25471557112E+03  0.00000000000E+00 0. -1.
        -11    1    4    4    0    0 -0.78621393739E+02 -0.45902810073E+02  0.27808097966E+02  0.95192866532E+02  0.00000000000E+00 0.  1.
         11    1    4    4    0    0  0.17961989417E+02 -0.21693156412E+02 -0.14766399463E+02  0.31800513393E+02  0.00000000000E+00 0. -1.
          1    1    1    2  501    0  0.50202595233E+02  0.31062545613E+02 -0.27328285815E+03  0.27958666432E+03  0.00000000000E+00 0. -1.
<scales pt_clust_5="13000.00000" pt_clust_6="13000.00000" pt_clust_7="13000.00000" pt_clust_8="13000.00000" pt_clust_9="59.03543"></scales>
<clustering>
<clus scale="   59.035">  2  9  1 -1</clus>
<clus scale="   80.745">  5  6 -1 -1</clus>
<clus scale="   87.798">  7  8 -1 -1</clus>
<clus scale="   90.921">  1  5  2 -1</clus>
<clus scale="   59.035">  2  5  1 -1</clus>
</clustering>
</event>
<event>
 9    2  0.1654290E-004  0.2088352E+03  0.7546771E-02  0.1164632E+00
         -1   -1    0    0    0  501 -0.00000000000E+00  0.00000000000E+00  0.60072086341E+03  0.60072086341E+03  0.00000000000E+00 0.  1.
         21   -1    0    0  501  502  0.00000000000E+00 -0.00000000000E+00 -0.12186066274E+03  0.12186066274E+03  0.00000000000E+00 0.  1.
         24    2    1    2    0    0  0.65526205215E+02 -0.77855241497E+02  0.93507087151E+02  0.15529664059E+03  0.70840306548E+02 0.  0.
         23    2    1    2    0    0 -0.64619850962E+02  0.21903368635E+03  0.13558400295E+03  0.28037586972E+03  0.89867266418E+02 0.  0.
        -11    1    3    3    0    0 -0.73249718279E+01 -0.39505962253E+02  0.42307312058E+02  0.58346250260E+02  0.00000000000E+00 0.  1.
         12    1    3    3    0    0  0.72851177043E+02 -0.38349279245E+02  0.51199775093E+02  0.96950390328E+02  0.00000000000E+00 0. -1.
        -13    1    4    4    0    0 -0.16907441912E+02  0.45886262495E+02  0.77457859559E+02  0.91603115041E+02  0.00000000000E+00 0. -1.
         13    1    4    4    0    0 -0.47712409050E+02  0.17314742386E+03  0.58126143388E+02  0.18877275468E+03  0.00000000000E+00 0.  1.
         -2    1    1    2    0  502 -0.90635425343E+00 -0.14117844485E+03  0.24976911057E+03  0.28690901583E+03  0.00000000000E+00 0.  1.
<scales pt_clust_5="13000.00000" pt_clust_6="13000.00000" pt_clust_7="13000.00000" pt_clust_8="13000.00000" pt_clust_9="188.51013"></scales>
<clustering>
<clus scale="   70.840">  5  6 -1 -1</clus>
<clus scale="   89.867">  7  8 -1 -1</clus>
<clus scale="  123.990">  1  5  2 -1</clus>
<clus scale="  188.510">  2  9  1 -1</clus>
<clus scale="  188.510">  2  5  1 -1</clus>
</clustering>
</event>
<event>
 9    2  0.1654290E-004  0.1880174E+03  0.7546771E-02  0.1179089E+00
          2   -1    0    0  502    0 -0.00000000000E+00  0.00000000000E+00  0.26455872549E+03  0.26455872549E+03  0.00000000000E+00 0. -1.
         21   -1    0    0  501  502  0.00000000000E+00 -0.00000000000E+00 -0.27662932171E+03  0.27662932171E+03  0.00000000000E+00 0. -1.
         24    2    1    2    0    0 -0.76009499851E+02  0.53371925506E+02 -0.26023511987E+02  0.12493382003E+03  0.79405476579E+02 0.  0.
         23    2    1    2    0    0  0.19969794952E+03 -0.12510618499E+03  0.70277175964E+02  0.26257580041E+03  0.92067045890E+02 0.  0.
        -13    1    3    3    0    0 -0.47409440480E+02 -0.94701531954E+01  0.61970684777E+01  0.48741589078E+02  0.00000000000E+00 0.  1.
         14    1    3    3    0    0 -0.28600059371E+02  0.62842078701E+02 -0.32220580464E+02  0.76192230949E+02  0.00000000000E+00 0. -1.
        -13    1    4    4    0    0  0.11436064524E+03 -0.22302562367E+02  0.13105432310E+02  0.11724979243E+03  0.00000000000E+00 0.  1.
         13    1    4    4    0    0  0.85337304271E+02 -0.10280362262E+03  0.57171743654E+02  0.14532600798E+03  0.00000000000E+00 0. -1.
          1    1    1    2  501    0 -0.12368844966E+03  0.71734259482E+02 -0.56324260200E+02  0.15367842676E+03  0.00000000000E+00 0. -1.
<scales pt_clust_5="13000.00000" pt_clust_6="13000.00000" pt_clust_7="13000.00000" pt_clust_8="13000.00000" pt_clust_9="163.93355"></scales>
<clustering>
<clus scale="   79.405">  5  6 -1 -1</clus>
<clus scale="   92.067">  7  8 -1 -1</clus>
<clus scale="  122.193">  1  5  2 -1</clus>
<clus scale="  163.934">  2  9  1 -1</clus>
<clus scale="  163.934">  2  5  1 -1</clus>
</clustering>
</event>
<event>
 9    2  0.1654290E-004  0.1377009E+03  0.7546771E-02  0.1219140E+00
         -1   -1    0    0    0  501 -0.00000000000E+00  0.00000000000E+00  0.12514382768E+03  0.12514382768E+03  0.00000000000E+00 0.  1.
         21   -1    0    0  501  502  0.00000000000E+00 -0.00000000000E+00 -0.32270312294E+03  0.32270312294E+03  0.00000000000E+00 0.  1.
         23    2    1    2    0    0 -0.10302456077E+03  0.29533688686E+02  0.40384739625E+02  0.14762261303E+03  0.93140806282E+02 0.  0.
         24    2    1    2    0    0  0.60769111203E+02 -0.64076136470E+02 -0.20141339268E+03  0.23454944485E+03  0.81531902862E+02 0.  0.
        -11    1    4    4    0    0  0.26893477457E+02 -0.75272371866E+02 -0.16619102979E+03  0.18441433642E+03  0.00000000000E+00 0.  1.
         12    1    4    4    0    0  0.33875633746E+02  0.11196235396E+02 -0.35222362894E+02  0.50135108423E+02  0.00000000000E+00 0. -1.
        -13    1    3    3    0    0 -0.71742025794E+02  0.63503817063E+02  0.27509880806E+02  0.99681726453E+02  0.00000000000E+00 0.  1.
         13    1    3    3    0    0 -0.31282534975E+02 -0.33970128377E+02  0.12874858819E+02  0.47940886580E+02  0.00000000000E+00 0. -1.
         -2    1    1    2    0  502  0.42255449566E+02  0.34542447784E+02 -0.36530642197E+02  0.65674892739E+02  0.00000000000E+00 0.  1.
<scales pt_clust_5="13000.00000" pt_clust_6="13000.00000" pt_clust_7="13000.00000" pt_clust_8="13000.00000" pt_clust_9="54.57750"></scales>
<clustering>
<clus scale="   54.578">  2  9  1 -1</clus>
<clus scale="   81.532">  5  6 -1 -1</clus>
<clus scale="   93.141">  7  8 -1 -1</clus>
<clus scale="  130.130">  2  5  1 -1</clus>
<clus scale="   54.578">  2  5  1 -1</clus>
</clustering>
</event>
<event>
 9    2  0.1654290E-004  0.1233542E+03  0.7546771E-02  0.1241298E+00
         -3   -1    0    0    0  501 -0.00000000000E+00  0.00000000000E+00  0.92323361395E+02  0.92323361395E+02  0.00000000000E+00 0.  1.
         21   -1    0    0  501  502  0.00000000000E+00 -0.00000000000E+00 -0.42409264150E+03  0.42409264150E+03  0.00000000000E+00 0. -1.
         24    2    1    2    0    0 -0.46434845464E+02  0.74433461844E+02 -0.77592879770E+02  0.14169609751E+03  0.79753331864E+02 0.  0.
         23    2    1    2    0    0  0.55136194668E+02 -0.43282936815E+02 -0.29835465609E+03  0.31996785548E+03  0.91926683563E+02 0.  0.
        -11    1    3    3    0    0 -0.47243739687E+02  0.29000635108E+02 -0.44831069866E+01  0.55615699443E+02  0.00000000000E+00 0.  1.
         12    1    3    3    0    0  0.80889422233E+00  0.45432826736E+02 -0.73109772784E+02  0.86080398068E+02  0.00000000000E+00 0. -1.
        -13    1    4    4    0    0  0.77447816302E+02 -0.14136238818E+02 -0.21137934140E+03  0.22556423358E+03  0.00000000000E+00 0.  1.
         13    1    4    4    0    0 -0.22311621634E+02 -0.29146697997E+02 -0.86975314685E+02  0.94403621904E+02  0.00000000000E+00 0. -1.
         -4    1    1    2    0  502 -0.87013492040E+01 -0.31150525029E+02  0.44178255751E+02  0.54752049905E+02  0.00000000000E+00 0.  1.
<scales pt_clust_5="13000.00000" pt_clust_6="13000.00000" pt_clust_7="13000.00000" pt_clust_8="13000.00000" pt_clust_9="32.34300"></scales>
<clustering>
<clus scale="   32.343">  2  9  1 -1</clus>
<clus scale="   79.753">  5  6 -1 -1</clus>
<clus scale="   91.927">  7  8 -1 -1</clus>
<clus scale="  114.570">  1  5  2 -1</clus>
<clus scale="   32.343">  2  5  1 -1</clus>
</clustering>
</event>
<event>
 9    2  0.1654290E-004  0.1535798E+03  0.7546771E-02  0.1198248E+00
         21   -1    0    0  501  502  0.00000000000E+00  0.00000000000E+00  0.84735531072E+02  0.84735531072E+02  0.00000000000E+00 0.  1.
          2   -1    0    0  502    0 -0.00000000000E+00 -0.00000000000E+00 -0.71738795132E+03  0.71738795132E+03  0.00000000000E+00 0. -1.
         23    2    1    2    0    0 -0.11041357870E+03  0.65499211035E+02 -0.61905842085E+03  0.63881225530E+03  0.91468377507E+02 0.  0.
         24    2    1    2    0    0  0.90290789153E+02 -0.36183807194E+02 -0.20215674911E+02  0.12714264752E+03  0.79340310039E+02 0.  0.
        -13    1    4    4    0    0  0.86409654339E+02 -0.54694768383E+02 -0.41869789998E+01  0.10235075400E+03  0.00000000000E+00 0.  1.
         14    1    4    4    0    0  0.38811348134E+01  0.18510961189E+02 -0.16028695911E+02  0.24791893517E+02  0.00000000000E+00 0. -1.
        -11    1    3    3    0    0 -0.13355846192E+02 -0.18078531927E+02 -0.41234838057E+02  0.46963004735E+02  0.00000000000E+00 0.  1.
         11    1    3    3    0    0 -0.97057732507E+02  0.83577742962E+02 -0.57782358280E+03  0.59184925056E+03  0.00000000000E+00 0. -1.
          1    1    1    2  501    0  0.20122789546E+02 -0.29315403842E+02  0.66216755191E+01  0.36168579571E+02  0.00000000000E+00 0. -1.
<scales pt_clust_5="13000.00000" pt_clust_6="13000.00000" pt_clust_7="13000.00000" pt_clust_8="13000.00000" pt_clust_9="35.55727"></scales>
<clustering>
<clus scale="   35.557">  1  9  2 -1</clus>
<clus scale="   79.340">  5  6 -1 -1</clus>
<clus scale="   91.468">  7  8 -1 -1</clus>
<clus scale="  146.681">  1  5  2 -1</clus>
<clus scale="   35.557">  1  5  2 -1</clus>
</clustering>
</event>
<event>
 9    2  0.1654290E-004  0.1432640E+03  0.7546771E-02  0.1226881E+00
         21   -1    0    0  501  502  0.00000000000E+00  0.00000000000E+00  0.75312130585E+03  0.75312130585E+03  0.00000000000E+00 0. -1.
          2   -1    0    0  502    0 -0.00000000000E+00 -0.00000000000E+00 -0.11637160920E+03  0.11637160920E+03  0.00000000000E+00 0. -1.
         24    2    1    2    0    0  0.56368229975E+02  0.14055301654E+02  0.20849564855E+03  0.23050532008E+03  0.79292737801E+02 0.  0.
         23    2    1    2    0    0  0.42166602738E+02  0.34329915977E+02 -0.68867945318E+02  0.12988984513E+03  0.95770624188E+02 0.  0.
        -13    1    3    3    0    0  0.58993340554E+02 -0.72119073221E+01  0.76967919450E+02  0.97243439169E+02  0.00000000000E+00 0.  1.
         14    1    3    3    0    0 -0.26251105787E+01  0.21267208976E+02  0.13152772910E+03  0.13326188091E+03  0.00000000000E+00 0. -1.
        -13    1    4    4    0    0 -0.25318578979E+02  0.32169884483E+02 -0.37189248839E+02  0.55307975360E+02  0.00000000000E+00 0.  1.
         13    1    4    4    0    0  0.67485181717E+02  0.21600314939E+01 -0.31678696479E+02  0.74581869768E+02  0.00000000000E+00 0. -1.
          1    1    1    2  501    0 -0.98534832713E+02 -0.48385217631E+02  0.49712199343E+03  0.50909774984E+03  0.00000000000E+00 0. -1.
<scales pt_clust_5="13000.00000" pt_clust_6="13000.00000" pt_clust_7="13000.00000" pt_clust_8="13000.00000" pt_clust_9="106.54842"></scales>
<clustering>
<clus scale="   79.293">  5  6 -1 -1</clus>
<clus scale="   95.771">  7  8 -1 -1</clus>
<clus scale="   98.297">  2  5  1 -1</clus>
<clus scale="  106.548">  1  9  2 -1</clus>
<clus scale="  106.548">  1  5  2 -1</clus>
</clustering>
</event>
<event>
 9    2  0.1654290E-004  0.1150689E+03  0.7546771E-02  0.1254401E+00
         21   -1    0    0  501  502  0.00000000000E+00  0.00000000000E+00  0.56647891928E+02  0.56647891928E+02  0.00000000000E+00 0. -1.
          2   -1    0    0  502    0 -0.00000000000E+00 -0.00000000000E+00 -0.85167994212E+03  0.85167994212E+03  0.00000000000E+00 0. -1.
         24    2    1    2    0    0 -0.31610486033E+02 -0.58335574523E+02 -0.62584425881E+03  0.63491980713E+03  0.83903892120E+02 0.  0.
         23    2    1    2    0    0  0.17970629459E+02  0.78578614806E+02 -0.19974393929E+03  0.23429914632E+03  0.92200360390E+02 0.  0.
        -13    1    3    3    0    0  0.13772682428E+02 -0.49045252392E+02 -0.19322656752E+03  0.19982900179E+03  0.00000000000E+00 0.  1.
         14    1    3    3    0    0 -0.45383168460E+02 -0.92903221317E+01 -0.43261769129E+03  0.43509080533E+03  0.00000000000E+00 0. -1.
        -13    1    4    4    0    0  0.19717275863E+02  0.13878151523E+02  0.22882290071E+00  0.24112785345E+02  0.00000000000E+00 0.  1.
         13    1    4    4    0    0 -0.17466464046E+01  0.64700463283E+02 -0.19997276219E+03  0.21018636097E+03  0.00000000000E+00 0. -1.
          1    1    1    2  501    0  0.13639856574E+02 -0.20243040283E+02  0.30556147905E+02  0.39108880603E+02  0.00000000000E+00 0. -1.
<scales pt_clust_5="13000.00000" pt_clust_6="13000.00000" pt_clust_7="13000.00000" pt_clust_8="13000.00000" pt_clust_9="24.40955"></scales>
<clustering>
<clus scale="   24.410">  1  9  2 -1</clus>
<clus scale="   83.904">  5  6 -1 -1</clus>
<clus scale="   92.200">  7  8 -1 -1</clus>
<clus scale="  108.535">  2  5  1 -1</clus>
<clus scale="   24.410">  1  5  2 -1</clus>
</clustering>
</event>
<event>
 9    2  0.1654290E-004  0.1272130E+03  0.7546771E-02  0.1234658E+00
         -1   -1    0    0    0  501 -0.00000000000E+00  0.00000000000E+00  0.16435924920E+03  0.16435924920E+03  0.00000000000E+00 0.  1.
         21   -1    0    0  501  502  0.00000000000E+00 -0.00000000000E+00 -0.12359280912E+03  0.12359280912E+03  0.00000000000E+00 0. -1.
         23    2    1    2    0    0 -0.95100451925E+02 -0.33906142534E+02  0.44111046014E+02  0.14310281475E+03  0.91317625630E+02 0.  0.
         24    2    1    2    0    0  0.66276304707E+02  0.38878337263E+02  0.11980629711E+02  0.11182778039E+03  0.80360707470E+02 0.  0.
        -11    1    4    4    0    0  0.32805207495E+02 -0.56548712132E+01  0.37849091708E+02  0.50405485320E+02  0.00000000000E+00 0.  1.
         12    1    4    4    0    0  0.33471097212E+02  0.44533208476E+02 -0.25868461997E+02  0.61422295071E+02  0.00000000000E+00 0. -1.
        -13    1    3    3    0    0 -0.47301067332E+01 -0.33394025540E+02 -0.13057602594E+02  0.36166778084E+02  0.00000000000E+00 0. -1.
         13    1    3    3    0    0 -0.90370345192E+02 -0.51211699324E+00  0.57168648608E+02  0.10693603666E+03  0.00000000000E+00 0.  1.
         -2    1    1    2    0  502  0.28824147218E+02 -0.49721947295E+01 -0.15325235638E+02  0.33021463182E+02  0.00000000000E+00 0.  1.
<scales pt_clust_5="13000.00000" pt_clust_6="13000.00000" pt_clust_7="13000.00000" pt_clust_8="13000.00000" pt_clust_9="29.24986"></scales>
<clustering>
<clus scale="   29.250">  2  9  1 -1</clus>
<clus scale="   80.361">  5  6 -1 -1</clus>
<clus scale="   91.318">  7  8 -1 -1</clus>
<clus scale="  119.591">  2  5  1 -1</clus>
<clus scale="   29.250">  2  5  1 -1</clus>
</clustering>
</event>
<event>
 9    2  0.1654290E-004  0.1356250E+03  0.7546771E-02  0.1226014E+00
         -3   -1    0    0    0  501 -0.00000000000E+00  0.00000000000E+00  0.45755899494E+02  0.45755899494E+02  0.00000000000E+00 0.  1.
         21   -1    0    0  501  502  0.00000000000E+00 -0.00000000000E+00 -0.54084259644E+03  0.54084259644E+03  0.00000000000E+00 0.  1.
         23    2    1    2    0    0  0.74906474292E+02 -0.57205342888E+02 -0.20663281821E+03  0.24445423200E+03  0.90428528894E+02 0.  0.
         24    2    1    2    0    0 -0.50288195232E+02  0.10273475809E+03 -0.23075088764E+03  0.26462895902E+03  0.60820890409E+02 0.  0.
        -13    1    4    4    0    0 -0.26960676308E+02  0.99832557144E+02 -0.20597449805E+03  0.23047540298E+03  0.00000000000E+00 0.  1.
         14    1    4    4    0    0 -0.23327518923E+02  0.29022009460E+01 -0.24776389589E+02  0.34153556045E+02  0.00000000000E+00 0. -1.
        -11    1    3    3    0    0  0.50257457411E+01 -0.22930997574E+02 -0.14011911969E+03  0.14207201157E+03  0.00000000000E+00 0. -1.
         11    1    3    3    0    0  0.69880728550E+02 -0.34274345314E+02 -0.66513698517E+02  0.10238222043E+03  0.00000000000E+00 0.  1.
         -4    1    1    2    0  502 -0.24618279060E+02 -0.45529415202E+02 -0.57702991100E+02  0.77515304905E+02  0.00000000000E+00 0.  1.
<scales pt_clust_5="13000.00000" pt_clust_6="13000.00000" pt_clust_7="13000.00000" pt_clust_8="13000.00000" pt_clust_9="51.75896"></scales>
<clustering>
<clus scale="   51.759">  2  9  1 -1</clus>
<clus scale="   60.821">  5  6 -1 -1</clus>
<clus scale="   90.429">  7  8 -1 -1</clus>
<clus scale="  117.966">  2  5  1 -1</clus>
<clus scale="   51.759">  2  5  1 -1</clus>
</clustering>
</event>
<event>
 9    2  0.1654290E-004  0.2897715E+03  0.7546771E-02  0.1090930E+00
         21   -1    0    0  501  502  0.00000000000E+00  0.00000000000E+00  0.17799597459E+03  0.17799597459E+03  0.00000000000E+00 0. -1.
          2   -1    0    0  502    0 -0.00000000000E+00 -0.00000000000E+00 -0.94463645973E+03  0.94463645973E+03  0.00000000000E+00 0. -1.
         24    2    1    2    0    0 -0.30733607762E+03  0.18219643559E+03 -0.51146484472E+03  0.62909176340E+03  0.80679326036E+02 0.  0.
         23    2    1    2    0    0  0.20386734434E+03 -0.13832069302E+02 -0.14868447064E+03  0.26905746921E+03  0.92366821426E+02 0.  0.
        -11    1    3    3    0    0 -0.96092299779E+02  0.46310880598E+02 -0.95495108823E+02  0.14317033054E+03  0.00000000000E+00 0.  1.
         12    1    3    3    0    0 -0.21124377785E+03  0.13588555500E+03 -0.41596973589E+03  0.48592143286E+03  0.00000000000E+00 0. -1.
        -13    1    4    4    0    0  0.71355516340E+02  0.32050531606E+02 -0.25128966994E+02  0.82160277936E+02  0.00000000000E+00 0. -1.
         13    1    4    4    0    0  0.13251182800E+03 -0.45882600907E+02 -0.12355550365E+03  0.18689719128E+03  0.00000000000E+00 0.  1.
          1    1    1    2  501    0  0.10346873329E+03 -0.16836436629E+03 -0.10649116978E+03  0.22448320170E+03  0.00000000000E+00 0. -1.
<scales pt_clust_5="13000.00000" pt_clust_6="13000.00000" pt_clust_7="13000.00000" pt_clust_8="13000.00000" pt_clust_9="197.61665"></scales>
<clustering>
<clus scale="   80.679">  5  6 -1 -1</clus>
<clus scale="   92.367">  7  8 -1 -1</clus>
<clus scale="  197.617">  1  9  2 -1</clus>
<clus scale="  286.260">  2  5  1 -1</clus>
<clus scale="  197.617">  1  5  2 -1</clus>
</clustering>
</event>
<event>
 9    2  0.1654290E-004  0.1324522E+03  0.7546771E-02  0.1240435E+00
         21   -1    0    0  501  502  0.00000000000E+00  0.00000000000E+00  0.81246340776E+02  0.81246340776E+02  0.00000000000E+00 0.  1.
         -3   -1    0    0    0  501 -0.00000000000E+00 -0.00000000000E+00 -0.51051346861E+03  0.51051346861E+03  0.00000000000E+00 0.  1.
         23    2    1    2    0    0 -0.19796442477E+02 -0.56958584315E+01 -0.27786157551E+03  0.29338902189E+03  0.91900604370E+02 0.  0.
         24    2    1    2    0    0 -0.45126898148E+02  0.89987970193E+02 -0.14112303114E+03  0.19147864323E+03  0.81327050736E+02 0.  0.
        -13    1    4    4    0    0  0.68480833453E+01  0.51666069703E+02 -0.23234138469E+02  0.57062283467E+02  0.00000000000E+00 0.  1.
         14    1    4    4    0    0 -0.51974981493E+02  0.38321900490E+02 -0.11788889267E+03  0.13441635977E+03  0.00000000000E+00 0. -1.
        -11    1    3    3    0    0  0.13889770159E+02  0.35964153006E+02 -0.87185100940E+02  0.95328840560E+02  0.00000000000E+00 0.  1.
         11    1    3    3    0    0 -0.33686212636E+02 -0.41660011438E+02 -0.19067647457E+03  0.19806018133E+03  0.00000000000E+00 0. -1.
         -4    1    1    2    0  502  0.64923340625E+02 -0.84292111762E+02 -0.10282521190E+02  0.10689214426E+03  0.00000000000E+00 0.  1.
<scales pt_clust_5="13000.00000" pt_clust_6="13000.00000" pt_clust_7="13000.00000" pt_clust_8="13000.00000" pt_clust_9="104.54423"></scales>
<clustering>
<clus scale="   81.327">  5  6 -1 -1</clus>
<clus scale="   91.901">  7  8 -1 -1</clus>
<clus scale="   94.181">  2  7  1 -1</clus>
<clus scale="  104.544">  1  9  2 -1</clus>
<clus scale="  104.544">  1  5  2 -1</clus>
</clustering>
</event>
<event>
 9    2  0.1654290E-004  0.1023457E+03  0.7546771E-02  0.1280917E+00
         21   -1    0    0  501  502  0.00000000000E+00  0.00000000000E+00  0.29115028642E+03  0.29115028642E+03  0.00000000000E+00 0.  1.
         -3   -1    0    0    0  501 -0.00000000000E+00 -0.00000000000E+00 -0.64007897630E+02  0.64007897630E+02  0.00000000000E+00 0.  1.
         24    2    1    2    0    0  0.11771319241E+02  0.40058398010E+02  0.24906118641E+02  0.92621620478E+02  0.78836607146E+02 0.  0.
         23    2    1    2    0    0 -0.10621516031E+01 -0.71449502603E+02  0.19795446131E+03  0.22909375259E+03  0.90508668856E+02 0.  0.
        -11    1    3    3    0    0 -0.28411158764E+02  0.23116269790E+02  0.31758484224E+02  0.48478419854E+02  0.00000000000E+00 0.  1.
         12    1    3    3    0    0  0.40182478005E+02  0.16942128220E+02 -0.68523655827E+01  0.44143200624E+02  0.00000000000E+00 0. -1.
        -13    1    4    4    0    0  0.40475416743E+02 -0.58957276821E+02  0.11348066459E+03  0.13413456335E+03  0.00000000000E+00 0.  1.
         13    1    4    4    0    0 -0.41537568346E+02 -0.12492225782E+02  0.84473796720E+02  0.94959189241E+02  0.00000000000E+00 0. -1.
         -4    1    1    2    0  502 -0.10709167638E+02  0.31391104593E+02  0.42818088405E+01  0.33442810977E+02  0.00000000000E+00 0.  1.
<scales pt_clust_5="13000.00000" pt_clust_6="13000.00000" pt_clust_7="13000.00000" pt_clust_8="13000.00000" pt_clust_9="33.16759"></scales>
<clustering>
<clus scale="   33.168">  1  9  2 -1</clus>
<clus scale="   78.837">  5  6 -1 -1</clus>
<clus scale="   90.509">  7  8 -1 -1</clus>
<clus scale="   92.185">  2  5  1 -1</clus>
<clus scale="   33.168">  1  5  2 -1</clus>
</clustering>
</event>
<event>
 9    2  0.1729564E-004  0.9755138E+02  0.7546771E-02  0.1286854E+00
         21   -1    0    0  501  502  0.00000000000E+00  0.00000000000E+00  0.13503917084E+03  0.13503917084E+03  0.00000000000E+00 0. -1.
          4   -1    0    0  502    0 -0.00000000000E+00 -0.00000000000E+00 -0.41850802018E+03  0.41850802018E+03  0.00000000000E+00 0. -1.
         24    2    1    2    0    0  0.20321944398E+02  0.35276826158E+02 -0.25777231494E+03  0.27541016602E+03  0.88015665154E+02 0.  0.
         23    2    1    2    0    0  0.50063040273E+02 -0.17536586707E+00  0.90717657409E+02  0.13764352822E+03  0.90607443070E+02 0.  0.
        -11    1    3    3    0    0 -0.22752013186E+02 -0.93842054870E+01 -0.27410084077E+02  0.36837889811E+02  0.00000000000E+00 0.  1.
         12    1    3    3    0    0  0.43073957584E+02  0.44661031645E+02 -0.23036223086E+03  0.23857227621E+03  0.00000000000E+00 0. -1.
        -11    1    4    4    0    0  0.44764952974E+02 -0.29886331157E+02  0.14612593351E+02  0.55772947647E+02  0.00000000000E+00 0.  1.
         11    1    4    4    0    0  0.52980872990E+01  0.29710965290E+02  0.76105064058E+02  0.81870580570E+02  0.00000000000E+00 0. -1.
          3    1    1    2  501    0 -0.70384984671E+02 -0.35101460291E+02 -0.11641419181E+03  0.14049349677E+03  0.00000000000E+00 0. -1.
<scales pt_clust_5="13000.00000" pt_clust_6="13000.00000" pt_clust_7="13000.00000" pt_clust_8="13000.00000" pt_clust_9="78.65218"></scales>
<clustering>
<clus scale="   78.652">  1  9  2 -1</clus>
<clus scale="   88.016">  5  6 -1 -1</clus>
<clus scale="   90.607">  7  8 -1 -1</clus>
<clus scale="   95.149">  2  5  1 -1</clus>
<clus scale="   78.652">  1  5  2 -1</clus>
</clustering>
</event>
<event>
 9    2  0.1654290E-004  0.9480519E+02  0.7546771E-02  0.1299371E+00
          2   -1    0    0  502    0 -0.00000000000E+00  0.00000000000E+00  0.35070812325E+03  0.35070812325E+03  0.00000000000E+00 0. -1.
         21   -1    0    0  501  502  0.00000000000E+00 -0.00000000000E+00 -0.16331586433E+03  0.16331586433E+03  0.00000000000E+00 0. -1.
         23    2    1    2    0    0  0.40205566449E+00  0.22536607114E+02  0.29165583275E+03  0.30670916251E+03  0.92191785337E+02 0.  0.
         24    2    1    2    0    0 -0.53004731983E+02 -0.10052433035E+02 -0.11760451669E+03  0.15162930707E+03  0.79057393039E+02 0.  0.
        -13    1    4    4    0    0 -0.13435478612E-01  0.26351549598E+02 -0.59078159481E+02  0.64688741481E+02  0.00000000000E+00 0.  1.
         14    1    4    4    0    0 -0.52991296505E+02 -0.36403982633E+02 -0.58526357208E+02  0.86940565589E+02  0.00000000000E+00 0. -1.
        -11    1    3    3    0    0  0.19655488169E+02 -0.31705707781E+02  0.11934648410E+03  0.12504068693E+03  0.00000000000E+00 0.  1.
         11    1    3    3    0    0 -0.19253432505E+02  0.54242314895E+02  0.17230934865E+03  0.18166847558E+03  0.00000000000E+00 0. -1.
          1    1    1    2  501    0  0.52602676319E+02 -0.12484174080E+02  0.13340942860E+02  0.55685517999E+02  0.00000000000E+00 0. -1.
<scales pt_clust_5="13000.00000" pt_clust_6="13000.00000" pt_clust_7="13000.00000" pt_clust_8="13000.00000" pt_clust_9="54.06382"></scales>
<clustering>
<clus scale="   54.064">  2  9  1 -1</clus>
<clus scale="   79.057">  5  6 -1 -1</clus>
<clus scale="   82.090">  2  5  1 -1</clus>
<clus scale="   92.192">  7  8 -1 -1</clus>
<clus scale="   54.064">  2  5  1 -1</clus>
</clustering>
</event>
<event>
 9    2  0.1654290E-004  0.9757920E+02  0.7546771E-02  0.1287564E+00
          2   -1    0    0  502    0 -0.00000000000E+00  0.00000000000E+00  0.51476005292E+03  0.51476005292E+03  0.00000000000E+00 0. -1.
         21   -1    0    0  501  502  0.00000000000E+00 -0.00000000000E+00 -0.98035370294E+02  0.98035370294E+02  0.00000000000E+00 0. -1.
         24    2    1    2    0    0  0.31036121445E+02 -0.13546750981E+02  0.41070799046E+03  0.42288610367E+03  0.94893877334E+02 0.  0.
         23    2    1    2    0    0  0.38873797538E+02 -0.19041888709E+01  0.44612236123E+02  0.10857209357E+03  0.91010163284E+02 0.  0.
        -13    1    3    3    0    0  0.69815486515E+01 -0.44330931724E+02  0.98478647387E+02  0.10822207501E+03  0.00000000000E+00 0.  1.
         14    1    3    3    0    0  0.24054572793E+02  0.30784180743E+02  0.31222934307E+03  0.31466402866E+03  0.00000000000E+00 0. -1.
        -11    1    4    4    0    0  0.58148399980E+02  0.20376417260E+02  0.88655981468E+01  0.62249768121E+02  0.00000000000E+00 0. -1.
         11    1    4    4    0    0 -0.19274602442E+02 -0.22280606131E+02  0.35746637977E+02  0.46322325454E+02  0.00000000000E+00 0.  1.
          1    1    1    2  501    0 -0.69909918983E+02  0.15450939852E+02 -0.38595543958E+02  0.81337225966E+02  0.00000000000E+00 0. -1.
<scales pt_clust_5="13000.00000" pt_clust_6="13000.00000" pt_clust_7="13000.00000" pt_clust_8="13000.00000" pt_clust_9="71.59699"></scales>
<clustering>
<clus scale="   71.597">  2  9  1 -1</clus>
<clus scale="   91.010">  7  8 -1 -1</clus>
<clus scale="   93.807">  2  7  1 -1</clus>
<clus scale="   94.894">  5  6 -1 -1</clus>
<clus scale="   71.597">  2  5  1 -1</clus>
</clustering>
</event>
<event>
 9    2  0.1654290E-004  0.1459172E+03  0.7546771E-02  0.1231435E+00
          2   -1    0    0  502    0 -0.00000000000E+00  0.00000000000E+00  0.14448274708E+03  0.14448274708E+03  0.00000000000E+00 0. -1.
         21   -1    0    0  501  502  0.00000000000E+00 -0.00000000000E+00 -0.27215079415E+03  0.27215079415E+03  0.00000000000E+00 0.  1.
         24    2    1    2    0    0  0.16827488903E+02 -0.20151238488E+02 -0.12807523898E+03  0.15353325270E+03  0.80498174197E+02 0.  0.
         23    2    1    2    0    0  0.99779600339E+02 -0.55854417250E+01  0.30250940699E+02  0.14001398014E+03  0.93282524729E+02 0.  0.
        -11    1    3    3    0    0  0.18288890222E+02 -0.35923653709E+02 -0.13131695116E+03  0.13736496665E+03  0.00000000000E+00 0.  1.
         12    1    3    3    0    0 -0.14614013191E+01  0.15772415221E+02  0.32417121833E+01  0.16168286044E+02  0.00000000000E+00 0. -1.
        -11    1    4    4    0    0  0.74799157326E+02  0.70811486278E+01  0.62190674800E+02  0.97533259121E+02  0.00000000000E+00 0. -1.
         11    1    4    4    0    0  0.24980443012E+02 -0.12666590353E+02 -0.31939734101E+02  0.42480721024E+02  0.00000000000E+00 0.  1.
          1    1    1    2  501    0 -0.11660708924E+03  0.25736680213E+02 -0.29843748796E+02  0.12308630839E+03  0.00000000000E+00 0. -1.
<scales pt_clust_5="13000.00000" pt_clust_6="13000.00000" pt_clust_7="13000.00000" pt_clust_8="13000.00000" pt_clust_9="112.20605"></scales>
<clustering>
<clus scale="   80.498">  5  6 -1 -1</clus>
<clus scale="   84.671">  1  5  2 -1</clus>
<clus scale="   93.283">  7  8 -1 -1</clus>
<clus scale="  112.206">  2  9  1 -1</clus>
<clus scale="  112.206">  2  5  1 -1</clus>
</clustering>
</event>
<event>
 9    2  0.1654290E-004  0.1633635E+03  0.7546771E-02  0.1194871E+00
         -3   -1    0    0    0  501 -0.00000000000E+00  0.00000000000E+00  0.20280440512E+03  0.20280440512E+03  0.00000000000E+00 0.  1.
         21   -1    0    0  501  502  0.00000000000E+00 -0.00000000000E+00 -0.13302908079E+03  0.13302908079E+03  0.00000000000E+00 0. -1.
         24    2    1    2    0    0  0.10248002870E+03 -0.22970025320E+02  0.54491010872E+02  0.14307984973E+03  0.80453681000E+02 0.  0.
         23    2    1    2    0    0 -0.91271618544E+02  0.49387580090E+02  0.12772457919E+02  0.16394695160E+03  0.12627678266E+03 0.  0.
        -11    1    3    3    0    0  0.45463015259E+02 -0.12977908914E+02  0.68774188024E+02  0.83457778634E+02  0.00000000000E+00 0.  1.
         12    1    3    3    0    0  0.57017013438E+02 -0.99921164057E+01 -0.14283177151E+02  0.59622071091E+02  0.00000000000E+00 0. -1.
        -11    1    4    4    0    0  0.20551058024E+02  0.47338522252E+02  0.41598914750E+01  0.51774379494E+02  0.00000000000E+00 0. -1.
         11    1    4    4    0    0 -0.11182267657E+03  0.20490578375E+01  0.86125664440E+01  0.11217257211E+03  0.00000000000E+00 0.  1.
         -4    1    1    2    0  502 -0.11208410153E+02 -0.26417554770E+02  0.25118555451E+01  0.28806684579E+02  0.00000000000E+00 0.  1.
<scales pt_clust_5="13000.00000" pt_clust_6="13000.00000" pt_clust_7="13000.00000" pt_clust_8="13000.00000" pt_clust_9="28.69696"></scales>
<clustering>
<clus scale="   28.697">  2  9  1 -1</clus>
<clus scale="   80.454">  5  6 -1 -1</clus>
<clus scale="  126.277">  7  8 -1 -1</clus>
<clus scale="  131.204">  1  5  2 -1</clus>
<clus scale="   28.697">  2  5  1 -1</clus>
</clustering>
</event>
<event>
 9    2  0.1654290E-004  0.1066350E+03  0.7546771E-02  0.1270549E+00
          2   -1    0    0  502    0 -0.00000000000E+00  0.00000000000E+00  0.65242252479E+03  0.65242252479E+03  0.00000000000E+00 0. -1.
         21   -1    0    0  501  502  0.00000000000E+00 -0.00000000000E+00 -0.55825917023E+02  0.55825917023E+02  0.00000000000E+00 0. -1.
         23    2    1    2    0    0  0.36249519215E+02  0.50036189456E+02  0.30056163548E+03  0.31950766738E+03  0.89051697858E+02 0.  0.
         24    2    1    2    0    0  0.41685582624E+02 -0.68514065982E+02  0.28641244173E+03  0.30806918641E+03  0.80266255688E+02 0.  0.
        -13    1    4    4    0    0  0.59385503836E+02 -0.46087641754E+02  0.14009335041E+03  0.15898696682E+03  0.00000000000E+00 0.  1.
         14    1    4    4    0    0 -0.17699921212E+02 -0.22426424227E+02  0.14631909132E+03  0.14908221959E+03  0.00000000000E+00 0. -1.
        -11    1    3    3    0    0 -0.67503510974E+00 -0.20364289752E+02  0.22725518733E+02  0.30522273361E+02  0.00000000000E+00 0.  1.
         11    1    3    3    0    0  0.36924554325E+02  0.70400479208E+02  0.27783611675E+03  0.28898539402E+03  0.00000000000E+00 0. -1.
          1    1    1    2  501    0 -0.77935101839E+02  0.18477876525E+02  0.96225305515E+01  0.80671588021E+02  0.00000000000E+00 0. -1.
<scales pt_clust_5="13000.00000" pt_clust_6="13000.00000" pt_clust_7="13000.00000" pt_clust_8="13000.00000" pt_clust_9="80.09564"></scales>
<clustering>
<clus scale="   80.096">  2  9  1 -1</clus>
<clus scale="   80.266">  5  6 -1 -1</clus>
<clus scale="   89.052">  7  8 -1 -1</clus>
<clus scale="   99.416">  2  5  1 -1</clus>
<clus scale="   80.096">  2  5  1 -1</clus>
</clustering>
</event>
<event>
 9    2  0.1654290E-004  0.1355593E+03  0.7546771E-02  0.1222658E+00
         -3   -1    0    0    0  501 -0.00000000000E+00  0.00000000000E+00  0.52779136457E+03  0.52779136457E+03  0.00000000000E+00 0.  1.
         21   -1    0    0  501  502  0.00000000000E+00 -0.00000000000E+00 -0.48156843665E+02  0.48156843665E+02  0.00000000000E+00 0.  1.
         24    2    1    2    0    0 -0.24848564842E+02  0.10405590125E+03  0.29919987879E+03  0.32829654097E+03  0.82540714712E+02 0.  0.
         23    2    1    2    0    0  0.72958221839E+01 -0.73643839298E+02  0.90212873670E+02  0.15083761979E+03  0.95587556092E+02 0.  0.
        -13    1    3    3    0    0 -0.29453705030E+02  0.11455773973E+03  0.23509593722E+03  0.26317502953E+03  0.00000000000E+00 0.  1.
         14    1    3    3    0    0  0.46051401879E+01 -0.10501838472E+02  0.64103941572E+02  0.65121511442E+02  0.00000000000E+00 0. -1.
        -11    1    4    4    0    0  0.39611911820E+02 -0.65759366850E+02  0.89023344513E+02  0.11755234474E+03  0.00000000000E+00 0. -1.
         11    1    4    4    0    0 -0.32316089636E+02 -0.78844724474E+01  0.11895291572E+01  0.33285275044E+02  0.00000000000E+00 0.  1.
         -4    1    1    2    0  502  0.17552742658E+02 -0.30412061956E+02  0.90221768442E+02  0.96814047472E+02  0.00000000000E+00 0.  1.
<scales pt_clust_5="13000.00000" pt_clust_6="13000.00000" pt_clust_7="13000.00000" pt_clust_8="13000.00000" pt_clust_9="35.11401"></scales>
<clustering>
<clus scale="   35.114">  2  9  1 -1</clus>
<clus scale="   82.541">  5  6 -1 -1</clus>
<clus scale="   95.588">  7  8 -1 -1</clus>
<clus scale="  126.698">  1  5  2 -1</clus>
<clus scale="   35.114">  2  5  1 -1</clus>
</clustering>
</event>
<event>
 9    2  0.1654290E-004  0.1336737E+03  0.7546771E-02  0.1227763E+00
          2   -1    0    0  502    0 -0.00000000000E+00  0.00000000000E+00  0.38954371960E+03  0.38954371960E+03  0.00000000000E+00 0. -1.
         21   -1    0    0  501  502  0.00000000000E+00 -0.00000000000E+00 -0.56982497693E+02  0.56982497693E+02  0.00000000000E+00 0. -1.
         24    2    1    2    0    0  0.21396997370E+02 -0.82557530590E+02  0.15347263791E+03  0.20721695226E+03  0.11005197574E+03 0.  0.
         23    2    1    2    0    0 -0.35956531577E+02  0.57595822108E+02  0.88518425884E+02  0.14424076095E+03  0.91431583776E+02 0.  0.
        -13    1    3    3    0    0 -0.16625524179E+02 -0.11434714980E+02 -0.11758462857E+02  0.23354276046E+02  0.00000000000E+00 0.  1.
         14    1    3    3    0    0  0.38022521549E+02 -0.71122815610E+02  0.16523110076E+03  0.18386267621E+03  0.00000000000E+00 0. -1.
        -13    1    4    4    0    0 -0.41356953880E+02  0.36515603753E+02  0.21922265519E+01  0.55214063507E+02  0.00000000000E+00 0. -1.
         13    1    4    4    0    0  0.54004223024E+01  0.21080218355E+02  0.86326199332E+02  0.89026697446E+02  0.00000000000E+00 0.  1.
          1    1    1    2  501    0  0.14559534207E+02  0.24961708482E+02  0.90570158114E+02  0.95068504077E+02  0.00000000000E+00 0. -1.
<scales pt_clust_5="13000.00000" pt_clust_6="13000.00000" pt_clust_7="13000.00000" pt_clust_8="13000.00000" pt_clust_9="28.89754"></scales>
<clustering>
<clus scale="   28.898">  2  9  1 -1</clus>
<clus scale="   91.432">  7  8 -1 -1</clus>
<clus scale="  110.052">  5  6 -1 -1</clus>
<clus scale="  118.815">  2  7  1 -1</clus>
<clus scale="   28.898">  2  5  1 -1</clus>
</clustering>
</event>
<event>
 9    2  0.1654290E-004  0.1598400E+03  0.7546771E-02  0.1200342E+00
         -3   -1    0    0    0  501 -0.00000000000E+00  0.00000000000E+00  0.16481430254E+03  0.16481430254E+03  0.00000000000E+00 0.  1.
         21   -1    0    0  501  502  0.00000000000E+00 -0.00000000000E+00 -0.39022209449E+03  0.39022209449E+03  0.00000000000E+00 0.  1.
         23    2    1    2    0    0 -0.65362713345E+02  0.12865607230E+02 -0.16136812256E+03  0.20370326651E+03  0.10496447810E+03 0.  0.
         24    2    1    2    0    0  0.54478344992E+02  0.13014307835E+03  0.49677000518E+02  0.16829915925E+03  0.77147208030E+02 0.  0.
        -13    1    4    4    0    0  0.40523283962E+02  0.12929880394E+03  0.21976889861E+02  0.13727090344E+03  0.00000000000E+00 0.  1.
         14    1    4    4    0    0  0.13955061030E+02  0.84427440586E+00  0.27700110658E+02  0.31028255801E+02  0.00000000000E+00 0. -1.
        -11    1    3    3    0    0 -0.29272765500E+02 -0.78175858192E+01 -0.15919207800E+03  0.16204976750E+03  0.00000000000E+00 0.  1.
         11    1    3    3    0    0 -0.36089947845E+02  0.20683193050E+02 -0.21760445637E+01  0.41653499014E+02  0.00000000000E+00 0. -1.
         -4    1    1    2    0  502  0.10884368353E+02 -0.14300868558E+03 -0.11371666991E+03  0.18303397127E+03  0.00000000000E+00 0.  1.
<scales pt_clust_5="13000.00000" pt_clust_6="13000.00000" pt_clust_7="13000.00000" pt_clust_8="13000.00000" pt_clust_9="139.98981"></scales>
<clustering>
<clus scale="   77.147">  5  6 -1 -1</clus>
<clus scale="  104.964">  7  8 -1 -1</clus>
<clus scale="  124.320">  1  7  2 -1</clus>
<clus scale="  139.990">  2  9  1 -1</clus>
<clus scale="  139.990">  2  5  1 -1</clus>
</clustering>
</event>
<event>
 9    2  0.1871709E-004  0.2175625E+03  0.7546771E-02  0.1136673E+00
         21   -1    0    0  501  502  0.00000000000E+00  0.00000000000E+00  0.12255584118E+03  0.12255584118E+03  0.00000000000E+00 0. -1.
          2   -1    0    0  502    0 -0.00000000000E+00 -0.00000000000E+00 -0.89482622250E+03  0.89482622250E+03  0.00000000000E+00 0. -1.
         23    2    1    2    0    0 -0.21417343855E+02  0.18694004112E+03 -0.42581066579E+03  0.47498127770E+03  0.94271997265E+02 0.  0.
         24    2    1    2    0    0 -0.62410619205E+02 -0.22929710789E+03 -0.86296444931E+02  0.26580328806E+03  0.82049146610E+02 0.  0.
        -11    1    4    4    0    0  0.17875212420E+02 -0.31743335988E+02 -0.24074264761E+02  0.43666151909E+02  0.00000000000E+00 0.  1.
         12    1    4    4    0    0 -0.80285831625E+02 -0.19755377190E+03 -0.62222180170E+02  0.22213713615E+03  0.00000000000E+00 0. -1.
        -11    1    3    3    0    0  0.10575399896E+02  0.19866439172E+02 -0.80289459717E+01  0.23895155613E+02  0.00000000000E+00 0.  1.
         11    1    3    3    0    0 -0.31992743751E+02  0.16707360195E+03 -0.41778171982E+03  0.45108612208E+03  0.00000000000E+00 0. -1.
          1    1    1    2  501    0  0.83827963060E+02  0.42357066768E+02 -0.26016327059E+03  0.27659749793E+03  0.00000000000E+00 0. -1.
<scales pt_clust_5="13000.00000" pt_clust_6="13000.00000" pt_clust_7="13000.00000" pt_clust_8="13000.00000" pt_clust_9="93.92155"></scales>
<clustering>
<clus scale="   82.049">  5  6 -1 -1</clus>
<clus scale="   93.922">  1  9  2 -1</clus>
<clus scale="   94.272">  7  8 -1 -1</clus>
<clus scale="  212.552">  1  5  2 -1</clus>
<clus scale="   93.922">  1  5  2 -1</clus>
</clustering>
</event>
<event>
 9    2  0.1654290E-004  0.1386098E+03  0.7546771E-02  0.1220734E+00
         21   -1    0    0  501  502  0.00000000000E+00  0.00000000000E+00  0.52627678884E+02  0.52627678884E+02  0.00000000000E+00 0. -1.
          2   -1    0    0  502    0 -0.00000000000E+00 -0.00000000000E+00 -0.13102867091E+04  0.13102867091E+04  0.00000000000E+00 0. -1.
         24    2    1    2    0    0 -0.82920035890E+02 -0.43493674331E+02 -0.27546590427E+03  0.30183733432E+03  0.80354713098E+02 0.  0.
         23    2    1    2    0    0 -0.57123125563E+02 -0.72739680586E+02 -0.11037094661E+03  0.17046142823E+03  0.91220831255E+02 0.  0.
        -11    1    3    3    0    0  0.11412967812E+02 -0.24599858964E+02 -0.64611316259E+02  0.70071613967E+02  0.00000000000E+00 0.  1.
         12    1    3    3    0    0 -0.94333003702E+02 -0.18893815367E+02 -0.21085458801E+03  0.23176572036E+03  0.00000000000E+00 0. -1.
        -11    1    4    4    0    0 -0.49790637845E+02 -0.46560529065E+02 -0.12288993038E+03  0.14053087018E+03  0.00000000000E+00 0.  1.
         11    1    4    4    0    0 -0.73324877182E+01 -0.26179151522E+02  0.12518983778E+02  0.29930558053E+02  0.00000000000E+00 0. -1.
          1    1    1    2  501    0  0.14004316145E+03  0.11623335492E+03 -0.87182217933E+03  0.89061562542E+03  0.00000000000E+00 0. -1.
<scales pt_clust_5="13000.00000" pt_clust_6="13000.00000" pt_clust_7="13000.00000" pt_clust_8="13000.00000" pt_clust_9="104.36206"></scales>
<clustering>
<clus scale="   80.355">  5  6 -1 -1</clus>
<clus scale="   91.221">  7  8 -1 -1</clus>
<clus scale="  123.387">  2  5  1 -1</clus>
<clus scale="  104.362">  1  9  2 -1</clus>
<clus scale="  104.362">  1  5  2 -1</clus>
</clustering>
</event>
<event>
 9    2  0.1654290E-004  0.1222337E+03  0.7546771E-02  0.1244230E+00
         21   -1    0    0  501  502  0.00000000000E+00  0.00000000000E+00  0.48285281216E+02  0.48285281216E+02  0.00000000000E+00 0. -1.
          2   -1    0    0  502    0 -0.00000000000E+00 -0.00000000000E+00 -0.82301877917E+03  0.82301877917E+03  0.00000000000E+00 0. -1.
         23    2    1    2    0    0  0.76204879993E+02  0.42943934221E+02 -0.54554983814E+03  0.55990115994E+03  0.90627356675E+02 0.  0.
         24    2    1    2    0    0 -0.70953181090E+02  0.20109131411E+02 -0.40757443486E+02  0.11263743961E+03  0.74748194148E+02 0.  0.
        -11    1    4    4    0    0 -0.16233157074E+02  0.24338021616E+02 -0.49069345429E+02  0.57128411019E+02  0.00000000000E+00 0.  1.
         12    1    4    4    0    0 -0.54720024016E+02 -0.42288902050E+01  0.83119019425E+01  0.55509028586E+02  0.00000000000E+00 0. -1.
        -13    1    3    3    0    0 -0.17436151724E+02  0.23596816746E+02 -0.10048894579E+03  0.10468456129E+03  0.00000000000E+00 0.  1.
         13    1    3    3    0    0  0.93641031717E+02  0.19347117475E+02 -0.44506089236E+03  0.45521659864E+03  0.00000000000E+00 0. -1.
          1    1    1    2  501    0 -0.52516989027E+01 -0.63053065632E+02 -0.18842621632E+03  0.19876546084E+03  0.00000000000E+00 0. -1.
<scales pt_clust_5="13000.00000" pt_clust_6="13000.00000" pt_clust_7="13000.00000" pt_clust_8="13000.00000" pt_clust_9="63.27143"></scales>
<clustering>
<clus scale="   63.271">  1  9  2 -1</clus>
<clus scale="   74.748">  5  6 -1 -1</clus>
<clus scale="   90.627">  7  8 -1 -1</clus>
<clus scale="  110.973">  1  5  2 -1</clus>
<clus scale="   63.271">  1  5  2 -1</clus>
</clustering>
</event>
<event>
 9    2  0.1654290E-004  0.4898065E+03  0.7546771E-02  0.1046784E+00
          4   -1    0    0  502    0 -0.00000000000E+00  0.00000000000E+00  0.20695082696E+03  0.20695082696E+03  0.00000000000E+00 0. -1.
         21   -1    0    0  501  502  0.00000000000E+00 -0.00000000000E+00 -0.18611128009E+04  0.18611128009E+04  0.00000000000E+00 0. -1.
         24    2    1    2    0    0  0.14545555463E+03 -0.11469516262E+03 -0.92837095221E+02  0.22031399488E+03  0.74881448910E+02 0.  0.
         23    2    1    2    0    0  0.38467704930E+03  0.19987377410E+03 -0.59390556881E+03  0.74131567887E+03  0.94335323470E+02 0.  0.
        -11    1    3    3    0    0  0.20291381106E+02 -0.45388270290E+02 -0.51061697268E+02  0.71268030386E+02  0.00000000000E+00 0.  1.
         12    1    3    3    0    0  0.12516417353E+03 -0.69306892326E+02 -0.41775397952E+02  0.14904596450E+03  0.00000000000E+00 0. -1.
        -11    1    4    4    0    0  0.21800795956E+03  0.14000679782E+03 -0.28438776564E+03  0.38471518701E+03  0.00000000000E+00 0. -1.
         11    1    4    4    0    0  0.16666908973E+03  0.59866976282E+02 -0.30951780316E+03  0.35660049186E+03  0.00000000000E+00 0.  1.
          3    1    1    2  501    0 -0.53013260393E+03 -0.85178611487E+02 -0.96741930991E+03  0.11064339541E+04  0.00000000000E+00 0. -1.
<scales pt_clust_5="13000.00000" pt_clust_6="13000.00000" pt_clust_7="13000.00000" pt_clust_8="13000.00000" pt_clust_9="480.63629"></scales>
<clustering>
<clus scale="   74.881">  5  6 -1 -1</clus>
<clus scale="   94.335">  7  8 -1 -1</clus>
<clus scale="  199.799">  1  5  2 -1</clus>
<clus scale="  480.636">  2  9  1 -1</clus>
<clus scale="  480.636">  2  5  1 -1</clus>
</clustering>
</event>
<event>
 9    2  0.1654290E-004  0.1247197E+03  0.7546771E-02  0.1238983E+00
         21   -1    0    0  501  502  0.00000000000E+00  0.00000000000E+00  0.12254114138E+03  0.12254114138E+03  0.00000000000E+00 0.  1.
          4   -1    0    0  502    0 -0.00000000000E+00 -0.00000000000E+00 -0.28704983700E+03  0.28704983700E+03  0.00000000000E+00 0. -1.
         23    2    1    2    0    0 -0.13503634291E+02  0.87922328682E+02 -0.22975806526E+03  0.26325052265E+03  0.92732869592E+02 0.  0.
         24    2    1    2    0    0  0.60595819405E+01 -0.57146720355E+02  0.46970494686E+02  0.10977996815E+03  0.80888490250E+02 0.  0.
        -13    1    4    4    0    0 -0.33336218987E+02 -0.48154844400E+02  0.23965266195E+02  0.63281328363E+02  0.00000000000E+00 0.  1.
         14    1    4    4    0    0  0.39395800928E+02 -0.89918759546E+01  0.23005228491E+02  0.46498639785E+02  0.00000000000E+00 0. -1.
        -13    1    3    3    0    0  0.24631444307E+02 -0.64641563426E+01 -0.32650139830E+02  0.41406823071E+02  0.00000000000E+00 0.  1.
         13    1    3    3    0    0 -0.38135078599E+02  0.94386485024E+02 -0.19710792543E+03  0.22184369958E+03  0.00000000000E+00 0. -1.
          3    1    1    2  501    0  0.74440523506E+01 -0.30775608327E+02  0.18278874956E+02  0.36560487592E+02  0.00000000000E+00 0. -1.
<scales pt_clust_5="13000.00000" pt_clust_6="13000.00000" pt_clust_7="13000.00000" pt_clust_8="13000.00000" pt_clust_9="31.66310"></scales>
<clustering>
<clus scale="   31.663">  1  9  2 -1</clus>
<clus scale="   80.888">  5  6 -1 -1</clus>
<clus scale="   92.733">  7  8 -1 -1</clus>
<clus scale="  116.183">  1  5  2 -1</clus>
<clus scale="   31.663">  1  5  2 -1</clus>
</clustering>
</event>
<event>
 9    2  0.1654290E-004  0.1215649E+03  0.7546771E-02  0.1244570E+00
         21   -1    0    0  501  502  0.00000000000E+00  0.00000000000E+00  0.32939554024E+03  0.32939554024E+03  0.00000000000E+00 0.  1.
         -3   -1    0    0    0  501 -0.00000000000E+00 -0.00000000000E+00 -0.12042234792E+03  0.12042234792E+03  0.00000000000E+00 0.  1.
         24    2    1    2    0    0  0.59647082061E+02  0.50256487591E+02 -0.66903493208E+02  0.12932824955E+03  0.78525344857E+02 0.  0.
         23    2    1    2    0    0 -0.86441908066E+02 -0.42301221314E+02  0.20486845335E+03  0.24417831573E+03  0.91598962337E+02 0.  0.
        -13    1    3    3    0    0 -0.15226848190E+02  0.28812418382E+02 -0.16191548936E+02  0.36389265117E+02  0.00000000000E+00 0.  1.
         14    1    3    3    0    0  0.74873930251E+02  0.21444069209E+02 -0.50711944273E+02  0.92938984433E+02  0.00000000000E+00 0. -1.
        -11    1    4    4    0    0 -0.33401936094E+02 -0.24799859758E+02  0.17687750734E+03  0.18170408631E+03  0.00000000000E+00 0.  1.
         11    1    4    4    0    0 -0.53039971972E+02 -0.17501361556E+02  0.27990946005E+02  0.62474229418E+02  0.00000000000E+00 0. -1.
         -4    1    1    2    0  502  0.26794826005E+02 -0.79552662767E+01  0.71008232184E+02  0.76311322882E+02  0.00000000000E+00 0.  1.
<scales pt_clust_5="13000.00000" pt_clust_6="13000.00000" pt_clust_7="13000.00000" pt_clust_8="13000.00000" pt_clust_9="27.95083"></scales>
<clustering>
<clus scale="   27.951">  1  9  2 -1</clus>
<clus scale="   78.525">  5  6 -1 -1</clus>
<clus scale="   91.599">  7  8 -1 -1</clus>
<clus scale="  112.044">  2  5  1 -1</clus>
<clus scale="   27.951">  1  5  2 -1</clus>
</clustering>
</event>
<event>
 9    2  0.1654290E-004  0.1358523E+03  0.7546771E-02  0.1235184E+00
          2   -1    0    0  502    0 -0.00000000000E+00  0.00000000000E+00  0.21256767751E+03  0.21256767751E+03  0.00000000000E+00 0. -1.
         21   -1    0    0  501  502  0.00000000000E+00 -0.00000000000E+00 -0.24073344446E+03  0.24073344446E+03  0.00000000000E+00 0. -1.
         24    2    1    2    0    0  0.10426954056E+02 -0.30292384999E+02  0.93407746713E+02  0.13476720336E+03  0.91710642762E+02 0.  0.
         23    2    1    2    0    0 -0.72636772816E+02 -0.52851336452E+02  0.33363243631E+02  0.13201759566E+03  0.90808452289E+02 0.  0.
        -13    1    3    3    0    0  0.22954237400E+02 -0.12223192286E+02 -0.10877699762E+02  0.28189143236E+02  0.00000000000E+00 0.  1.
         14    1    3    3    0    0 -0.12527283344E+02 -0.18069192713E+02  0.10428544648E+03  0.10657806012E+03  0.00000000000E+00 0. -1.
        -11    1    4    4    0    0 -0.37433769612E+02 -0.71717568633E+02  0.42003874767E+02  0.91153838392E+02  0.00000000000E+00 0. -1.
         11    1    4    4    0    0 -0.35203003203E+02  0.18866232181E+02 -0.86406311367E+01  0.40863757263E+02  0.00000000000E+00 0.  1.
          1    1    1    2  501    0  0.62209818759E+02  0.83143721451E+02 -0.15493675729E+03  0.18651632295E+03  0.00000000000E+00 0. -1.
<scales pt_clust_5="13000.00000" pt_clust_6="13000.00000" pt_clust_7="13000.00000" pt_clust_8="13000.00000" pt_clust_9="101.04299"></scales>
<clustering>
<clus scale="   90.808">  7  8 -1 -1</clus>
<clus scale="   91.711">  5  6 -1 -1</clus>
<clus scale="   97.145">  1  5  2 -1</clus>
<clus scale="  101.043">  2  9  1 -1</clus>
<clus scale="  101.043">  2  5  1 -1</clus>
</clustering>
</event>
<event>
 9    2  0.1654290E-004  0.2257556E+03  0.7546771E-02  0.1158002E+00
         21   -1    0    0  501  502  0.00000000000E+00  0.00000000000E+00  0.31320861334E+03  0.31320861334E+03  0.00000000000E+00 0. -1.
          2   -1    0    0  502    0 -0.00000000000E+00 -0.00000000000E+00 -0.26348482264E+03  0.26348482264E+03  0.00000000000E+00 0. -1.
         24    2    1    2    0    0  0.68328345538E+02 -0.45315262924E+02  0.57962953059E+02  0.12832504754E+03  0.79908560491E+02 0.  0.
         23    2    1    2    0    0 -0.21809584707E+03 -0.65930316363E+02  0.55885204981E+02  0.25109239418E+03  0.89507704432E+02 0.  0.
        -11    1    3    3    0    0  0.71311711854E+01  0.19906090810E+02 -0.10543187747E+01  0.21171151170E+02  0.00000000000E+00 0.  1.
         12    1    3    3    0    0  0.61197174353E+02 -0.65221353733E+02  0.59017271833E+02  0.10715389637E+03  0.00000000000E+00 0. -1.
        -13    1    4    4    0    0 -0.13267893353E+03 -0.64856841692E+02  0.71779989717E+02  0.16420254639E+03  0.00000000000E+00 0. -1.
         13    1    4    4    0    0 -0.85416913545E+02 -0.10734746708E+01 -0.15894784736E+02  0.86889847791E+02  0.00000000000E+00 0.  1.
          1    1    1    2  501    0  0.14976750153E+03  0.11124557929E+03 -0.64124367346E+02  0.19727599427E+03  0.00000000000E+00 0. -1.
<scales pt_clust_5="13000.00000" pt_clust_6="13000.00000" pt_clust_7="13000.00000" pt_clust_8="13000.00000" pt_clust_9="207.25348"></scales>
<clustering>
<clus scale="   79.909">  5  6 -1 -1</clus>
<clus scale="   89.508">  7  8 -1 -1</clus>
<clus scale="  114.489">  2  5  1 -1</clus>
<clus scale="  207.253">  1  9  2 -1</clus>
<clus scale="  207.253">  1  5  2 -1</clus>
</clustering>
</event>
<event>
 9    2  0.1654290E-004  0.1419907E+03  0.7546771E-02  0.1235077E+00
         21   -1    0    0  501  502  0.00000000000E+00  0.00000000000E+00  0.44772071450E+02  0.44772071450E+02  0.00000000000E+00 0.  1.
          2   -1    0    0  502    0 -0.00000000000E+00 -0.00000000000E+00 -0.91932898077E+03  0.91932898077E+03  0.00000000000E+00 0. -1.
         24    2    1    2    0    0  0.22878161330E+01 -0.22128788016E+02 -0.43754426277E+02  0.95839459847E+02  0.82315459564E+02 0.  0.
         23    2    1    2    0    0 -0.64444953184E+01  0.12009111975E+03 -0.43554169051E+03  0.46102088894E+03  0.91543909164E+02 0.  0.
        -11    1    3    3    0    0  0.10766074377E+02 -0.41254379014E+02  0.48624689652E+01  0.42912419528E+02  0.00000000000E+00 0.  1.
         12    1    3    3    0    0 -0.84782582437E+01  0.19125590998E+02 -0.48616895243E+02  0.52927040319E+02  0.00000000000E+00 0. -1.
        -11    1    4    4    0    0 -0.48018819438E+02  0.61926880039E+02 -0.19763523055E+03  0.21260392716E+03  0.00000000000E+00 0.  1.
         11    1    4    4    0    0  0.41574324119E+02  0.58164239707E+02 -0.23790645996E+03  0.24841696177E+03  0.00000000000E+00 0. -1.
          1    1    1    2  501    0  0.41566791854E+01 -0.97962331730E+02 -0.39526079254E+03  0.40724070344E+03  0.00000000000E+00 0. -1.
<scales pt_clust_5="13000.00000" pt_clust_6="13000.00000" pt_clust_7="13000.00000" pt_clust_8="13000.00000" pt_clust_9="108.54068"></scales>
<clustering>
<clus scale="   82.315">  5  6 -1 -1</clus>
<clus scale="   85.269">  2  5  1 -1</clus>
<clus scale="   91.544">  7  8 -1 -1</clus>
<clus scale="  108.541">  1  9  2 -1</clus>
<clus scale="  108.541">  1  5  2 -1</clus>
</clustering>
</event>
<event>
 9    2  0.1654290E-004  0.9211530E+02  0.7546771E-02  0.1304109E+00
         21   -1    0    0  501  502  0.00000000000E+00  0.00000000000E+00  0.53097623504E+02  0.53097623504E+02  0.00000000000E+00 0. -1.
          4   -1    0    0  502    0 -0.00000000000E+00 -0.00000000000E+00 -0.37690897035E+03  0.37690897035E+03  0.00000000000E+00 0. -1.
         24    2    1    2    0    0 -0.70833091307E+01 -0.23713292395E+02 -0.25881254360E+03  0.27219591840E+03  0.80586548270E+02 0.  0.
         23    2    1    2    0    0 -0.12530380792E+02 -0.17413042647E+02 -0.62201119121E+02  0.11216092954E+03  0.90834301882E+02 0.  0.
        -13    1    3    3    0    0 -0.42184064619E+02 -0.26652882661E+01 -0.10947394821E+03  0.11735051941E+03  0.00000000000E+00 0.  1.
         14    1    3    3    0    0  0.35100755488E+02 -0.21048004129E+02 -0.14933859539E+03  0.15484539898E+03  0.00000000000E+00 0. -1.
        -11    1    4    4    0    0 -0.20212925818E+02  0.31544179699E+02 -0.72410726791E+01  0.38157971337E+02  0.00000000000E+00 0.  1.
         11    1    4    4    0    0  0.76825450263E+01 -0.48957222346E+02 -0.54960046442E+02  0.74002958203E+02  0.00000000000E+00 0. -1.
          3    1    1    2  501    0  0.19613689922E+02  0.41126335042E+02 -0.27976841293E+01  0.45649745923E+02  0.00000000000E+00 0. -1.
<scales pt_clust_5="13000.00000" pt_clust_6="13000.00000" pt_clust_7="13000.00000" pt_clust_8="13000.00000" pt_clust_9="45.56394"></scales>
<clustering>
<clus scale="   45.564">  1  9  2 -1</clus>
<clus scale="   80.587">  5  6 -1 -1</clus>
<clus scale="   82.028">  2  5  1 -1</clus>
<clus scale="   90.834">  7  8 -1 -1</clus>
<clus scale="   45.564">  1  5  2 -1</clus>
</clustering>
</event>
<event>
 9    2  0.1654290E-004  0.9508499E+02  0.7546771E-02  0.1295341E+00
          2   -1    0    0  502    0 -0.00000000000E+00  0.00000000000E+00  0.50922777428E+03  0.50922777428E+03  0.00000000000E+00 0. -1.
         21   -1    0    0  501  502  0.00000000000E+00 -0.00000000000E+00 -0.43245859351E+02  0.43245859351E+02  0.00000000000E+00 0. -1.
         23    2    1    2    0    0 -0.12504395869E+02 -0.40304893712E+02  0.34626535112E+03  0.36065773758E+03  0.91615860615E+02 0.  0.
         24    2    1    2    0    0 -0.16900389672E+02 -0.13749715949E+02  0.83814331720E+02  0.12057326480E+03  0.83895125743E+02 0.  0.
        -13    1    4    4    0    0  0.24014588069E+02  0.72512928496E+01  0.13176644227E+00  0.25085833662E+02  0.00000000000E+00 0.  1.
         14    1    4    4    0    0 -0.40914977742E+02 -0.21001008799E+02  0.83682565278E+02  0.95487431139E+02  0.00000000000E+00 0. -1.
        -13    1    3    3    0    0 -0.23048775864E+02  0.24517222783E+02  0.14880613518E+03  0.15256344959E+03  0.00000000000E+00 0.  1.
         13    1    3    3    0    0  0.10544379995E+02 -0.64822116496E+02  0.19745921594E+03  0.20809428800E+03  0.00000000000E+00 0. -1.
          1    1    1    2  501    0  0.29404785541E+02  0.54054609661E+02  0.35902232088E+02  0.71242631249E+02  0.00000000000E+00 0. -1.
<scales pt_clust_5="13000.00000" pt_clust_6="13000.00000" pt_clust_7="13000.00000" pt_clust_8="13000.00000" pt_clust_9="61.53489"></scales>
<clustering>
<clus scale="   61.535">  2  9  1 -1</clus>
<clus scale="   83.895">  5  6 -1 -1</clus>
<clus scale="   87.670">  2  5  1 -1</clus>
<clus scale="   91.616">  7  8 -1 -1</clus>
<clus scale="   61.535">  2  5  1 -1</clus>
</clustering>
</event>
<event>
 9    2  0.1654290E-004  0.1522703E+03  0.7546771E-02  0.1199896E+00
          2   -1    0    0  502    0 -0.00000000000E+00  0.00000000000E+00  0.64970885250E+03  0.64970885250E+03  0.00000000000E+00 0. -1.
         21   -1    0    0  501  502  0.00000000000E+00 -0.00000000000E+00 -0.86546465209E+02  0.86546465209E+02  0.00000000000E+00 0. -1.
         24    2    1    2    0    0 -0.79000064613E+02  0.80256013513E+02  0.22632624160E+03  0.26502660658E+03  0.79583268608E+02 0.  0.
         23    2    1    2    0    0  0.87209158540E+02 -0.12550595892E+03  0.56357746288E+02  0.18700506800E+03  0.91855956992E+02 0.  0.
        -13    1    3    3    0    0 -0.24754722237E+01  0.53066525663E+02  0.12000288987E+03  0.13123596186E+03  0.00000000000E+00 0.  1.
         14    1    3    3    0    0 -0.76524592389E+02  0.27189487850E+02  0.10632335173E+03  0.13379064472E+03  0.00000000000E+00 0. -1.
        -11    1    4    4    0    0  0.36314470598E+02  0.63493754891E+01  0.14321870905E+02  0.39549605942E+02  0.00000000000E+00 0.  1.
         11    1    4    4    0    0  0.50894687942E+02 -0.13185533441E+03  0.42035875382E+02  0.14745546206E+03  0.00000000000E+00 0. -1.
          1    1    1    2  501    0 -0.82090939274E+01  0.45249945407E+02  0.28047839940E+03  0.28422364313E+03  0.00000000000E+00 0. -1.
<scales pt_clust_5="13000.00000" pt_clust_6="13000.00000" pt_clust_7="13000.00000" pt_clust_8="13000.00000" pt_clust_9="45.98857"></scales>
<clustering>
<clus scale="   45.989">  2  9  1 -1</clus>
<clus scale="   79.583">  5  6 -1 -1</clus>
<clus scale="   91.856">  7  8 -1 -1</clus>
<clus scale="  145.197">  1  5  2 -1</clus>
<clus scale="   45.989">  2  5  1 -1</clus>
</clustering>
</event>
<event>
 9    2  0.1654290E-004  0.1253182E+03  0.7546771E-02  0.1235548E+00
          2   -1    0    0  502    0 -0.00000000000E+00  0.00000000000E+00  0.58362655935E+03  0.58362655935E+03  0.00000000000E+00 0. -1.
         21   -1    0    0  501  502  0.00000000000E+00 -0.00000000000E+00 -0.15661066662E+03  0.15661066662E+03  0.00000000000E+00 0. -1.
         24    2    1    2    0    0 -0.84376218069E+02  0.39327344274E+02  0.72810126850E+02  0.14279705689E+03  0.80147980016E+02 0.  0.
         23    2    1    2    0    0 -0.66959588207E+02 -0.70638859272E+02 -0.72827984756E+02  0.14330278742E+03  0.75883717805E+02 0.  0.
        -13    1    3    3    0    0 -0.49987042432E+02  0.62888573240E+02  0.39969620825E+02  0.89728744804E+02  0.00000000000E+00 0.  1.
         14    1    3    3    0    0 -0.34389175637E+02 -0.23561228967E+02  0.32840506025E+02  0.53068312083E+02  0.00000000000E+00 0. -1.
        -13    1    4    4    0    0 -0.59977939153E+02 -0.36318517542E+02 -0.81209018656E+02  0.10729069211E+03  0.00000000000E+00 0. -1.
         13    1    4    4    0    0 -0.69816490540E+01 -0.34320341729E+02  0.83810339008E+01  0.36012095318E+02  0.00000000000E+00 0.  1.
          1    1    1    2  501    0  0.15133580628E+03  0.31311514998E+02  0.42703375064E+03  0.45413738165E+03  0.00000000000E+00 0. -1.
<scales pt_clust_5="13000.00000" pt_clust_6="13000.00000" pt_clust_7="13000.00000" pt_clust_8="13000.00000" pt_clust_9="99.73120"></scales>
<clustering>
<clus scale="   75.884">  7  8 -1 -1</clus>
<clus scale="   80.148">  5  6 -1 -1</clus>
<clus scale="  122.840">  1  5  2 -1</clus>
<clus scale="   99.731">  2  9  1 -1</clus>
<clus scale="   99.731">  2  5  1 -1</clus>
</clustering>
</event>
<event>
 9    2  0.2291741E-004  0.2107312E+03  0.7546771E-02  0.1160077E+00
         21   -1    0    0  501  502  0.00000000000E+00  0.00000000000E+00  0.35330011634E+03  0.35330011634E+03  0.00000000000E+00 0.  1.
          2   -1    0    0  502    0 -0.00000000000E+00 -0.00000000000E+00 -0.47158767951E+03  0.47158767951E+03  0.00000000000E+00 0. -1.
         24    2    1    2    0    0 -0.10617756280E+03 -0.49409441539E+01 -0.83803098178E+02  0.15814304828E+03  0.81781273426E+02 0.  0.
         23    2    1    2    0    0  0.39839530584E+02  0.18849632922E+03  0.24570637307E+03  0.32527700439E+03  0.91189108406E+02 0.  0.
        -11    1    3    3    0    0 -0.11104340653E+03  0.16362757350E+02 -0.69180252631E+02  0.13184947977E+03  0.00000000000E+00 0.  1.
         12    1    3    3    0    0  0.48658437281E+01 -0.21303701504E+02 -0.14622845547E+02  0.26293568508E+02  0.00000000000E+00 0. -1.
        -11    1    4    4    0    0  0.56359445998E+02  0.17434939251E+03  0.24146752026E+03  0.30311822968E+03  0.00000000000E+00 0.  1.
         11    1    4    4    0    0 -0.16519915414E+02  0.14146936709E+02  0.42388528048E+01  0.22158774710E+02  0.00000000000E+00 0. -1.
          1    1    1    2  501    0  0.66338032220E+02 -0.18355538506E+03 -0.28019083806E+03  0.34146774319E+03  0.00000000000E+00 0. -1.
<scales pt_clust_5="13000.00000" pt_clust_6="13000.00000" pt_clust_7="13000.00000" pt_clust_8="13000.00000" pt_clust_9="189.97948"></scales>
<clustering>
<clus scale="   81.781">  5  6 -1 -1</clus>
<clus scale="   91.189">  7  8 -1 -1</clus>
<clus scale="  134.113">  2  5  1 -1</clus>
<clus scale="  189.979">  1  9  2 -1</clus>
<clus scale="  189.979">  1  5  2 -1</clus>
</clustering>
</event>
<event>
 9    2  0.1654290E-004  0.2881390E+03  0.7546771E-02  0.1122674E+00
          2   -1    0    0  502    0 -0.00000000000E+00  0.00000000000E+00  0.12239173929E+04  0.12239173929E+04  0.00000000000E+00 0. -1.
         21   -1    0    0  501  502  0.00000000000E+00 -0.00000000000E+00 -0.16998636833E+03  0.16998636833E+03  0.00000000000E+00 0. -1.
         24    2    1    2    0    0  0.44332663315E+02  0.81561547738E+02  0.88226944586E+02  0.15633947775E+03  0.89668096038E+02 0.  0.
         23    2    1    2    0    0  0.26092289010E+03  0.59839414846E+01  0.73027478485E+02  0.29008516474E+03  0.10343997318E+03 0.  0.
        -13    1    3    3    0    0  0.10897262930E+02  0.36508577143E+02 -0.13289300017E+02  0.40351357341E+02  0.00000000000E+00 0.  1.
         14    1    3    3    0    0  0.33435400384E+02  0.45052970595E+02  0.10151624460E+03  0.11598812041E+03  0.00000000000E+00 0. -1.
        -13    1    4    4    0    0  0.45276351042E+02  0.50021259836E+00  0.58367615315E+02  0.73871352322E+02  0.00000000000E+00 0.  1.
         13    1    4    4    0    0  0.21564653906E+03  0.54837288862E+01  0.14659863170E+02  0.21621381242E+03  0.00000000000E+00 0. -1.
          1    1    1    2  501    0 -0.30525555342E+03 -0.87545489222E+02  0.89267660149E+03  0.94747911873E+03  0.00000000000E+00 0. -1.
<scales pt_clust_5="13000.00000" pt_clust_6="13000.00000" pt_clust_7="13000.00000" pt_clust_8="13000.00000" pt_clust_9="268.93184"></scales>
<clustering>
<clus scale="   89.668">  5  6 -1 -1</clus>
<clus scale="  103.440">  7  8 -1 -1</clus>
<clus scale="  129.066">  1  5  2 -1</clus>
<clus scale="  268.932">  2  9  1 -1</clus>
<clus scale="  268.932">  2  5  1 -1</clus>
</clustering>
</event>
<event>
 9    2  0.1654290E-004  0.1308017E+03  0.7546771E-02  0.1244650E+00
         -3   -1    0    0    0  501 -0.00000000000E+00  0.00000000000E+00  0.41966981849E+03  0.41966981849E+03  0.00000000000E+00 0.  1.
         21   -1    0    0  501  502  0.00000000000E+00 -0.00000000000E+00 -0.11040076305E+03  0.11040076305E+03  0.00000000000E+00 0.  1.
         24    2    1    2    0    0  0.21442408611E+02  0.28433651435E+02  0.28110873871E+03  0.29510356863E+03  0.82436301589E+02 0.  0.
         23    2    1    2    0    0 -0.89796945448E+02  0.37934721226E+02 -0.81282122127E+01  0.13301623591E+03  0.90137210385E+02 0.  0.
        -13    1    3    3    0    0 -0.81922930651E+01  0.42747088333E+02  0.77791706854E+02  0.89140209120E+02  0.00000000000E+00 0.  1.
         14    1    3    3    0    0  0.29634701676E+02 -0.14313436898E+02  0.20331703185E+03  0.20596335951E+03  0.00000000000E+00 0. -1.
        -13    1    4    4    0    0 -0.27272649480E+02 -0.26228769896E+02  0.14651853534E+02  0.40576133279E+02  0.00000000000E+00 0. -1.
         13    1    4    4    0    0 -0.62524295968E+02  0.64163491122E+02 -0.22780065747E+02  0.92440102632E+02  0.00000000000E+00 0.  1.
         -4    1    1    2    0  502  0.68354536838E+02 -0.66368372662E+02  0.36288528948E+02  0.10195077699E+03  0.00000000000E+00 0.  1.
<scales pt_clust_5="13000.00000" pt_clust_6="13000.00000" pt_clust_7="13000.00000" pt_clust_8="13000.00000" pt_clust_9="94.78594"></scales>
<clustering>
<clus scale="   82.436">  5  6 -1 -1</clus>
<clus scale="   89.800">  1  5  2 -1</clus>
<clus scale="   90.137">  7  8 -1 -1</clus>
<clus scale="   94.786">  2  9  1 -1</clus>
<clus scale="   94.786">  2  5  1 -1</clus>
</clustering>
</event>
<event>
 9    2  0.1654290E-004  0.1137926E+03  0.7546771E-02  0.1257014E+00
         21   -1    0    0  501  502  0.00000000000E+00  0.00000000000E+00  0.56128301102E+02  0.56128301102E+02  0.00000000000E+00 0. -1.
          2   -1    0    0  502    0 -0.00000000000E+00 -0.00000000000E+00 -0.32257222923E+03  0.32257222923E+03  0.00000000000E+00 0. -1.
         24    2    1    2    0    0 -0.24432874902E+02  0.58217372580E+02 -0.18566961840E+03  0.21312420945E+03  0.83441558060E+02 0.  0.
         23    2    1    2    0    0  0.10685160353E+02 -0.76022182518E+02 -0.57618268166E+02  0.13329299433E+03  0.92485742816E+02 0.  0.
        -11    1    3    3    0    0  0.16018009191E+02  0.26256338814E+02 -0.13839379066E+02  0.33726849234E+02  0.00000000000E+00 0.  1.
         12    1    3    3    0    0 -0.40450884094E+02  0.31961033766E+02 -0.17183023934E+03  0.17939736022E+03  0.00000000000E+00 0. -1.
        -13    1    4    4    0    0 -0.23900866838E+02 -0.81417437912E+02 -0.45274257063E+02  0.96175927261E+02  0.00000000000E+00 0. -1.
         13    1    4    4    0    0  0.34586027192E+02  0.53952553942E+01 -0.12344011103E+02  0.37117067069E+02  0.00000000000E+00 0.  1.
          1    1    1    2  501    0  0.13747714549E+02  0.17804809938E+02 -0.23156041558E+02  0.32283326546E+02  0.00000000000E+00 0. -1.
<scales pt_clust_5="13000.00000" pt_clust_6="13000.00000" pt_clust_7="13000.00000" pt_clust_8="13000.00000" pt_clust_9="22.49470"></scales>
<clustering>
<clus scale="   22.495">  1  9  2 -1</clus>
<clus scale="   83.442">  5  6 -1 -1</clus>
<clus scale="   92.486">  7  8 -1 -1</clus>
<clus scale="  106.572">  2  5  1 -1</clus>
<clus scale="   22.495">  1  5  2 -1</clus>
</clustering>
</event>
<event>
 9    2  0.1654290E-004  0.8215875E+02  0.7546771E-02  0.1327734E+00
          2   -1    0    0  502    0 -0.00000000000E+00  0.00000000000E+00  0.30737089281E+03  0.30737089281E+03  0.00000000000E+00 0. -1.
         21   -1    0    0  501  502  0.00000000000E+00 -0.00000000000E+00 -0.87715607411E+02  0.87715607411E+02  0.00000000000E+00 0.  1.
         23    2    1    2    0    0  0.37963777113E+01  0.48808056162E+01  0.12313003385E+03  0.14379782002E+03  0.74017383488E+02 0.  0.
         24    2    1    2    0    0 -0.28399719061E+02 -0.71020314007E+02 -0.21995323943E+02  0.11335070215E+03  0.80710336123E+02 0.  0.
        -13    1    4    4    0    0 -0.11829991916E+01 -0.72602518832E+02 -0.37775367995E+02  0.81850495753E+02  0.00000000000E+00 0.  1.
         14    1    4    4    0    0 -0.27216719869E+02  0.15822048245E+01  0.15780044052E+02  0.31500206393E+02  0.00000000000E+00 0. -1.
        -13    1    3    3    0    0  0.24915850572E+02  0.31541801227E+02  0.69734259810E+02  0.80489451642E+02  0.00000000000E+00 0.  1.
         13    1    3    3    0    0 -0.21119472861E+02 -0.26660995611E+02  0.53395774044E+02  0.63308368378E+02  0.00000000000E+00 0. -1.
          1    1    1    2  501    0  0.24603341350E+02  0.66139508391E+02  0.11852057548E+03  0.13793797805E+03  0.00000000000E+00 0. -1.
<scales pt_clust_5="13000.00000" pt_clust_6="13000.00000" pt_clust_7="13000.00000" pt_clust_8="13000.00000" pt_clust_9="70.56744"></scales>
<clustering>
<clus scale="   70.567">  2  9  1 -1</clus>
<clus scale="   74.017">  7  8 -1 -1</clus>
<clus scale="   75.594">  1  7  2 -1</clus>
<clus scale="   80.710">  5  6 -1 -1</clus>
<clus scale="   70.567">  2  5  1 -1</clus>
</clustering>
</event>
<event>
 9    2  0.1654290E-004  0.9964660E+02  0.7546771E-02  0.1288436E+00
         21   -1    0    0  501  502  0.00000000000E+00  0.00000000000E+00  0.12416793832E+03  0.12416793832E+03  0.00000000000E+00 0. -1.
          2   -1    0    0  502    0 -0.00000000000E+00 -0.00000000000E+00 -0.23983731039E+03  0.23983731039E+03  0.00000000000E+00 0. -1.
         24    2    1    2    0    0  0.24659658733E+02 -0.30690896898E+02 -0.16603024375E+03  0.18800780800E+03  0.78935822705E+02 0.  0.
         23    2    1    2    0    0  0.16444586202E+02  0.35667044833E+02 -0.11439565811E+02  0.10160916828E+03  0.93010735457E+02 0.  0.
        -11    1    3    3    0    0 -0.28120365550E+02 -0.87973675776E+01 -0.74388112477E+02  0.80010873716E+02  0.00000000000E+00 0.  1.
         12    1    3    3    0    0  0.52780024283E+02 -0.21893529321E+02 -0.91642131278E+02  0.10799693428E+03  0.00000000000E+00 0. -1.
        -11    1    4    4    0    0 -0.36699140409E+02  0.30171445390E+02 -0.65495816489E+01  0.47958732714E+02  0.00000000000E+00 0.  1.
         11    1    4    4    0    0  0.53143726612E+02  0.54955994424E+01 -0.48899841619E+01  0.53650435567E+02  0.00000000000E+00 0. -1.
          1    1    1    2  501    0 -0.41104244935E+02 -0.49761479345E+01  0.61800437502E+02  0.74388272432E+02  0.00000000000E+00 0. -1.
<scales pt_clust_5="13000.00000" pt_clust_6="13000.00000" pt_clust_7="13000.00000" pt_clust_8="13000.00000" pt_clust_9="41.40436"></scales>
<clustering>
<clus scale="   41.404">  1  9  2 -1</clus>
<clus scale="   78.936">  5  6 -1 -1</clus>
<clus scale="   86.656">  2  5  1 -1</clus>
<clus scale="   93.011">  7  8 -1 -1</clus>
<clus scale="   41.404">  1  5  2 -1</clus>
</clustering>
</event>
<event>
 9    2  0.1654290E-004  0.1458182E+03  0.7546771E-02  0.1208448E+00
         21   -1    0    0  501  502  0.00000000000E+00  0.00000000000E+00  0.35881326036E+03  0.35881326036E+03  0.00000000000E+00 0. -1.
          2   -1    0    0  502    0 -0.00000000000E+00 -0.00000000000E+00 -0.95756751886E+02  0.95756751886E+02  0.00000000000E+00 0. -1.
         24    2    1    2    0    0 -0.10127201565E+03 -0.16568665948E+02  0.94507074310E+02  0.16176450381E+03  0.81887885255E+02 0.  0.
         23    2    1    2    0    0  0.10424775512E+03  0.79164297835E+02  0.16328920746E+03  0.22991879966E+03  0.95208763578E+02 0.  0.
        -13    1    3    3    0    0 -0.48469334803E+02  0.32156550254E+02  0.31208819937E+02  0.66009927908E+02  0.00000000000E+00 0.  1.
         14    1    3    3    0    0 -0.52802680847E+02 -0.48725216203E+02  0.63298254373E+02  0.95754575898E+02  0.00000000000E+00 0. -1.
        -13    1    4    4    0    0  0.41007824211E+02  0.59464097057E+01  0.15666406568E+01  0.41466321249E+02  0.00000000000E+00 0.  1.
         13    1    4    4    0    0  0.63239930909E+02  0.73217888129E+02  0.16172256681E+03  0.18845247841E+03  0.00000000000E+00 0. -1.
          1    1    1    2  501    0 -0.29757394700E+01 -0.62595631886E+02  0.52602266985E+01  0.62886708783E+02  0.00000000000E+00 0. -1.
<scales pt_clust_5="13000.00000" pt_clust_6="13000.00000" pt_clust_7="13000.00000" pt_clust_8="13000.00000" pt_clust_9="62.66636"></scales>
<clustering>
<clus scale="   62.666">  1  9  2 -1</clus>
<clus scale="   81.888">  5  6 -1 -1</clus>
<clus scale="   95.209">  7  8 -1 -1</clus>
<clus scale="  137.491">  2  5  1 -1</clus>
<clus scale="   62.666">  1  5  2 -1</clus>
</clustering>
</event>
<event>
 9    2  0.1654290E-004  0.1607836E+03  0.7546771E-02  0.1213373E+00
         21   -1    0    0  501  502  0.00000000000E+00  0.00000000000E+00  0.63256088812E+03  0.63256088812E+03  0.00000000000E+00 0.  1.
         -1   -1    0    0    0  501 -0.00000000000E+00 -0.00000000000E+00 -0.63971214135E+02  0.63971214135E+02  0.00000000000E+00 0.  1.
         24    2    1    2    0    0 -0.31466726326E+02 -0.29817260622E+02  0.96586523642E+02  0.13362394697E+03  0.81530232170E+02 0.  0.
         23    2    1    2    0    0  0.17125089198E+02  0.15288644278E+03  0.23074515695E+03  0.29169398617E+03  0.90413057952E+02 0.  0.
        -11    1    3    3    0    0 -0.88299875300E+01 -0.54715636787E+02  0.76389821408E+02  0.94377827923E+02  0.00000000000E+00 0.  1.
         12    1    3    3    0    0 -0.22636738796E+02  0.24898376165E+02  0.20196702234E+02  0.39246119045E+02  0.00000000000E+00 0. -1.
        -11    1    4    4    0    0 -0.33690557995E+02  0.84193127024E+02  0.14211572434E+03  0.16858355626E+03  0.00000000000E+00 0.  1.
         11    1    4    4    0    0  0.50815647193E+02  0.68693315753E+02  0.88629432609E+02  0.12311042991E+03  0.00000000000E+00 0. -1.
         -2    1    1    2    0  502  0.14341637129E+02 -0.12306918216E+03  0.24125799340E+03  0.27121416912E+03  0.00000000000E+00 0.  1.
<scales pt_clust_5="13000.00000" pt_clust_6="13000.00000" pt_clust_7="13000.00000" pt_clust_8="13000.00000" pt_clust_9="132.95430"></scales>
<clustering>
<clus scale="   81.530">  5  6 -1 -1</clus>
<clus scale="   90.413">  7  8 -1 -1</clus>
<clus scale="   92.339">  2  5  1 -1</clus>
<clus scale="  132.954">  1  9  2 -1</clus>
<clus scale="  132.954">  1  5  2 -1</clus>
</clustering>
</event>
<event>
 9    2  0.1654290E-004  0.3625281E+03  0.7546771E-02  0.1093676E+00
          2   -1    0    0  502    0 -0.00000000000E+00  0.00000000000E+00  0.11205921621E+04  0.11205921621E+04  0.00000000000E+00 0. -1.
         21   -1    0    0  501  502  0.00000000000E+00 -0.00000000000E+00 -0.22082878547E+03  0.22082878547E+03  0.00000000000E+00 0. -1.
         24    2    1    2    0    0  0.23493651850E+02  0.10765230333E+03  0.25910534840E+03  0.29262569261E+03  0.79707241299E+02 0.  0.
         23    2    1    2    0    0  0.34253058301E+03 -0.66352620276E+02  0.66830490567E+02  0.36691737198E+03  0.91826863600E+02 0.  0.
        -11    1    3    3    0    0 -0.89225531942E+01  0.59732532529E+02  0.59407480724E+02  0.84716209569E+02  0.00000000000E+00 0.  1.
         12    1    3    3    0    0  0.32416205044E+02  0.47919770800E+02  0.19969786768E+03  0.20790948304E+03  0.00000000000E+00 0. -1.
        -11    1    4    4    0    0  0.12791037685E+03 -0.70288370769E+02  0.21476749797E+02  0.14752210123E+03  0.00000000000E+00 0.  1.
         11    1    4    4    0    0  0.21462020616E+03  0.39357504935E+01  0.45353740770E+02  0.21939527074E+03  0.00000000000E+00 0. -1.
          1    1    1    2  501    0 -0.36602423486E+03 -0.41299683054E+02  0.57382753763E+03  0.68187788295E+03  0.00000000000E+00 0. -1.
<scales pt_clust_5="13000.00000" pt_clust_6="13000.00000" pt_clust_7="13000.00000" pt_clust_8="13000.00000" pt_clust_9="350.70585"></scales>
<clustering>
<clus scale="   79.707">  5  6 -1 -1</clus>
<clus scale="   91.827">  7  8 -1 -1</clus>
<clus scale="  135.993">  1  5  2 -1</clus>
<clus scale="  350.706">  2  9  1 -1</clus>
<clus scale="  350.706">  2  5  1 -1</clus>
</clustering>
</event>
<event>
 9    2  0.1654290E-004  0.2339380E+03  0.7546771E-02  0.1160476E+00
         21   -1    0    0  501  502  0.00000000000E+00  0.00000000000E+00  0.41810981646E+03  0.41810981646E+03  0.00000000000E+00 0.  1.
          2   -1    0    0  502    0 -0.00000000000E+00 -0.00000000000E+00 -0.26416593824E+03  0.26416593824E+03  0.00000000000E+00 0. -1.
         24    2    1    2    0    0 -0.32745340643E+01 -0.51954675061E+02 -0.85854762627E+02  0.12962984750E+03  0.81992964713E+02 0.  0.
         23    2    1    2    0    0 -0.11672253102E+03  0.19805375135E+03  0.26526799997E+03  0.36187661204E+03  0.87966657672E+02 0.  0.
        -13    1    3    3    0    0 -0.29131778568E+02 -0.16147854967E+02 -0.77940604290E+02  0.84759374347E+02  0.00000000000E+00 0.  1.
         14    1    3    3    0    0  0.25857244504E+02 -0.35806820094E+02 -0.79141583369E+01  0.44870473151E+02  0.00000000000E+00 0. -1.
        -11    1    4    4    0    0 -0.61562593439E+02  0.13899460327E+03  0.22512178458E+03  0.27164180558E+03  0.00000000000E+00 0.  1.
         11    1    4    4    0    0 -0.55159937586E+02  0.59059148075E+02  0.40146215394E+02  0.90234806457E+02  0.00000000000E+00 0. -1.
          1    1    1    2  501    0  0.11999706509E+03 -0.14609907629E+03 -0.25469359123E+02  0.19076929516E+03  0.00000000000E+00 0. -1.
<scales pt_clust_5="13000.00000" pt_clust_6="13000.00000" pt_clust_7="13000.00000" pt_clust_8="13000.00000" pt_clust_9="216.76920"></scales>
<clustering>
<clus scale="   81.993">  5  6 -1 -1</clus>
<clus scale="   87.967">  7  8 -1 -1</clus>
<clus scale="   97.123">  2  5  1 -1</clus>
<clus scale="  216.769">  1  9  2 -1</clus>
<clus scale="  216.769">  1  5  2 -1</clus>
</clustering>
</event>
<event>
 9    2  0.1654290E-004  0.1561312E+03  0.7546771E-02  0.1194302E+00
         21   -1    0    0  501  502  0.00000000000E+00  0.00000000000E+00  0.44132410680E+02  0.44132410680E+02  0.00000000000E+00 0.  1.
          2   -1    0    0  502    0 -0.00000000000E+00 -0.00000000000E+00 -0.11908107273E+04  0.11908107273E+04  0.00000000000E+00 0. -1.
         24    2    1    2    0    0 -0.60572032045E+02  0.11154784745E+03 -0.91559000748E+03  0.92784280672E+03  0.80469365889E+02 0.  0.
         23    2    1    2    0    0  0.44899454896E+02 -0.13344788512E+03 -0.22491647167E+03  0.27947185132E+03  0.87708593433E+02 0.  0.
        -13    1    3    3    0    0  0.15646954879E+02  0.49098903149E+02 -0.29082011760E+03  0.29535041948E+03  0.00000000000E+00 0.  1.
         14    1    3    3    0    0 -0.76218986924E+02  0.62448944296E+02 -0.62476988988E+03  0.63249238724E+03  0.00000000000E+00 0. -1.
        -13    1    4    4    0    0  0.69061563558E+02 -0.83211950764E+02 -0.12701962143E+03  0.16681640369E+03  0.00000000000E+00 0.  1.
         13    1    4    4    0    0 -0.24162108662E+02 -0.50235934355E+02 -0.97896850241E+02  0.11265544764E+03  0.00000000000E+00 0. -1.
          1    1    1    2  501    0  0.15672577148E+02  0.21900037674E+02 -0.61718374422E+01  0.27628479907E+02  0.00000000000E+00 0. -1.
<scales pt_clust_5="13000.00000" pt_clust_6="13000.00000" pt_clust_7="13000.00000" pt_clust_8="13000.00000" pt_clust_9="26.93030"></scales>
<clustering>
<clus scale="   26.930">  1  9  2 -1</clus>
<clus scale="   80.469">  5  6 -1 -1</clus>
<clus scale="   87.709">  7  8 -1 -1</clus>
<clus scale="  152.182">  2  5  1 -1</clus>
<clus scale="   26.930">  1  5  2 -1</clus>
</clustering>
</event>
<event>
 9    2  0.1654290E-004  0.1009354E+03  0.7546771E-02  0.1284738E+00
         21   -1    0    0  501  502  0.00000000000E+00  0.00000000000E+00  0.22484765723E+02  0.22484765723E+02  0.00000000000E+00 0.  1.
          4   -1    0    0  502    0 -0.00000000000E+00 -0.00000000000E+00 -0.86669300678E+03  0.86669300678E+03  0.00000000000E+00 0. -1.
         24    2    1    2    0    0  0.17964906853E+02 -0.44289877180E+02 -0.55075354462E+03  0.55855658583E+03  0.79822688275E+02 0.  0.
         23    2    1    2    0    0 -0.34107084119E+02 -0.30084049481E+01 -0.15857788227E+03  0.18678290116E+03  0.92566536792E+02 0.  0.
        -11    1    3    3    0    0  0.14467572710E+02  0.20521728916E+02 -0.97585101089E+02  0.10076360440E+03  0.00000000000E+00 0.  1.
         12    1    3    3    0    0  0.34973341435E+01 -0.64811606096E+02 -0.45316844353E+03  0.45779298143E+03  0.00000000000E+00 0. -1.
        -13    1    4    4    0    0 -0.65788988423E+02  0.37446314728E+01 -0.98123099275E+02  0.11819625998E+03  0.00000000000E+00 0.  1.
         13    1    4    4    0    0  0.31681904304E+02 -0.67530364209E+01 -0.60454782992E+02  0.68586641176E+02  0.00000000000E+00 0. -1.
          3    1    1    2  501    0  0.16142177266E+02  0.47298282128E+02 -0.13487681417E+03  0.14383828551E+03  0.00000000000E+00 0. -1.
<scales pt_clust_5="13000.00000" pt_clust_6="13000.00000" pt_clust_7="13000.00000" pt_clust_8="13000.00000" pt_clust_9="49.97697"></scales>
<clustering>
<clus scale="   49.977">  1  9  2 -1</clus>
<clus scale="   79.823">  5  6 -1 -1</clus>
<clus scale="   89.393">  2  5  1 -1</clus>
<clus scale="   92.567">  7  8 -1 -1</clus>
<clus scale="   49.977">  1  5  2 -1</clus>
</clustering>
</event>
<event>
 9    2  0.1654290E-004  0.2976100E+03  0.7546771E-02  0.1086721E+00
          2   -1    0    0  502    0 -0.00000000000E+00  0.00000000000E+00  0.16405533384E+04  0.16405533384E+04  0.00000000000E+00 0. -1.
         21   -1    0    0  501  502  0.00000000000E+00 -0.00000000000E+00 -0.97995086125E+02  0.97995086125E+02  0.00000000000E+00 0. -1.
         24    2    1    2    0    0  0.31898246288E+03 -0.86870269461E+01  0.11044513831E+04  0.11526587110E+04  0.83570152644E+02 0.  0.
         23    2    1    2    0    0 -0.22004832232E+03 -0.77120820275E+02  0.34023090338E+03  0.42239458972E+03  0.91056228440E+02 0.  0.
        -11    1    3    3    0    0  0.16344042309E+03 -0.39828039061E+02  0.49048771851E+03  0.51853374683E+03  0.00000000000E+00 0.  1.
         12    1    3    3    0    0  0.15554203979E+03  0.31141012114E+02  0.61396366460E+03  0.63412496420E+03  0.00000000000E+00 0. -1.
        -11    1    4    4    0    0 -0.20516348670E+03 -0.57394120305E+02  0.33520598049E+03  0.39717652332E+03  0.00000000000E+00 0.  1.
         11    1    4    4    0    0 -0.14884835612E+02 -0.19726699970E+02  0.50249228906E+01  0.25218066400E+02  0.00000000000E+00 0. -1.
          1    1    1    2  501    0 -0.98934140564E+02  0.85807847221E+02  0.97875965762E+02  0.16349512374E+03  0.00000000000E+00 0. -1.
<scales pt_clust_5="13000.00000" pt_clust_6="13000.00000" pt_clust_7="13000.00000" pt_clust_8="13000.00000" pt_clust_9="130.96164"></scales>
<clustering>
<clus scale="   83.570">  5  6 -1 -1</clus>
<clus scale="   91.056">  7  8 -1 -1</clus>
<clus scale="  130.962">  2  9  1 -1</clus>
<clus scale="  295.406">  1  5  2 -1</clus>
<clus scale="  130.962">  2  5  1 -1</clus>
</clustering>
</event>
<event>
 9    2  0.1654290E-004  0.1161494E+03  0.7546771E-02  0.1263358E+00
         21   -1    0    0  501  502  0.00000000000E+00  0.00000000000E+00  0.24087063445E+02  0.24087063445E+02  0.00000000000E+00 0. -1.
          2   -1    0    0  502    0 -0.00000000000E+00 -0.00000000000E+00 -0.55271552852E+03  0.55271552852E+03  0.00000000000E+00 0. -1.
         24    2    1    2    0    0  0.39464992409E+02 -0.19115717748E+02 -0.27036387592E+03  0.28554798445E+03  0.80734935009E+02 0.  0.
         23    2    1    2    0    0 -0.21621611917E+02  0.62479944727E+01 -0.21645333537E+03  0.24400902071E+03  0.11037130178E+03 0.  0.
        -13    1    3    3    0    0  0.50131601203E+02  0.39902969957E+01 -0.87506363514E+02  0.10092801179E+03  0.00000000000E+00 0.  1.
         14    1    3    3    0    0 -0.10666608794E+02 -0.23106014744E+02 -0.18285751241E+03  0.18461997266E+03  0.00000000000E+00 0. -1.
        -11    1    4    4    0    0  0.68776772224E+00 -0.35994012222E+02 -0.18093168118E+03  0.18447849521E+03  0.00000000000E+00 0.  1.
         11    1    4    4    0    0 -0.22309379640E+02  0.42242006695E+02 -0.35521654190E+02  0.59530525497E+02  0.00000000000E+00 0. -1.
          1    1    1    2  501    0 -0.17843380492E+02  0.12867723275E+02 -0.41811253778E+02  0.47245586801E+02  0.00000000000E+00 0. -1.
<scales pt_clust_5="13000.00000" pt_clust_6="13000.00000" pt_clust_7="13000.00000" pt_clust_8="13000.00000" pt_clust_9="21.99919"></scales>
<clustering>
<clus scale="   21.999">  1  9  2 -1</clus>
<clus scale="   80.735">  5  6 -1 -1</clus>
<clus scale="   88.470">  2  5  1 -1</clus>
<clus scale="  110.371">  7  8 -1 -1</clus>
<clus scale="   21.999">  1  5  2 -1</clus>
</clustering>
</event>
<event>
 9    2  0.1654290E-004  0.1029291E+03  0.7546771E-02  0.1279884E+00
          4   -1    0    0  502    0 -0.00000000000E+00  0.00000000000E+00  0.68670432265E+02  0.68670432265E+02  0.00000000000E+00 0. -1.
         21   -1    0    0  501  502  0.00000000000E+00 -0.00000000000E+00 -0.22847783241E+03  0.22847783241E+03  0.00000000000E+00 0. -1.
         23    2    1    2    0    0 -0.36298173655E+02  0.43644619464E+02 -0.50251349865E+02  0.11847874794E+03  0.91047269757E+02 0.  0.
         24    2    1    2    0    0  0.43568953072E+02 -0.44596898958E+01 -0.10509567801E+03  0.13856692507E+03  0.78978153177E+02 0.  0.
        -11    1    4    4    0    0  0.63376964565E+02  0.68195113389E+01 -0.57719297165E+02  0.85992224285E+02  0.00000000000E+00 0.  1.
         12    1    4    4    0    0 -0.19808011493E+02 -0.11279201235E+02 -0.47376380849E+02  0.52574700780E+02  0.00000000000E+00 0. -1.
        -11    1    3    3    0    0  0.92677543369E+01  0.32777482955E+02 -0.61500252930E+02  0.70303170411E+02  0.00000000000E+00 0. -1.
         11    1    3    3    0    0 -0.45565927992E+02  0.10867136508E+02  0.11248903065E+02  0.48175577525E+02  0.00000000000E+00 0.  1.
          3    1    1    2  501    0 -0.72707794168E+01 -0.39184929568E+02 -0.44603722706E+01  0.40102591679E+02  0.00000000000E+00 0. -1.
<scales pt_clust_5="13000.00000" pt_clust_6="13000.00000" pt_clust_7="13000.00000" pt_clust_8="13000.00000" pt_clust_9="39.85379"></scales>
<clustering>
<clus scale="   39.854">  2  9  1 -1</clus>
<clus scale="   78.978">  5  6 -1 -1</clus>
<clus scale="   91.047">  7  8 -1 -1</clus>
<clus scale="   92.425">  2  5  1 -1</clus>
<clus scale="   39.854">  2  5  1 -1</clus>
</clustering>
</event>
<event>
 9    2  0.1654290E-004  0.9292485E+02  0.7546771E-02  0.1304016E+00
         21   -1    0    0  501  502  0.00000000000E+00  0.00000000000E+00  0.46038306487E+03  0.46038306487E+03  0.00000000000E+00 0.  1.
         -1   -1    0    0    0  501 -0.00000000000E+00 -0.00000000000E+00 -0.59639864990E+02  0.59639864990E+02  0.00000000000E+00 0.  1.
         23    2    1    2    0    0  0.10376773249E+02  0.60255991005E+01 -0.12793887906E+01  0.93642621096E+02  0.92861824139E+02 0.  0.
         24    2    1    2    0    0  0.24858947816E+02  0.13918934800E+02  0.16127987211E+03  0.18225657774E+03  0.79965986207E+02 0.  0.
        -13    1    4    4    0    0  0.44395646377E+02  0.34236574103E+02  0.96376074852E+02  0.11149647630E+03  0.00000000000E+00 0.  1.
         14    1    4    4    0    0 -0.19536698562E+02 -0.20317639302E+02  0.64903797261E+02  0.70760101444E+02  0.00000000000E+00 0. -1.
        -13    1    3    3    0    0  0.60767593086E+01 -0.43460540603E+02 -0.25066781410E+01  0.43954852161E+02  0.00000000000E+00 0. -1.
         13    1    3    3    0    0  0.43000139399E+01  0.49486139703E+02  0.12272893504E+01  0.49687768935E+02  0.00000000000E+00 0.  1.
         -2    1    1    2    0  502 -0.35235721064E+02 -0.19944533901E+02  0.24074271656E+03  0.24412373102E+03  0.00000000000E+00 0.  1.
<scales pt_clust_5="13000.00000" pt_clust_6="13000.00000" pt_clust_7="13000.00000" pt_clust_8="13000.00000" pt_clust_9="40.48877"></scales>
<clustering>
<clus scale="   40.489">  1  9  2 -1</clus>
<clus scale="   79.966">  5  6 -1 -1</clus>
<clus scale="   80.039">  1  5  2 -1</clus>
<clus scale="   92.862">  7  8 -1 -1</clus>
<clus scale="   40.489">  1  5  2 -1</clus>
</clustering>
</event>
<event>
 9    2  0.1654290E-004  0.3431346E+03  0.7546771E-02  0.1065469E+00
         21   -1    0    0  501  502  0.00000000000E+00  0.00000000000E+00  0.39922365006E+03  0.39922365006E+03  0.00000000000E+00 0. -1.
          2   -1    0    0  502    0 -0.00000000000E+00 -0.00000000000E+00 -0.51517539294E+03  0.51517539294E+03  0.00000000000E+00 0. -1.
         24    2    1    2    0    0 -0.64702419948E+02  0.33254941754E+02 -0.82001259637E+02  0.13594195475E+03  0.80397227444E+02 0.  0.
         23    2    1    2    0    0 -0.10726026826E+03  0.17792342808E+03 -0.31385163374E+03  0.38792908148E+03  0.93939410551E+02 0.  0.
        -11    1    3    3    0    0 -0.62098505549E+02  0.20072076440E+02 -0.14156995579E+02  0.66779736207E+02  0.00000000000E+00 0.  1.
         12    1    3    3    0    0 -0.26039143993E+01  0.13182865314E+02 -0.67844264058E+02  0.69162218542E+02  0.00000000000E+00 0. -1.
        -11    1    4    4    0    0 -0.37044405949E+02  0.13729703999E+02 -0.11022031388E+03  0.11708676430E+03  0.00000000000E+00 0.  1.
         11    1    4    4    0    0 -0.70215862311E+02  0.16419372408E+03 -0.20363131986E+03  0.27084231718E+03  0.00000000000E+00 0. -1.
          1    1    1    2  501    0  0.17196268821E+03 -0.21117836983E+03  0.27990115050E+03  0.39052800677E+03  0.00000000000E+00 0. -1.
<scales pt_clust_5="13000.00000" pt_clust_6="13000.00000" pt_clust_7="13000.00000" pt_clust_8="13000.00000" pt_clust_9="272.33705"></scales>
<clustering>
<clus scale="   80.397">  5  6 -1 -1</clus>
<clus scale="   93.939">  7  8 -1 -1</clus>
<clus scale="  103.779">  5  7 -1 -1</clus>
<clus scale="  272.337">  1  9  2 -1</clus>
<clus scale="  272.337">  1  5  2 -1</clus>
</clustering>
</event>
<event>
 9    2  0.1654290E-004  0.1987357E+03  0.7546771E-02  0.1150899E+00
         21   -1    0    0  501  502  0.00000000000E+00  0.00000000000E+00  0.17216161537E+03  0.17216161537E+03  0.00000000000E+00 0. -1.
          2   -1    0    0  502    0 -0.00000000000E+00 -0.00000000000E+00 -0.52523129766E+03  0.52523129766E+03  0.00000000000E+00 0. -1.
         24    2    1    2    0    0  0.11439030695E+03 -0.21277334509E+02 -0.39012320661E+01  0.14689940924E+03  0.89589896383E+02 0.  0.
         23    2    1    2    0    0 -0.21718414009E+03  0.11927582719E+03 -0.14276260232E+03  0.29994680007E+03  0.90505516911E+02 0.  0.
        -11    1    3    3    0    0  0.36610225803E+01  0.19958726866E+02  0.17527664683E+02  0.26813669903E+02  0.00000000000E+00 0.  1.
         12    1    3    3    0    0  0.11072928437E+03 -0.41236061375E+02 -0.21428896749E+02  0.12008573934E+03  0.00000000000E+00 0. -1.
        -13    1    4    4    0    0 -0.18033201435E+03  0.10371723575E+03 -0.15349558511E+03  0.25853006603E+03  0.00000000000E+00 0. -1.
         13    1    4    4    0    0 -0.36852125741E+02  0.15558591437E+02  0.10732982789E+02  0.41416734042E+02  0.00000000000E+00 0.  1.
          1    1    1    2  501    0  0.10279383314E+03 -0.97998492683E+02 -0.20640584790E+03  0.25054670372E+03  0.00000000000E+00 0. -1.
<scales pt_clust_5="13000.00000" pt_clust_6="13000.00000" pt_clust_7="13000.00000" pt_clust_8="13000.00000" pt_clust_9="142.02217"></scales>
<clustering>
<clus scale="   89.590">  5  6 -1 -1</clus>
<clus scale="   90.506">  7  8 -1 -1</clus>
<clus scale="  142.022">  1  9  2 -1</clus>
<clus scale="  198.320">  2  5  1 -1</clus>
<clus scale="  142.022">  1  5  2 -1</clus>
</clustering>
</event>
<event>
 9    2  0.1654290E-004  0.1233030E+03  0.7546771E-02  0.1251401E+00
         21   -1    0    0  501  502  0.00000000000E+00  0.00000000000E+00  0.46567451876E+02  0.46567451876E+02  0.00000000000E+00 0. -1.
          2   -1    0    0  502    0 -0.00000000000E+00 -0.00000000000E+00 -0.56903974025E+03  0.56903974025E+03  0.00000000000E+00 0. -1.
         24    2    1    2    0    0 -0.22684549189E+02  0.50323715545E+02 -0.33851206240E+03  0.35224028584E+03  0.80223048192E+02 0.  0.
         23    2    1    2    0    0 -0.21021943326E+02 -0.38204751879E+02 -0.18085661076E+03  0.21790528296E+03  0.11345516083E+03 0.  0.
        -11    1    3    3    0    0 -0.24673225049E+01  0.57993753672E+02 -0.12712596932E+03  0.13975111886E+03  0.00000000000E+00 0.  1.
         12    1    3    3    0    0 -0.20217226684E+02 -0.76700381274E+01 -0.21138609307E+03  0.21248916698E+03  0.00000000000E+00 0. -1.
        -11    1    4    4    0    0 -0.53243114202E+02  0.12013283766E+00 -0.35058067734E+02  0.63748817676E+02  0.00000000000E+00 0. -1.
         11    1    4    4    0    0  0.32221170876E+02 -0.38324884717E+02 -0.14579854302E+03  0.15415646528E+03  0.00000000000E+00 0.  1.
          1    1    1    2  501    0  0.43706492514E+02 -0.12118963666E+02 -0.31036152214E+01  0.45461623329E+02  0.00000000000E+00 0. -1.
<scales pt_clust_5="13000.00000" pt_clust_6="13000.00000" pt_clust_7="13000.00000" pt_clust_8="13000.00000" pt_clust_9="45.35556"></scales>
<clustering>
<clus scale="   45.356">  1  9  2 -1</clus>
<clus scale="   80.223">  5  6 -1 -1</clus>
<clus scale="   93.634">  2  5  1 -1</clus>
<clus scale="  113.455">  7  8 -1 -1</clus>
<clus scale="   45.356">  1  5  2 -1</clus>
</clustering>
</event>
<event>
 9    2  0.1654290E-004  0.2081763E+03  0.7546771E-02  0.1143838E+00
          2   -1    0    0  502    0 -0.00000000000E+00  0.00000000000E+00  0.52649684585E+03  0.52649684585E+03  0.00000000000E+00 0. -1.
         21   -1    0    0  501  502  0.00000000000E+00 -0.00000000000E+00 -0.11997329632E+03  0.11997329632E+03  0.00000000000E+00 0. -1.
         23    2    1    2    0    0  0.14467285277E+03 -0.10519161646E+03  0.21604436664E+03  0.29469883511E+03  0.90425242905E+02 0.  0.
         24    2    1    2    0    0 -0.11632850414E+03  0.17218721447E+03  0.14726664785E+03  0.26715963271E+03  0.80660064974E+02 0.  0.
        -11    1    4    4    0    0 -0.71511647853E+02  0.82582644236E+02  0.12214718494E+03  0.16387111917E+03  0.00000000000E+00 0.  1.
         12    1    4    4    0    0 -0.44816856282E+02  0.89604570229E+02  0.25119462902E+02  0.10328851354E+03  0.00000000000E+00 0. -1.
        -13    1    3    3    0    0  0.26448352919E+01 -0.45702950299E+02  0.39786215458E+02  0.60652269209E+02  0.00000000000E+00 0.  1.
         13    1    3    3    0    0  0.14202801748E+03 -0.59488666162E+02  0.17625815118E+03  0.23404656590E+03  0.00000000000E+00 0. -1.
          1    1    1    2  501    0 -0.28344348637E+02 -0.66995598005E+02  0.43212535037E+02  0.84611674349E+02  0.00000000000E+00 0. -1.
<scales pt_clust_5="13000.00000" pt_clust_6="13000.00000" pt_clust_7="13000.00000" pt_clust_8="13000.00000" pt_clust_9="72.74484"></scales>
<clustering>
<clus scale="   72.745">  2  9  1 -1</clus>
<clus scale="   80.660">  5  6 -1 -1</clus>
<clus scale="   90.425">  7  8 -1 -1</clus>
<clus scale="  204.124">  2  5  1 -1</clus>
<clus scale="   72.745">  2  5  1 -1</clus>
</clustering>
</event>
<event>
 9    2  0.1654290E-004  0.1029197E+03  0.7546771E-02  0.1276862E+00
         21   -1    0    0  501  502  0.00000000000E+00  0.00000000000E+00  0.44295758395E+02  0.44295758395E+02  0.00000000000E+00 0.  1.
          2   -1    0    0  502    0 -0.00000000000E+00 -0.00000000000E+00 -0.58002261511E+03  0.58002261511E+03  0.00000000000E+00 0. -1.
         24    2    1    2    0    0  0.30440580733E+02 -0.28692881376E+02 -0.35084061025E+03  0.36343051105E+03  0.85104007931E+02 0.  0.
         23    2    1    2    0    0 -0.59115899115E+02  0.28750886891E+02 -0.19940158694E+03  0.22874797513E+03  0.90792842358E+02 0.  0.
        -11    1    3    3    0    0  0.24212905150E+02 -0.32946423649E+02 -0.60666596881E+02  0.73158509991E+02  0.00000000000E+00 0.  1.
         12    1    3    3    0    0  0.62276755836E+01  0.42535422735E+01 -0.29017401336E+03  0.29027200106E+03  0.00000000000E+00 0. -1.
        -13    1    4    4    0    0 -0.47014313693E+02 -0.73699377663E+01 -0.17963344216E+03  0.18583012462E+03  0.00000000000E+00 0. -1.
         13    1    4    4    0    0 -0.12101585423E+02  0.36120824657E+02 -0.19768144782E+02  0.42917850503E+02  0.00000000000E+00 0.  1.
          1    1    1    2  501    0  0.28675318382E+02 -0.58005515238E-01  0.14515340470E+02  0.32139887335E+02  0.00000000000E+00 0. -1.
<scales pt_clust_5="13000.00000" pt_clust_6="13000.00000" pt_clust_7="13000.00000" pt_clust_8="13000.00000" pt_clust_9="28.67538"></scales>
<clustering>
<clus scale="   28.675">  1  9  2 -1</clus>
<clus scale="   85.104">  5  6 -1 -1</clus>
<clus scale="   90.793">  7  8 -1 -1</clus>
<clus scale="   97.938">  2  5  1 -1</clus>
<clus scale="   28.675">  1  5  2 -1</clus>
</clustering>
</event>
<event>
 9    2  0.1654290E-004  0.1252132E+03  0.7546771E-02  0.1241008E+00
         21   -1    0    0  501  502  0.00000000000E+00  0.00000000000E+00  0.57244063203E+03  0.57244063203E+03  0.00000000000E+00 0.  1.
         -1   -1    0    0    0  501 -0.00000000000E+00 -0.00000000000E+00 -0.60380234307E+02  0.60380234307E+02  0.00000000000E+00 0.  1.
         23    2    1    2    0    0  0.33838721727E+02 -0.77071043920E+02  0.25895188240E+02  0.12728727734E+03  0.91904762115E+02 0.  0.
         24    2    1    2    0    0 -0.55694166579E+02  0.73332296977E+02  0.42511092500E+03  0.44057772435E+03  0.70071154334E+02 0.  0.
        -13    1    4    4    0    0 -0.53890285779E+02  0.13655995064E+02  0.18639211716E+03  0.19450622211E+03  0.00000000000E+00 0.  1.
         14    1    4    4    0    0 -0.18038808004E+01  0.59676301913E+02  0.23871880784E+03  0.24607150224E+03  0.00000000000E+00 0. -1.
        -13    1    3    3    0    0  0.33349101031E+02  0.12082308092E+02  0.72307635495E+01  0.36199843230E+02  0.00000000000E+00 0. -1.
         13    1    3    3    0    0  0.48962069568E+00 -0.89153352012E+02  0.18664424691E+02  0.91087434108E+02  0.00000000000E+00 0.  1.
         -2    1    1    2    0  502  0.21855444852E+02  0.37387469432E+01  0.61054284484E+02  0.64955864649E+02  0.00000000000E+00 0.  1.
<scales pt_clust_5="13000.00000" pt_clust_6="13000.00000" pt_clust_7="13000.00000" pt_clust_8="13000.00000" pt_clust_9="22.17293"></scales>
<clustering>
<clus scale="   22.173">  1  9  2 -1</clus>
<clus scale="   70.071">  5  6 -1 -1</clus>
<clus scale="   91.905">  7  8 -1 -1</clus>
<clus scale="  110.190">  1  5  2 -1</clus>
<clus scale="   22.173">  1  5  2 -1</clus>
</clustering>
</event>
<event>
 9    2  0.1654290E-004  0.9587808E+02  0.7546771E-02  0.1295494E+00
          2   -1    0    0  502    0 -0.00000000000E+00  0.00000000000E+00  0.19742508848E+03  0.19742508848E+03  0.00000000000E+00 0. -1.
         21   -1    0    0  501  502  0.00000000000E+00 -0.00000000000E+00 -0.11075454081E+03  0.11075454081E+03  0.00000000000E+00 0. -1.
         24    2    1    2    0    0  0.12619833081E+02  0.21512299277E+02  0.14830453709E+03  0.17100193426E+03  0.81396477762E+02 0.  0.
         23    2    1    2    0    0  0.45728101183E+01 -0.35066208476E+02 -0.58726835614E+02  0.11509270062E+03  0.92449656270E+02 0.  0.
        -11    1    3    3    0    0  0.73771052016E+01 -0.27601420255E+02  0.24243900486E+02  0.37470345501E+02  0.00000000000E+00 0.  1.
         12    1    3    3    0    0  0.52427278797E+01  0.49113719531E+02  0.12406063660E+03  0.13353158876E+03  0.00000000000E+00 0. -1.
        -11    1    4    4    0    0 -0.27005706230E+02  0.15017286180E+02  0.11020659085E+01  0.30919922420E+02  0.00000000000E+00 0.  1.
         11    1    4    4    0    0  0.31578516348E+02 -0.50083494656E+02 -0.59828901523E+02  0.84172778195E+02  0.00000000000E+00 0. -1.
          1    1    1    2  501    0 -0.17192643200E+02  0.13553909199E+02 -0.29071538066E+01  0.22084994409E+02  0.00000000000E+00 0. -1.
<scales pt_clust_5="13000.00000" pt_clust_6="13000.00000" pt_clust_7="13000.00000" pt_clust_8="13000.00000" pt_clust_9="21.89282"></scales>
<clustering>
<clus scale="   21.893">  2  9  1 -1</clus>
<clus scale="   81.396">  5  6 -1 -1</clus>
<clus scale="   85.270">  1  5  2 -1</clus>
<clus scale="   92.450">  7  8 -1 -1</clus>
<clus scale="   21.893">  2  5  1 -1</clus>
</clustering>
</event>
<event>
 9    2  0.1654290E-004  0.1378595E+03  0.7546771E-02  0.1233693E+00
         21   -1    0    0  501  502  0.00000000000E+00  0.00000000000E+00  0.80736493981E+02  0.80736493981E+02  0.00000000000E+00 0. -1.
          2   -1    0    0  502    0 -0.00000000000E+00 -0.00000000000E+00 -0.12564385900E+04  0.12564385900E+04  0.00000000000E+00 0. -1.
         23    2    1    2    0    0 -0.32818048970E+02  0.37919101739E+01 -0.46207106322E+01  0.95959897496E+02  0.89975263488E+02 0.  0.
         24    2    1    2    0    0  0.14163508308E+03 -0.15641969581E+02 -0.10968572730E+04  0.11089624372E+04  0.79979009241E+02 0.  0.
        -13    1    4    4    0    0  0.34242129536E+02 -0.15513479061E+02 -0.10932165263E+03  0.11560456393E+03  0.00000000000E+00 0.  1.
         14    1    4    4    0    0  0.10739295355E+03 -0.12849052031E+00 -0.98753562036E+03  0.99335787330E+03  0.00000000000E+00 0. -1.
        -13    1    3    3    0    0  0.16165648621E+02  0.32476577530E+02 -0.13090296962E+02  0.38566982744E+02  0.00000000000E+00 0. -1.
         13    1    3    3    0    0 -0.48983697592E+02 -0.28684667356E+02  0.84695863295E+01  0.57392914752E+02  0.00000000000E+00 0.  1.
          1    1    1    2  501    0 -0.10881703411E+03  0.11850059407E+02 -0.74224112384E+02  0.13225274924E+03  0.00000000000E+00 0. -1.
<scales pt_clust_5="13000.00000" pt_clust_6="13000.00000" pt_clust_7="13000.00000" pt_clust_8="13000.00000" pt_clust_9="112.28800"></scales>
<clustering>
<clus scale="   79.979">  5  6 -1 -1</clus>
<clus scale="   89.975">  7  8 -1 -1</clus>
<clus scale="   95.849">  2  7  1 -1</clus>
<clus scale="  112.288">  1  9  2 -1</clus>
<clus scale="  112.288">  1  5  2 -1</clus>
</clustering>
</event>
<event>
 9    2  0.1654290E-004  0.1453807E+03  0.7546771E-02  0.1207984E+00
          2   -1    0    0  502    0 -0.00000000000E+00  0.00000000000E+00  0.12553057465E+04  0.12553057465E+04  0.00000000000E+00 0. -1.
         21   -1    0    0  501  502  0.00000000000E+00 -0.00000000000E+00 -0.43825785828E+02  0.43825785828E+02  0.00000000000E+00 0. -1.
         23    2    1    2    0    0 -0.18779289124E+02 -0.80291244492E+02  0.25998396931E+03  0.28704360216E+03  0.89459597585E+02 0.  0.
         24    2    1    2    0    0 -0.49110978141E+02  0.17582139134E+03  0.38558541425E+03  0.43416935577E+03  0.80634161369E+02 0.  0.
        -11    1    4    4    0    0 -0.58695923414E+02  0.67792724377E+02  0.14884837935E+03  0.17377256670E+03  0.00000000000E+00 0.  1.
         12    1    4    4    0    0  0.95849452731E+01  0.10802866697E+03  0.23673703490E+03  0.26039678907E+03  0.00000000000E+00 0. -1.
        -13    1    3    3    0    0  0.20563180991E+02  0.10227178638E+02  0.49330691583E+02  0.54414673824E+02  0.00000000000E+00 0.  1.
         13    1    3    3    0    0 -0.39342470115E+02 -0.90518423131E+02  0.21065327772E+03  0.23262892833E+03  0.00000000000E+00 0. -1.
          1    1    1    2  501    0  0.67890267265E+02 -0.95530146852E+02  0.56591057711E+03  0.57791857439E+03  0.00000000000E+00 0. -1.
<scales pt_clust_5="13000.00000" pt_clust_6="13000.00000" pt_clust_7="13000.00000" pt_clust_8="13000.00000" pt_clust_9="117.19689"></scales>
<clustering>
<clus scale="   80.634">  5  6 -1 -1</clus>
<clus scale="   89.460">  7  8 -1 -1</clus>
<clus scale="  117.197">  2  9  1 -1</clus>
<clus scale="  140.123">  2  5  1 -1</clus>
<clus scale="  117.197">  2  5  1 -1</clus>
</clustering>
</event>
<event>
 9    2  0.1654290E-004  0.9316055E+02  0.7546771E-02  0.1302191E+00
          2   -1    0    0  502    0 -0.00000000000E+00  0.00000000000E+00  0.24372597922E+03  0.24372597922E+03  0.00000000000E+00 0. -1.
         21   -1    0    0  501  502  0.00000000000E+00 -0.00000000000E+00 -0.66293698448E+02  0.66293698448E+02  0.00000000000E+00 0. -1.
         24    2    1    2    0    0 -0.11358557773E+02 -0.61350847166E+01  0.11356892578E+03  0.13979176154E+03  0.80480926900E+02 0.  0.
         23    2    1    2    0    0  0.74771013205E+01  0.36951206753E+02 -0.68943053315E-01  0.99150227532E+02  0.91703130491E+02 0.  0.
        -13    1    3    3    0    0 -0.41461816721E+02  0.25462806509E+01  0.32072445146E+02  0.52480544287E+02  0.00000000000E+00 0.  1.
         14    1    3    3    0    0  0.30103258949E+02 -0.86813653675E+01  0.81496480629E+02  0.87311217257E+02  0.00000000000E+00 0. -1.
        -11    1    4    4    0    0  0.21665161395E+02  0.64290266708E+02  0.45936704791E+01  0.67997936881E+02  0.00000000000E+00 0. -1.
         11    1    4    4    0    0 -0.14188060074E+02 -0.27339059955E+02 -0.46626135325E+01  0.31152290651E+02  0.00000000000E+00 0.  1.
          1    1    1    2  501    0  0.38814564523E+01 -0.30816122037E+02  0.63932298047E+02  0.71077688589E+02  0.00000000000E+00 0. -1.
<scales pt_clust_5="13000.00000" pt_clust_6="13000.00000" pt_clust_7="13000.00000" pt_clust_8="13000.00000" pt_clust_9="31.05962"></scales>
<clustering>
<clus scale="   31.060">  2  9  1 -1</clus>
<clus scale="   80.481">  5  6 -1 -1</clus>
<clus scale="   82.138">  1  5  2 -1</clus>
<clus scale="   91.703">  7  8 -1 -1</clus>
<clus scale="   31.060">  2  5  1 -1</clus>
</clustering>
</event>
<event>
 9    2  0.1654290E-004  0.9336923E+02  0.7546771E-02  0.1301429E+00
          2   -1    0    0  502    0 -0.00000000000E+00  0.00000000000E+00  0.19560163779E+03  0.19560163779E+03  0.00000000000E+00 0. -1.
         21   -1    0    0  501  502  0.00000000000E+00 -0.00000000000E+00 -0.81689906913E+02  0.81689906913E+02  0.00000000000E+00 0.  1.
         24    2    1    2    0    0  0.64466250728E+01  0.18293828684E+02  0.12201256072E+03  0.14751350359E+03  0.80603632840E+02 0.  0.
         23    2    1    2    0    0  0.25759387791E+02 -0.20200365125E+02 -0.38713138931E+01  0.97239587691E+02  0.91481962881E+02 0.  0.
        -11    1    3    3    0    0 -0.12310439980E+02 -0.28273181198E+02  0.31950795288E+02  0.44404650962E+02  0.00000000000E+00 0.  1.
         12    1    3    3    0    0  0.18757065052E+02  0.46567009882E+02  0.90061765428E+02  0.10310885263E+03  0.00000000000E+00 0. -1.
        -11    1    4    4    0    0  0.44106016472E+02 -0.12645580266E+01  0.30705956447E+02  0.53756818706E+02  0.00000000000E+00 0. -1.
         11    1    4    4    0    0 -0.18346628681E+02 -0.18935807098E+02 -0.34577270340E+02  0.43482768985E+02  0.00000000000E+00 0.  1.
          1    1    1    2  501    0 -0.32206012863E+02  0.19065364404E+01 -0.42295159465E+01  0.32538453419E+02  0.00000000000E+00 0. -1.
<scales pt_clust_5="13000.00000" pt_clust_6="13000.00000" pt_clust_7="13000.00000" pt_clust_8="13000.00000" pt_clust_9="32.26240"></scales>
<clustering>
<clus scale="   32.262">  2  9  1 -1</clus>
<clus scale="   80.604">  5  6 -1 -1</clus>
<clus scale="   82.739">  1  5  2 -1</clus>
<clus scale="   91.482">  7  8 -1 -1</clus>
<clus scale="   32.262">  2  5  1 -1</clus>
</clustering>
</event>
<event>
 9    2  0.1654290E-004  0.2593130E+03  0.7546771E-02  0.1144008E+00
         -1   -1    0    0    0  501 -0.00000000000E+00  0.00000000000E+00  0.73269168928E+02  0.73269168928E+02  0.00000000000E+00 0.  1.
         21   -1    0    0  501  502  0.00000000000E+00 -0.00000000000E+00 -0.13873405406E+04  0.13873405406E+04  0.00000000000E+00 0.  1.
         23    2    1    2    0    0  0.66061975551E+01  0.50813247245E+02 -0.22293092343E+03  0.24649886236E+03  0.91857849881E+02 0.  0.
         24    2    1    2    0    0 -0.20177991453E+03  0.10936163672E+03 -0.32515433389E+03  0.40758527371E+03  0.87893759763E+02 0.  0.
        -11    1    4    4    0    0 -0.16518285138E+03  0.11152515791E+03 -0.22317376047E+03  0.29921524460E+03  0.00000000000E+00 0.  1.
         12    1    4    4    0    0 -0.36597063149E+02 -0.21635211905E+01 -0.10198057342E+03  0.10837002912E+03  0.00000000000E+00 0. -1.
        -11    1    3    3    0    0 -0.25878115957E+02 -0.12492069084E+02 -0.10410772765E+03  0.10800068348E+03  0.00000000000E+00 0. -1.
         11    1    3    3    0    0  0.32484313512E+02  0.63305316328E+02 -0.11882319578E+03  0.13849817889E+03  0.00000000000E+00 0.  1.
         -2    1    1    2    0  502  0.19517371698E+03 -0.16017488396E+03 -0.76598611432E+03  0.80652557342E+03  0.00000000000E+00 0.  1.
<scales pt_clust_5="13000.00000" pt_clust_6="13000.00000" pt_clust_7="13000.00000" pt_clust_8="13000.00000" pt_clust_9="243.96291"></scales>
<clustering>
<clus scale="   87.894">  5  6 -1 -1</clus>
<clus scale="   91.858">  7  8 -1 -1</clus>
<clus scale="  105.183">  1  7  2 -1</clus>
<clus scale="  243.963">  2  9  1 -1</clus>
<clus scale="  243.963">  2  5  1 -1</clus>
</clustering>
</event>
<event>
 9    2  0.1654290E-004  0.1024407E+03  0.7546771E-02  0.1278128E+00
          2   -1    0    0  502    0 -0.00000000000E+00  0.00000000000E+00  0.51022741477E+03  0.51022741477E+03  0.00000000000E+00 0. -1.
         21   -1    0    0  501  502  0.00000000000E+00 -0.00000000000E+00 -0.46649487058E+02  0.46649487058E+02  0.00000000000E+00 0.  1.
         23    2    1    2    0    0  0.20964070615E+02  0.30011559334E+02  0.28354752231E+03  0.30013052959E+03  0.91317859342E+02 0.  0.
         24    2    1    2    0    0  0.58255544749E+01 -0.85667359970E+02  0.12693205256E+03  0.17529278281E+03  0.85105699500E+02 0.  0.
        -11    1    4    4    0    0  0.98646841667E+01 -0.50070130193E+02  0.87212861428E+01  0.51772490410E+02  0.00000000000E+00 0.  1.
         12    1    4    4    0    0 -0.40391296919E+01 -0.35597229777E+02  0.11821076642E+03  0.12352029240E+03  0.00000000000E+00 0. -1.
        -13    1    3    3    0    0 -0.37515978259E+01  0.53669295855E+02  0.10130921253E+03  0.11470843189E+03  0.00000000000E+00 0. -1.
         13    1    3    3    0    0  0.24715668441E+02 -0.23657736521E+02  0.18223830978E+03  0.18542209770E+03  0.00000000000E+00 0.  1.
          1    1    1    2  501    0 -0.26789625090E+02  0.55655800636E+02  0.53098352849E+02  0.81453589437E+02  0.00000000000E+00 0. -1.
<scales pt_clust_5="13000.00000" pt_clust_6="13000.00000" pt_clust_7="13000.00000" pt_clust_8="13000.00000" pt_clust_9="61.76773"></scales>
<clustering>
<clus scale="   61.768">  2  9  1 -1</clus>
<clus scale="   85.106">  5  6 -1 -1</clus>
<clus scale="   91.318">  7  8 -1 -1</clus>
<clus scale="   96.944">  2  5  1 -1</clus>
<clus scale="   61.768">  2  5  1 -1</clus>
</clustering>
</event>
<event>
 9    2  0.1654290E-004  0.1453279E+03  0.7546771E-02  0.1210188E+00
         21   -1    0    0  501  502  0.00000000000E+00  0.00000000000E+00  0.27161457293E+03  0.27161457293E+03  0.00000000000E+00 0.  1.
          2   -1    0    0  502    0 -0.00000000000E+00 -0.00000000000E+00 -0.38828555155E+03  0.38828555155E+03  0.00000000000E+00 0. -1.
         23    2    1    2    0    0  0.48990528880E+02 -0.10258134683E+03 -0.23674026879E+03  0.27194167631E+03  0.70592604513E+02 0.  0.
         24    2    1    2    0    0 -0.12217901769E+03 -0.24530341102E+02  0.17673765144E+03  0.23071583539E+03  0.80399933253E+02 0.  0.
        -11    1    4    4    0    0 -0.62148815887E+02 -0.32569316378E+02  0.14776242623E+03  0.16357557975E+03  0.00000000000E+00 0.  1.
         12    1    4    4    0    0 -0.60030201804E+02  0.80389752765E+01  0.28975225212E+02  0.67140255646E+02  0.00000000000E+00 0. -1.
        -13    1    3    3    0    0  0.44099533100E+01 -0.71176963511E+02 -0.86472225175E+02  0.11208502821E+03  0.00000000000E+00 0.  1.
         13    1    3    3    0    0  0.44580575570E+02 -0.31404383316E+02 -0.15026804361E+03  0.15985664810E+03  0.00000000000E+00 0. -1.
          1    1    1    2  501    0  0.73188488811E+02  0.12711168793E+03 -0.56668361280E+02  0.15724261278E+03  0.00000000000E+00 0. -1.
<scales pt_clust_5="13000.00000" pt_clust_6="13000.00000" pt_clust_7="13000.00000" pt_clust_8="13000.00000" pt_clust_9="121.06224"></scales>
<clustering>
<clus scale="   70.593">  7  8 -1 -1</clus>
<clus scale="   80.400">  5  6 -1 -1</clus>
<clus scale="  133.815">  2  7  1 -1</clus>
<clus scale="  121.062">  1  9  2 -1</clus>
<clus scale="  121.062">  1  5  2 -1</clus>
</clustering>
</event>
<event>
 9    2  0.1654290E-004  0.1273493E+03  0.7546771E-02  0.1250918E+00
          2   -1    0    0  502    0 -0.00000000000E+00  0.00000000000E+00  0.53487725111E+03  0.53487725111E+03  0.00000000000E+00 0. -1.
         21   -1    0    0  501  502  0.00000000000E+00 -0.00000000000E+00 -0.48833815286E+02  0.48833815286E+02  0.00000000000E+00 0. -1.
         24    2    1    2    0    0 -0.85324832107E+00 -0.42035702176E+02  0.14334113330E+03  0.16706355993E+03  0.74805242262E+02 0.  0.
         23    2    1    2    0    0  0.79021241471E+02 -0.10983027243E+02  0.27516760029E+03  0.30053481626E+03  0.90768849507E+02 0.  0.
        -11    1    3    3    0    0  0.29752782547E+02 -0.45415555130E+02  0.80709432028E+02  0.97271851712E+02  0.00000000000E+00 0.  1.
         12    1    3    3    0    0 -0.30606030869E+02  0.33798529544E+01  0.62631701272E+02  0.69791708216E+02  0.00000000000E+00 0. -1.
        -11    1    4    4    0    0  0.90594597589E+02 -0.31751904457E+02  0.20305601953E+03  0.22460478984E+03  0.00000000000E+00 0. -1.
         11    1    4    4    0    0 -0.11573356118E+02  0.20768877214E+02  0.72111580759E+02  0.75930026420E+02  0.00000000000E+00 0.  1.
          1    1    1    2  501    0 -0.78167993150E+02  0.53018729419E+02  0.67534702229E+02  0.11611269021E+03  0.00000000000E+00 0. -1.
<scales pt_clust_5="13000.00000" pt_clust_6="13000.00000" pt_clust_7="13000.00000" pt_clust_8="13000.00000" pt_clust_9="89.32454"></scales>
<clustering>
<clus scale="   74.805">  5  6 -1 -1</clus>
<clus scale="   85.811">  1  5  2 -1</clus>
<clus scale="   89.325">  2  9  1 -1</clus>
<clus scale="   90.769">  7  8 -1 -1</clus>
<clus scale="   89.325">  2  5  1 -1</clus>
</clustering>
</event>
<event>
 9    2  0.1654290E-004  0.9876979E+02  0.7546771E-02  0.1288554E+00
         21   -1    0    0  501  502  0.00000000000E+00  0.00000000000E+00  0.22295534227E+02  0.22295534227E+02  0.00000000000E+00 0. -1.
          2   -1    0    0  502    0 -0.00000000000E+00 -0.00000000000E+00 -0.71463087252E+03  0.71463087252E+03  0.00000000000E+00 0. -1.
         24    2    1    2    0    0  0.31167867294E+02 -0.27691625424E+02 -0.35743410215E+03  0.36892132596E+03  0.81274505813E+02 0.  0.
         23    2    1    2    0    0 -0.36490084914E+02 -0.77923259339E+01 -0.30663646550E+03  0.32232867480E+03  0.92073915888E+02 0.  0.
        -11    1    3    3    0    0  0.34076294251E+02  0.13836321351E+02 -0.76070790868E+02  0.84494987081E+02  0.00000000000E+00 0.  1.
         12    1    3    3    0    0 -0.29084269574E+01 -0.41527946775E+02 -0.28136331129E+03  0.28442633888E+03  0.00000000000E+00 0. -1.
        -11    1    4    4    0    0 -0.38977356816E+02  0.22952520174E+02 -0.27287348984E+03  0.27659716915E+03  0.00000000000E+00 0.  1.
         11    1    4    4    0    0  0.24872719015E+01 -0.30744846108E+02 -0.33762975659E+02  0.45731505650E+02  0.00000000000E+00 0. -1.
          1    1    1    2  501    0  0.53222176206E+01  0.35483951358E+02 -0.28264770647E+02  0.45676405990E+02  0.00000000000E+00 0. -1.
<scales pt_clust_5="13000.00000" pt_clust_6="13000.00000" pt_clust_7="13000.00000" pt_clust_8="13000.00000" pt_clust_9="35.88087"></scales>
<clustering>
<clus scale="   35.881">  1  9  2 -1</clus>
<clus scale="   81.275">  5  6 -1 -1</clus>
<clus scale="   88.789">  2  5  1 -1</clus>
<clus scale="   92.074">  7  8 -1 -1</clus>
<clus scale="   35.881">  1  5  2 -1</clus>
</clustering>
</event>
<event>
 9    2  0.1654290E-004  0.9829098E+02  0.7546771E-02  0.1290064E+00
          2   -1    0    0  502    0 -0.00000000000E+00  0.00000000000E+00  0.10928500423E+04  0.10928500423E+04  0.00000000000E+00 0. -1.
         21   -1    0    0  501  502  0.00000000000E+00 -0.00000000000E+00 -0.14443757833E+02  0.14443757833E+02  0.00000000000E+00 0. -1.
         23    2    1    2    0    0  0.31668932169E+02 -0.74622350886E+01  0.46470632083E+03  0.47480822200E+03  0.91827429663E+02 0.  0.
         24    2    1    2    0    0 -0.34639376494E+02 -0.41270443173E+02  0.30508421437E+03  0.32003177649E+03  0.80254745782E+02 0.  0.
        -13    1    4    4    0    0  0.24684035134E+02 -0.54702300740E+01  0.55117188453E+02  0.60639339298E+02  0.00000000000E+00 0.  1.
         14    1    4    4    0    0 -0.59323411629E+02 -0.35800213099E+02  0.24996702592E+03  0.25939243719E+03  0.00000000000E+00 0. -1.
        -13    1    3    3    0    0  0.59551697076E+02 -0.23694685286E+02  0.34052401666E+03  0.34650317265E+03  0.00000000000E+00 0. -1.
         13    1    3    3    0    0 -0.27882764907E+02  0.16232450197E+02  0.12418230417E+03  0.12830504935E+03  0.00000000000E+00 0.  1.
          1    1    1    2  501    0  0.29704443255E+01  0.48732678261E+02  0.30861574927E+03  0.31245380165E+03  0.00000000000E+00 0. -1.
<scales pt_clust_5="13000.00000" pt_clust_6="13000.00000" pt_clust_7="13000.00000" pt_clust_8="13000.00000" pt_clust_9="48.82315"></scales>
<clustering>
<clus scale="   48.823">  2  9  1 -1</clus>
<clus scale="   80.255">  5  6 -1 -1</clus>
<clus scale="   87.577">  2  5  1 -1</clus>
<clus scale="   91.827">  7  8 -1 -1</clus>
<clus scale="   48.823">  2  5  1 -1</clus>
</clustering>
</event>
<event>
 9    2  0.1654290E-004  0.2098122E+03  0.7546771E-02  0.1183387E+00
          2   -1    0    0  502    0 -0.00000000000E+00  0.00000000000E+00  0.74453359927E+03  0.74453359927E+03  0.00000000000E+00 0. -1.
         21   -1    0    0  501  502  0.00000000000E+00 -0.00000000000E+00 -0.10293804799E+03  0.10293804799E+03  0.00000000000E+00 0. -1.
         24    2    1    2    0    0  0.98652484587E+01  0.32304027855E+01  0.11473932623E+03  0.13979077162E+03  0.79174416431E+02 0.  0.
         23    2    1    2    0    0 -0.12584805438E+03  0.14131050041E+03  0.82635981571E+02  0.22635384681E+03  0.92741404975E+02 0.  0.
        -11    1    3    3    0    0  0.29588569917E+02 -0.28470383411E+02  0.46730582111E+02  0.62207664365E+02  0.00000000000E+00 0.  1.
         12    1    3    3    0    0 -0.19723321458E+02  0.31700786196E+02  0.68008744116E+02  0.77583107253E+02  0.00000000000E+00 0. -1.
        -13    1    4    4    0    0 -0.85478464404E+02  0.33258496095E+02  0.15888978641E+02  0.93086814757E+02  0.00000000000E+00 0.  1.
         13    1    4    4    0    0 -0.40369589976E+02  0.10805200432E+03  0.66747002930E+02  0.13326703205E+03  0.00000000000E+00 0. -1.
          1    1    1    2  501    0  0.11598280592E+03 -0.14454090320E+03  0.44422024348E+03  0.48132702883E+03  0.00000000000E+00 0. -1.
<scales pt_clust_5="13000.00000" pt_clust_6="13000.00000" pt_clust_7="13000.00000" pt_clust_8="13000.00000" pt_clust_9="188.20257"></scales>
<clustering>
<clus scale="   79.174">  5  6 -1 -1</clus>
<clus scale="   79.852">  1  5  2 -1</clus>
<clus scale="   92.741">  7  8 -1 -1</clus>
<clus scale="  188.203">  2  9  1 -1</clus>
<clus scale="  188.203">  2  5  1 -1</clus>
</clustering>
</event>
<event>
 9    2  0.1654290E-004  0.9300896E+02  0.7546771E-02  0.1303679E+00
         21   -1    0    0  501  502  0.00000000000E+00  0.00000000000E+00  0.41148652126E+03  0.41148652126E+03  0.00000000000E+00 0.  1.
         -3   -1    0    0    0  501 -0.00000000000E+00 -0.00000000000E+00 -0.62770884796E+02  0.62770884796E+02  0.00000000000E+00 0.  1.
         23    2    1    2    0    0 -0.16120842626E+02 -0.90469632334E+01 -0.49544718320E+01  0.94468999688E+02  0.92510085938E+02 0.  0.
         24    2    1    2    0    0 -0.27003632934E+02 -0.29547119487E+01  0.15789668588E+03  0.17896262733E+03  0.79739150086E+02 0.  0.
        -13    1    4    4    0    0 -0.51332599204E+02  0.15581730152E+02  0.10174377989E+03  0.11502009738E+03  0.00000000000E+00 0.  1.
         14    1    4    4    0    0  0.24328966271E+02 -0.18536442101E+02  0.56152905989E+02  0.63942529952E+02  0.00000000000E+00 0. -1.
        -13    1    3    3    0    0 -0.20380234097E+02  0.39740574349E+02  0.33895749847E+01  0.44790137419E+02  0.00000000000E+00 0. -1.
         13    1    3    3    0    0  0.42593914705E+01 -0.48787537583E+02 -0.83440468167E+01  0.49678862269E+02  0.00000000000E+00 0.  1.
         -4    1    1    2    0  502  0.43124475560E+02  0.12001675182E+02  0.19577342242E+03  0.20082577903E+03  0.00000000000E+00 0.  1.
<scales pt_clust_5="13000.00000" pt_clust_6="13000.00000" pt_clust_7="13000.00000" pt_clust_8="13000.00000" pt_clust_9="44.76338"></scales>
<clustering>
<clus scale="   44.763">  1  9  2 -1</clus>
<clus scale="   79.739">  5  6 -1 -1</clus>
<clus scale="   80.317">  1  5  2 -1</clus>
<clus scale="   92.510">  7  8 -1 -1</clus>
<clus scale="   44.763">  1  5  2 -1</clus>
</clustering>
</event>
<event>
 9    2  0.1654290E-004  0.9898548E+02  0.7546771E-02  0.1289076E+00
         21   -1    0    0  501  502  0.00000000000E+00  0.00000000000E+00  0.19787246522E+03  0.19787246522E+03  0.00000000000E+00 0. -1.
          2   -1    0    0  502    0 -0.00000000000E+00 -0.00000000000E+00 -0.28117437294E+03  0.28117437294E+03  0.00000000000E+00 0. -1.
         24    2    1    2    0    0  0.63474445107E+01  0.39612165188E+02 -0.21854537033E+03  0.23568063052E+03  0.78573958979E+02 0.  0.
         23    2    1    2    0    0  0.28997818978E+02 -0.29778629247E+02 -0.29436787690E+01  0.10039183189E+03  0.91335723572E+02 0.  0.
        -13    1    3    3    0    0  0.17506391917E+02 -0.15090896115E+02 -0.24153954726E+02  0.33430860480E+02  0.00000000000E+00 0.  1.
         14    1    3    3    0    0 -0.11158947407E+02  0.54703061303E+02 -0.19439141560E+03  0.20224977004E+03  0.00000000000E+00 0. -1.
        -11    1    4    4    0    0  0.18204647396E+02  0.16495534452E+02 -0.35226330291E+02  0.42946550378E+02  0.00000000000E+00 0. -1.
         11    1    4    4    0    0  0.10793171582E+02 -0.46274163699E+02  0.32282651522E+02  0.57445281513E+02  0.00000000000E+00 0.  1.
          1    1    1    2  501    0 -0.35345263488E+02 -0.98335359411E+01  0.13818714137E+03  0.14297437575E+03  0.00000000000E+00 0. -1.
<scales pt_clust_5="13000.00000" pt_clust_6="13000.00000" pt_clust_7="13000.00000" pt_clust_8="13000.00000" pt_clust_9="36.68768"></scales>
<clustering>
<clus scale="   36.688">  1  9  2 -1</clus>
<clus scale="   78.574">  5  6 -1 -1</clus>
<clus scale="   87.349">  2  5  1 -1</clus>
<clus scale="   91.336">  7  8 -1 -1</clus>
<clus scale="   36.688">  1  5  2 -1</clus>
</clustering>
</event>
<event>
 9    2  0.1654290E-004  0.1486266E+03  0.7546771E-02  0.1203754E+00
         21   -1    0    0  501  502  0.00000000000E+00  0.00000000000E+00  0.11293089016E+03  0.11293089016E+03  0.00000000000E+00 0.  1.
          2   -1    0    0  502    0 -0.00000000000E+00 -0.00000000000E+00 -0.12992482015E+04  0.12992482015E+04  0.00000000000E+00 0. -1.
         24    2    1    2    0    0 -0.59555591297E+02 -0.83425031757E+02 -0.68370060639E+03  0.69589937604E+03  0.79516149402E+02 0.  0.
         23    2    1    2    0    0  0.56587830514E+02  0.15375099351E+03 -0.58150627892E+03  0.61055311834E+03  0.88227021544E+02 0.  0.
        -13    1    3    3    0    0 -0.28052478348E+02  0.41263605594E+01 -0.76005597955E+02  0.81122249189E+02  0.00000000000E+00 0.  1.
         14    1    3    3    0    0 -0.31503112949E+02 -0.87551392317E+02 -0.60769500844E+03  0.61477712685E+03  0.00000000000E+00 0. -1.
        -11    1    4    4    0    0  0.44428676702E+02  0.36052308521E+02 -0.10501743020E+03  0.11959237814E+03  0.00000000000E+00 0. -1.
         11    1    4    4    0    0  0.12159153812E+02  0.11769868499E+03 -0.47648884872E+03  0.49096074020E+03  0.00000000000E+00 0.  1.
          1    1    1    2  501    0  0.29677607834E+01 -0.70325961751E+02  0.78889573945E+02  0.10572659730E+03  0.00000000000E+00 0. -1.
<scales pt_clust_5="13000.00000" pt_clust_6="13000.00000" pt_clust_7="13000.00000" pt_clust_8="13000.00000" pt_clust_9="70.38855"></scales>
<clustering>
<clus scale="   70.389">  1  9  2 -1</clus>
<clus scale="   79.516">  5  6 -1 -1</clus>
<clus scale="   88.227">  7  8 -1 -1</clus>
<clus scale="  143.627">  2  5  1 -1</clus>
<clus scale="   70.389">  1  5  2 -1</clus>
</clustering>
</event>
<event>
 9    2  0.1654290E-004  0.1601104E+03  0.7546771E-02  0.1212389E+00
          2   -1    0    0  502    0 -0.00000000000E+00  0.00000000000E+00  0.20742023355E+03  0.20742023355E+03  0.00000000000E+00 0. -1.
         21   -1    0    0  501  502  0.00000000000E+00 -0.00000000000E+00 -0.21802122514E+03  0.21802122514E+03  0.00000000000E+00 0. -1.
         23    2    1    2    0    0  0.14137250029E+02 -0.17967788468E+02  0.29566141108E+02  0.99956146391E+02  0.92705831750E+02 0.  0.
         24    2    1    2    0    0  0.74488897000E+02  0.11829316723E+03 -0.86516442111E+02  0.18382362361E+03  0.82244517459E+02 0.  0.
        -11    1    4    4    0    0  0.33916798292E+02  0.11484250119E+02 -0.54422771288E+02  0.65146567383E+02  0.00000000000E+00 0.  1.
         12    1    4    4    0    0  0.40572098708E+02  0.10680891711E+03 -0.32093670823E+02  0.11867705622E+03  0.00000000000E+00 0. -1.
        -11    1    3    3    0    0 -0.22291895712E+02  0.27514529506E+02  0.20685256237E+02  0.41010459324E+02  0.00000000000E+00 0.  1.
         11    1    3    3    0    0  0.36429145740E+02 -0.45482317974E+02  0.88808848711E+01  0.58945687067E+02  0.00000000000E+00 0. -1.
          1    1    1    2  501    0 -0.88626147029E+02 -0.10032537876E+03  0.46349309412E+02  0.14166168869E+03  0.00000000000E+00 0. -1.
<scales pt_clust_5="13000.00000" pt_clust_6="13000.00000" pt_clust_7="13000.00000" pt_clust_8="13000.00000" pt_clust_9="137.37251"></scales>
<clustering>
<clus scale="   82.245">  5  6 -1 -1</clus>
<clus scale="   92.706">  7  8 -1 -1</clus>
<clus scale="   95.483">  1  7  2 -1</clus>
<clus scale="  137.373">  2  9  1 -1</clus>
<clus scale="  137.373">  2  5  1 -1</clus>
</clustering>
</event>
<event>
 9    2  0.1654290E-004  0.8928946E+02  0.7546771E-02  0.1310956E+00
         -1   -1    0    0    0  501 -0.00000000000E+00  0.00000000000E+00  0.16447190104E+03  0.16447190104E+03  0.00000000000E+00 0.  1.
         21   -1    0    0  501  502  0.00000000000E+00 -0.00000000000E+00 -0.74435719968E+02  0.74435719968E+02  0.00000000000E+00 0. -1.
         24    2    1    2    0    0  0.11369684366E+01  0.89949278112E+01  0.71282086398E+02  0.10684576045E+03  0.79073884824E+02 0.  0.
         23    2    1    2    0    0  0.27970016429E+02  0.69317787701E+01 -0.96393779939E+00  0.93465521935E+02  0.88907273260E+02 0.  0.
        -11    1    3    3    0    0 -0.22020833512E+02  0.37114270285E+02  0.39446574976E+02  0.58467242492E+02  0.00000000000E+00 0.  1.
         12    1    3    3    0    0  0.23157801948E+02 -0.28119342473E+02  0.31835511422E+02  0.48378517957E+02  0.00000000000E+00 0. -1.
        -13    1    4    4    0    0  0.37257648896E+02 -0.33642727019E+02  0.81471948328E+01  0.50856093698E+02  0.00000000000E+00 0. -1.
         13    1    4    4    0    0 -0.92876324666E+01  0.40574505789E+02 -0.91111326322E+01  0.42609428238E+02  0.00000000000E+00 0.  1.
         -2    1    1    2    0  502 -0.29106984866E+02 -0.15926706581E+02  0.19718032473E+02  0.38596338623E+02  0.00000000000E+00 0.  1.
<scales pt_clust_5="13000.00000" pt_clust_6="13000.00000" pt_clust_7="13000.00000" pt_clust_8="13000.00000" pt_clust_9="33.17948"></scales>
<clustering>
<clus scale="   33.179">  2  9  1 -1</clus>
<clus scale="   79.074">  5  6 -1 -1</clus>
<clus scale="   79.503">  1  5  2 -1</clus>
<clus scale="   88.907">  7  8 -1 -1</clus>
<clus scale="   33.179">  2  5  1 -1</clus>
</clustering>
</event>
<event>
 9    2  0.1654290E-004  0.2223709E+03  0.7546771E-02  0.1161420E+00
          2   -1    0    0  502    0 -0.00000000000E+00  0.00000000000E+00  0.46711111989E+03  0.46711111989E+03  0.00000000000E+00 0. -1.
         21   -1    0    0  501  502  0.00000000000E+00 -0.00000000000E+00 -0.30469131355E+03  0.30469131355E+03  0.00000000000E+00 0. -1.
         24    2    1    2    0    0 -0.46867651105E+02  0.49393493492E+02  0.43479139190E+01  0.11071349542E+03  0.87191053401E+02 0.  0.
         23    2    1    2    0    0 -0.10753200055E+03 -0.18321253995E+03  0.32436266006E+03  0.39765126223E+03  0.88235056400E+02 0.  0.
        -13    1    3    3    0    0 -0.66893740195E+02  0.46450188710E+02  0.21447445954E+02  0.84216301548E+02  0.00000000000E+00 0.  1.
         14    1    3    3    0    0  0.20026089090E+02  0.29433047816E+01 -0.17099532035E+02  0.26497193872E+02  0.00000000000E+00 0. -1.
        -11    1    4    4    0    0 -0.84857577101E+02 -0.58041312016E+02  0.14734995274E+03  0.17967084033E+03  0.00000000000E+00 0. -1.
         11    1    4    4    0    0 -0.22674423447E+02 -0.12517122793E+03  0.17701270731E+03  0.21798042190E+03  0.00000000000E+00 0.  1.
          1    1    1    2  501    0  0.15439965165E+03  0.13381904645E+03 -0.16629076764E+03  0.26343767579E+03  0.00000000000E+00 0. -1.
<scales pt_clust_5="13000.00000" pt_clust_6="13000.00000" pt_clust_7="13000.00000" pt_clust_8="13000.00000" pt_clust_9="204.11611"></scales>
<clustering>
<clus scale="   87.191">  5  6 -1 -1</clus>
<clus scale="   88.235">  7  8 -1 -1</clus>
<clus scale="  110.628">  1  5  2 -1</clus>
<clus scale="  204.116">  2  9  1 -1</clus>
<clus scale="  204.116">  2  5  1 -1</clus>
</clustering>
</event>
<event>
 9    2  0.1654290E-004  0.1052021E+03  0.7546771E-02  0.1277084E+00
         21   -1    0    0  501  502  0.00000000000E+00  0.00000000000E+00  0.77893104760E+02  0.77893104760E+02  0.00000000000E+00 0.  1.
          4   -1    0    0  502    0 -0.00000000000E+00 -0.00000000000E+00 -0.29054777888E+03  0.29054777888E+03  0.00000000000E+00 0. -1.
         23    2    1    2    0    0  0.24107913831E+02  0.32028262140E+02 -0.11906877794E+03  0.15775479009E+03  0.95405444456E+02 0.  0.
         24    2    1    2    0    0  0.90160071196E+01 -0.67786350311E+02  0.61239561833E-01  0.10511327014E+03  0.79828053572E+02 0.  0.
        -13    1    4    4    0    0  0.23425875557E+02 -0.37962323994E+02  0.35200145750E+02  0.56823938172E+02  0.00000000000E+00 0.  1.
         14    1    4    4    0    0 -0.14409868437E+02 -0.29824026318E+02 -0.35138906188E+02  0.48289331971E+02  0.00000000000E+00 0. -1.
        -13    1    3    3    0    0  0.41938533233E+02 -0.20966619271E+02 -0.45358782448E+02  0.65236943817E+02  0.00000000000E+00 0. -1.
         13    1    3    3    0    0 -0.17830619402E+02  0.52994881411E+02 -0.73709995488E+02  0.92517846272E+02  0.00000000000E+00 0.  1.
          3    1    1    2  501    0 -0.33123920950E+02  0.35758088171E+02 -0.93647135742E+02  0.10557282340E+03  0.00000000000E+00 0. -1.
<scales pt_clust_5="13000.00000" pt_clust_6="13000.00000" pt_clust_7="13000.00000" pt_clust_8="13000.00000" pt_clust_9="48.74256"></scales>
<clustering>
<clus scale="   48.743">  1  9  2 -1</clus>
<clus scale="   79.828">  5  6 -1 -1</clus>
<clus scale="   91.312">  1  5  2 -1</clus>
<clus scale="   95.405">  7  8 -1 -1</clus>
<clus scale="   48.743">  1  5  2 -1</clus>
</clustering>
</event>
<event>
 9    2  0.1654290E-004  0.1811951E+03  0.7546771E-02  0.1190436E+00
          2   -1    0    0  502    0 -0.00000000000E+00  0.00000000000E+00  0.32937129303E+03  0.32937129303E+03  0.00000000000E+00 0. -1.
         21   -1    0    0  501  502  0.00000000000E+00 -0.00000000000E+00 -0.17614570192E+03  0.17614570192E+03  0.00000000000E+00 0. -1.
         23    2    1    2    0    0 -0.32812635481E+02 -0.46176496325E+02  0.11302135294E+03  0.15495639917E+03  0.89603133669E+02 0.  0.
         24    2    1    2    0    0  0.34129365853E+02  0.18559590407E+03 -0.12065816003E+01  0.20511520730E+03  0.80374991170E+02 0.  0.
        -11    1    4    4    0    0  0.32673544708E+02  0.34755199695E+02 -0.22552681624E+02  0.52764646100E+02  0.00000000000E+00 0.  1.
         12    1    4    4    0    0  0.14558211447E+01  0.15084070438E+03  0.21346100024E+02  0.15235056120E+03  0.00000000000E+00 0. -1.
        -11    1    3    3    0    0 -0.24982649058E+02 -0.71871598667E+02  0.65638586584E+02  0.10048922080E+03  0.00000000000E+00 0.  1.
         11    1    3    3    0    0 -0.78299864233E+01  0.25695102342E+02  0.47382766355E+02  0.54467178367E+02  0.00000000000E+00 0. -1.
          1    1    1    2  501    0 -0.13167303720E+01 -0.13941940775E+03  0.41410819769E+02  0.14544538848E+03  0.00000000000E+00 0. -1.
<scales pt_clust_5="13000.00000" pt_clust_6="13000.00000" pt_clust_7="13000.00000" pt_clust_8="13000.00000" pt_clust_9="162.39321"></scales>
<clustering>
<clus scale="   80.375">  5  6 -1 -1</clus>
<clus scale="   89.603">  7  8 -1 -1</clus>
<clus scale="  106.008">  1  7  2 -1</clus>
<clus scale="  162.393">  2  9  1 -1</clus>
<clus scale="  162.393">  2  5  1 -1</clus>
</clustering>
</event>
<event>
 9    2  0.1654290E-004  0.1389033E+03  0.7546771E-02  0.1216912E+00
          2   -1    0    0  502    0 -0.00000000000E+00  0.00000000000E+00  0.18231053370E+03  0.18231053370E+03  0.00000000000E+00 0. -1.
         21   -1    0    0  501  502  0.00000000000E+00 -0.00000000000E+00 -0.18298126877E+03  0.18298126877E+03  0.00000000000E+00 0.  1.
         23    2    1    2    0    0  0.95863060266E+02 -0.35267839782E+02  0.90993769874E+02  0.16445319569E+03  0.91276725236E+02 0.  0.
         24    2    1    2    0    0 -0.92557174732E+02  0.69023739996E+02 -0.57631287888E+02  0.15279019847E+03  0.81806919800E+02 0.  0.
        -13    1    4    4    0    0 -0.60264171287E+02  0.85325747756E+02 -0.50036512380E+02  0.11582705272E+03  0.00000000000E+00 0.  1.
         14    1    4    4    0    0 -0.32293003446E+02 -0.16302007760E+02 -0.75947755083E+01  0.36963145748E+02  0.00000000000E+00 0. -1.
        -13    1    3    3    0    0  0.63265623472E+02 -0.54361487380E+02  0.95047626916E+02  0.12645853789E+03  0.00000000000E+00 0.  1.
         13    1    3    3    0    0  0.32597436794E+02  0.19093647598E+02 -0.40538570423E+01  0.37994657796E+02  0.00000000000E+00 0. -1.
          1    1    1    2  501    0 -0.33058855331E+01 -0.33755900214E+02 -0.34033217057E+02  0.48048408315E+02  0.00000000000E+00 0. -1.
<scales pt_clust_5="13000.00000" pt_clust_6="13000.00000" pt_clust_7="13000.00000" pt_clust_8="13000.00000" pt_clust_9="33.91739"></scales>
<clustering>
<clus scale="   33.917">  2  9  1 -1</clus>
<clus scale="   81.807">  5  6 -1 -1</clus>
<clus scale="   91.277">  7  8 -1 -1</clus>
<clus scale="  132.872">  2  5  1 -1</clus>
<clus scale="   33.917">  2  5  1 -1</clus>
</clustering>
</event>
<event>
 9    2  0.1654290E-004  0.2953449E+03  0.7546771E-02  0.1088066E+00
         21   -1    0    0  501  502  0.00000000000E+00  0.00000000000E+00  0.11444741393E+03  0.11444741393E+03  0.00000000000E+00 0.  1.
         -1   -1    0    0    0  501 -0.00000000000E+00 -0.00000000000E+00 -0.99654965206E+03  0.99654965206E+03  0.00000000000E+00 0.  1.
         23    2    1    2    0    0 -0.60183243626E+02  0.30727354068E+03 -0.48473884810E+03  0.58425445461E+03  0.91337096867E+02 0.  0.
         24    2    1    2    0    0  0.44253509810E+02 -0.23928992450E+03 -0.22439355429E+03  0.34021086459E+03  0.78567958352E+02 0.  0.
        -11    1    4    4    0    0  0.40724922859E+02 -0.42385276466E+02 -0.51222460325E+02  0.77966476416E+02  0.00000000000E+00 0.  1.
         12    1    4    4    0    0  0.35285869514E+01 -0.19690464803E+03 -0.17317109397E+03  0.26224438818E+03  0.00000000000E+00 0. -1.
        -13    1    3    3    0    0 -0.27227550165E+02  0.54709001612E+02 -0.16181850839E+03  0.17297295743E+03  0.00000000000E+00 0. -1.
         13    1    3    3    0    0 -0.32955693461E+02  0.25256453906E+03 -0.32292033971E+03  0.41128149718E+03  0.00000000000E+00 0.  1.
         -2    1    1    2    0  502  0.15929733816E+02 -0.67983616176E+02 -0.17296983573E+03  0.18653174679E+03  0.00000000000E+00 0.  1.
<scales pt_clust_5="13000.00000" pt_clust_6="13000.00000" pt_clust_7="13000.00000" pt_clust_8="13000.00000" pt_clust_9="69.82502"></scales>
<clustering>
<clus scale="   69.825">  1  9  2 -1</clus>
<clus scale="   78.568">  5  6 -1 -1</clus>
<clus scale="   91.337">  7  8 -1 -1</clus>
<clus scale="  291.649">  1  5  2 -1</clus>
<clus scale="   69.825">  1  5  2 -1</clus>
</clustering>
</event>
<event>
 9    2  0.1654290E-004  0.1066604E+03  0.7546771E-02  0.1273831E+00
         -3   -1    0    0    0  501 -0.00000000000E+00  0.00000000000E+00  0.11451107851E+03  0.11451107851E+03  0.00000000000E+00 0.  1.
         21   -1    0    0  501  502  0.00000000000E+00 -0.00000000000E+00 -0.65768195815E+03  0.65768195815E+03  0.00000000000E+00 0. -1.
         23    2    1    2    0    0  0.39909229908E+02 -0.40926589734E+02  0.62275046525E+02  0.12355914677E+03  0.90116307913E+02 0.  0.
         24    2    1    2    0    0  0.10324532256E+02  0.84239852221E+02 -0.55232641280E+03  0.56365652661E+03  0.73764931025E+02 0.  0.
        -13    1    4    4    0    0 -0.29557180171E+02  0.34342505154E+02 -0.16545197327E+03  0.17154413432E+03  0.00000000000E+00 0.  1.
         14    1    4    4    0    0  0.39881712427E+02  0.49897347067E+02 -0.38687443953E+03  0.39211239229E+03  0.00000000000E+00 0. -1.
        -13    1    3    3    0    0  0.12941354643E+02 -0.63272483544E+02  0.17878670391E+02  0.67011437000E+02  0.00000000000E+00 0. -1.
         13    1    3    3    0    0  0.26967875265E+02  0.22345893810E+02  0.44396376133E+02  0.56547709770E+02  0.00000000000E+00 0.  1.
         -4    1    1    2    0  502 -0.50233762164E+02 -0.43313262487E+02 -0.53119513373E+02  0.84977363276E+02  0.00000000000E+00 0.  1.
<scales pt_clust_5="13000.00000" pt_clust_6="13000.00000" pt_clust_7="13000.00000" pt_clust_8="13000.00000" pt_clust_9="66.32853"></scales>
<clustering>
<clus scale="   66.329">  2  9  1 -1</clus>
<clus scale="   73.765">  5  6 -1 -1</clus>
<clus scale="   90.116">  7  8 -1 -1</clus>
<clus scale="   93.256">  2  5  1 -1</clus>
<clus scale="   66.329">  2  5  1 -1</clus>
</clustering>
</event>
<event>
 9    2  0.1654290E-004  0.1194828E+03  0.7546771E-02  0.1247322E+00
         21   -1    0    0  501  502  0.00000000000E+00  0.00000000000E+00  0.23234968635E+03  0.23234968635E+03  0.00000000000E+00 0. -1.
          2   -1    0    0  502    0 -0.00000000000E+00 -0.00000000000E+00 -0.15957993868E+03  0.15957993868E+03  0.00000000000E+00 0. -1.
         24    2    1    2    0    0 -0.33217240866E+02 -0.84445970422E+02 -0.80755856992E+02  0.14536214479E+03  0.79838196919E+02 0.  0.
         23    2    1    2    0    0  0.61471153991E+02  0.17614274659E+02  0.53579646562E+02  0.12306058284E+03  0.90466364344E+02 0.  0.
        -13    1    3    3    0    0  0.16064724292E+02 -0.66348929822E+02 -0.48578540871E+02  0.83786218963E+02  0.00000000000E+00 0.  1.
         14    1    3    3    0    0 -0.49281965157E+02 -0.18097040601E+02 -0.32177316121E+02  0.61575925824E+02  0.00000000000E+00 0. -1.
        -13    1    4    4    0    0  0.38987916583E+02 -0.35407319217E+02  0.31589315758E+02  0.61413522645E+02  0.00000000000E+00 0. -1.
         13    1    4    4    0    0  0.22483237409E+02  0.53021593875E+02  0.21990330804E+02  0.61647060192E+02  0.00000000000E+00 0.  1.
          1    1    1    2  501    0 -0.28253913126E+02  0.66831695764E+02  0.99945958106E+02  0.12350689741E+03  0.00000000000E+00 0. -1.
<scales pt_clust_5="13000.00000" pt_clust_6="13000.00000" pt_clust_7="13000.00000" pt_clust_8="13000.00000" pt_clust_9="72.55866"></scales>
<clustering>
<clus scale="   72.559">  1  9  2 -1</clus>
<clus scale="   79.838">  5  6 -1 -1</clus>
<clus scale="   90.466">  7  8 -1 -1</clus>
<clus scale="  111.652">  2  5  1 -1</clus>
<clus scale="   72.559">  1  5  2 -1</clus>
</clustering>
</event>
<event>
 9    2  0.1654290E-004  0.8925949E+02  0.7546771E-02  0.1309596E+00
         21   -1    0    0  501  502  0.00000000000E+00  0.00000000000E+00  0.27024636986E+02  0.27024636986E+02  0.00000000000E+00 0.  1.
          2   -1    0    0  502    0 -0.00000000000E+00 -0.00000000000E+00 -0.87460768458E+03  0.87460768458E+03  0.00000000000E+00 0. -1.
         24    2    1    2    0    0 -0.12175120585E+02  0.60371357981E+01 -0.69789470572E+03  0.70267723497E+03  0.80706850415E+02 0.  0.
         23    2    1    2    0    0  0.91625188047E+01  0.25016681397E+02 -0.13706441720E+03  0.16529830710E+03  0.88470841353E+02 0.  0.
        -11    1    3    3    0    0 -0.18717222484E+02 -0.16345870865E+02 -0.68796574463E+02  0.73147047580E+02  0.00000000000E+00 0.  1.
         12    1    3    3    0    0  0.65421018994E+01  0.22383006663E+02 -0.62909813126E+03  0.62953018739E+03  0.00000000000E+00 0. -1.
        -13    1    4    4    0    0 -0.14938264657E+02  0.49550123608E+02 -0.51186941705E+02  0.72790586627E+02  0.00000000000E+00 0. -1.
         13    1    4    4    0    0  0.24100783461E+02 -0.24533442211E+02 -0.85877475491E+02  0.92507720472E+02  0.00000000000E+00 0.  1.
          1    1    1    2  501    0  0.30126017801E+01 -0.31053817195E+02 -0.12623924681E+02  0.33656779498E+02  0.00000000000E+00 0. -1.
<scales pt_clust_5="13000.00000" pt_clust_6="13000.00000" pt_clust_7="13000.00000" pt_clust_8="13000.00000" pt_clust_9="31.19960"></scales>
<clustering>
<clus scale="   31.200">  1  9  2 -1</clus>
<clus scale="   80.707">  5  6 -1 -1</clus>
<clus scale="   81.571">  2  5  1 -1</clus>
<clus scale="   88.471">  7  8 -1 -1</clus>
<clus scale="   31.200">  1  5  2 -1</clus>
</clustering>
</event>
<event>
 9    2  0.1654290E-004  0.1563780E+03  0.7546771E-02  0.1207344E+00
         21   -1    0    0  501  502  0.00000000000E+00  0.00000000000E+00  0.51929198827E+02  0.51929198827E+02  0.00000000000E+00 0. -1.
          2   -1    0    0  502    0 -0.00000000000E+00 -0.00000000000E+00 -0.10840492537E+04  0.10840492537E+04  0.00000000000E+00 0. -1.
         23    2    1    2    0    0  0.28021927791E+02  0.63002637253E+02 -0.33928221112E+03  0.35796892738E+03  0.90965781729E+02 0.  0.
         24    2    1    2    0    0 -0.10329343662E+03  0.56322194835E+02 -0.58017436247E+03  0.59746236895E+03  0.80729596554E+02 0.  0.
        -13    1    4    4    0    0 -0.13088511048E+02  0.30789146093E+02 -0.58154536261E+02  0.67091211990E+02  0.00000000000E+00 0.  1.
         14    1    4    4    0    0 -0.90204925569E+02  0.25533048742E+02 -0.52201982621E+03  0.53037115696E+03  0.00000000000E+00 0. -1.
        -13    1    3    3    0    0  0.54418547406E+02  0.64537452142E+02 -0.29005497449E+03  0.30208996881E+03  0.00000000000E+00 0.  1.
         13    1    3    3    0    0 -0.26396619615E+02 -0.15348148893E+01 -0.49227236635E+02  0.55878958567E+02  0.00000000000E+00 0. -1.
          1    1    1    2  501    0  0.75271508826E+02 -0.11932483209E+03 -0.11266348124E+03  0.18054715617E+03  0.00000000000E+00 0. -1.
<scales pt_clust_5="13000.00000" pt_clust_6="13000.00000" pt_clust_7="13000.00000" pt_clust_8="13000.00000" pt_clust_9="133.92834"></scales>
<clustering>
<clus scale="   80.730">  5  6 -1 -1</clus>
<clus scale="   90.966">  7  8 -1 -1</clus>
<clus scale="  114.146">  2  7  1 -1</clus>
<clus scale="  133.928">  1  9  2 -1</clus>
<clus scale="  133.928">  1  5  2 -1</clus>
</clustering>
</event>
<event>
 9    2  0.1654290E-004  0.1361931E+03  0.7546771E-02  0.1235477E+00
         21   -1    0    0  501  502  0.00000000000E+00  0.00000000000E+00  0.63497929696E+02  0.63497929696E+02  0.00000000000E+00 0. -1.
          2   -1    0    0  502    0 -0.00000000000E+00 -0.00000000000E+00 -0.61441062573E+03  0.61441062573E+03  0.00000000000E+00 0. -1.
         23    2    1    2    0    0 -0.55396838824E+01  0.21753642323E+02 -0.29549613904E+02  0.10029228066E+03  0.93174314198E+02 0.  0.
         24    2    1    2    0    0 -0.62031332924E+02  0.78072243277E+02 -0.25991612173E+03  0.28971774603E+03  0.80229798657E+02 0.  0.
        -13    1    4    4    0    0 -0.68601054481E+02  0.90207330986E+02 -0.21983194886E+03  0.24732479249E+03  0.00000000000E+00 0.  1.
         14    1    4    4    0    0  0.65697215563E+01 -0.12135087709E+02 -0.40084172875E+02  0.42392953543E+02  0.00000000000E+00 0. -1.
        -11    1    3    3    0    0  0.76534689588E+01 -0.22196501850E+02 -0.45918152929E+02  0.51572638578E+02  0.00000000000E+00 0.  1.
         11    1    3    3    0    0 -0.13193152841E+02  0.43950144174E+02  0.16368539025E+02  0.48719642082E+02  0.00000000000E+00 0. -1.
          1    1    1    2  501    0  0.67571016807E+02 -0.99825885600E+02 -0.26144696039E+03  0.28789852873E+03  0.00000000000E+00 0. -1.
<scales pt_clust_5="13000.00000" pt_clust_6="13000.00000" pt_clust_7="13000.00000" pt_clust_8="13000.00000" pt_clust_9="110.05336"></scales>
<clustering>
<clus scale="   80.230">  5  6 -1 -1</clus>
<clus scale="   93.174">  7  8 -1 -1</clus>
<clus scale="   95.840">  2  7  1 -1</clus>
<clus scale="  110.053">  1  9  2 -1</clus>
<clus scale="  110.053">  1  5  2 -1</clus>
</clustering>
</event>
<event>
 9    2  0.1654290E-004  0.1152428E+03  0.7546771E-02  0.1253894E+00
         21   -1    0    0  501  502  0.00000000000E+00  0.00000000000E+00  0.37899686379E+03  0.37899686379E+03  0.00000000000E+00 0. -1.
          2   -1    0    0  502    0 -0.00000000000E+00 -0.00000000000E+00 -0.25673116116E+03  0.25673116116E+03  0.00000000000E+00 0. -1.
         24    2    1    2    0    0  0.92025586993E+00 -0.80111778955E+02 -0.18644466983E+03  0.21923499825E+03  0.82967617483E+02 0.  0.
         23    2    1    2    0    0  0.19472798495E+02  0.42469272457E+02 -0.26604243839E+01  0.10219283884E+03  0.90848607408E+02 0.  0.
        -13    1    3    3    0    0 -0.64834599804E+01 -0.58537097113E+02 -0.40399943284E+02  0.71419762035E+02  0.00000000000E+00 0.  1.
         14    1    3    3    0    0  0.74037158504E+01 -0.21574681842E+02 -0.14604472655E+03  0.14781523622E+03  0.00000000000E+00 0. -1.
        -11    1    4    4    0    0 -0.22834557622E+02  0.32896388768E+02  0.28183063163E+02  0.48968096400E+02  0.00000000000E+00 0.  1.
         11    1    4    4    0    0  0.42307356118E+02  0.95728836894E+01 -0.30843487547E+02  0.53224742440E+02  0.00000000000E+00 0. -1.
          1    1    1    2  501    0 -0.20393054365E+02  0.37642506498E+02  0.31137079685E+03  0.31430018786E+03  0.00000000000E+00 0. -1.
<scales pt_clust_5="13000.00000" pt_clust_6="13000.00000" pt_clust_7="13000.00000" pt_clust_8="13000.00000" pt_clust_9="42.81162"></scales>
<clustering>
<clus scale="   42.812">  1  9  2 -1</clus>
<clus scale="   82.968">  5  6 -1 -1</clus>
<clus scale="   90.849">  7  8 -1 -1</clus>
<clus scale="  109.138">  2  5  1 -1</clus>
<clus scale="   42.812">  1  5  2 -1</clus>
</clustering>
</event>
<event>
 9    2  0.2426367E-004  0.2400877E+03  0.7546771E-02  0.1120316E+00
          2   -1    0    0  502    0 -0.00000000000E+00  0.00000000000E+00  0.88187443395E+03  0.88187443395E+03  0.00000000000E+00 0. -1.
         21   -1    0    0  501  502  0.00000000000E+00 -0.00000000000E+00 -0.25734930379E+03  0.25734930379E+03  0.00000000000E+00 0.  1.
         23    2    1    2    0    0 -0.18399338972E+03 -0.11355859359E+03  0.48439113417E+03  0.53831370166E+03  0.91639232342E+02 0.  0.
         24    2    1    2    0    0  0.23770522585E+03  0.12882385791E+03 -0.13994214995E+03  0.31532180600E+03  0.82125971811E+02 0.  0.
        -13    1    4    4    0    0  0.14828717180E+03  0.10349401209E+03 -0.12815926326E+03  0.22164136035E+03  0.00000000000E+00 0.  1.
         14    1    4    4    0    0  0.89418054047E+02  0.25329845825E+02 -0.11782886690E+02  0.93680445653E+02  0.00000000000E+00 0. -1.
        -13    1    3    3    0    0 -0.14506794705E+03 -0.45803588720E+02  0.26688898863E+03  0.30720092814E+03  0.00000000000E+00 0. -1.
         13    1    3    3    0    0 -0.38925442668E+02 -0.67755004866E+02  0.21750214554E+03  0.23111277352E+03  0.00000000000E+00 0.  1.
          1    1    1    2  501    0 -0.53711836127E+02 -0.15265264324E+02  0.28007614593E+03  0.28558823007E+03  0.00000000000E+00 0. -1.
<scales pt_clust_5="13000.00000" pt_clust_6="13000.00000" pt_clust_7="13000.00000" pt_clust_8="13000.00000" pt_clust_9="55.83899"></scales>
<clustering>
<clus scale="   55.839">  2  9  1 -1</clus>
<clus scale="   82.126">  5  6 -1 -1</clus>
<clus scale="   91.639">  7  8 -1 -1</clus>
<clus scale="  236.620">  2  5  1 -1</clus>
<clus scale="   55.839">  2  5  1 -1</clus>
</clustering>
</event>
<event>
 9    2  0.1654290E-004  0.1189153E+03  0.7546771E-02  0.1253243E+00
          4   -1    0    0  502    0 -0.00000000000E+00  0.00000000000E+00  0.16894426136E+03  0.16894426136E+03  0.00000000000E+00 0. -1.
         21   -1    0    0  501  502  0.00000000000E+00 -0.00000000000E+00 -0.22324688682E+03  0.22324688682E+03  0.00000000000E+00 0. -1.
         24    2    1    2    0    0  0.36752280394E+02  0.49658575409E+02  0.11112332557E+03  0.15025110057E+03  0.80064321087E+02 0.  0.
         23    2    1    2    0    0 -0.54884535408E+02 -0.28837598076E+02 -0.61396303746E+02  0.13430892163E+03  0.10210514691E+03 0.  0.
        -11    1    3    3    0    0  0.17174603590E+02 -0.19604812198E+02  0.14691796901E+02  0.29919300894E+02  0.00000000000E+00 0.  1.
         12    1    3    3    0    0  0.19577676804E+02  0.69263387608E+02  0.96431528666E+02  0.12033179967E+03  0.00000000000E+00 0. -1.
        -11    1    4    4    0    0 -0.78595856312E+02 -0.45166733945E+02 -0.47500405149E+02  0.10234075910E+03  0.00000000000E+00 0.  1.
         11    1    4    4    0    0  0.23711320903E+02  0.16329135868E+02 -0.13895898596E+02  0.31968162521E+02  0.00000000000E+00 0. -1.
          3    1    1    2  501    0  0.18132255015E+02 -0.20820977333E+02 -0.10402964728E+03  0.10763112599E+03  0.00000000000E+00 0. -1.
<scales pt_clust_5="13000.00000" pt_clust_6="13000.00000" pt_clust_7="13000.00000" pt_clust_8="13000.00000" pt_clust_9="27.60963"></scales>
<clustering>
<clus scale="   27.610">  2  9  1 -1</clus>
<clus scale="   80.064">  5  6 -1 -1</clus>
<clus scale="  100.626">  1  5  2 -1</clus>
<clus scale="  102.105">  7  8 -1 -1</clus>
<clus scale="   27.610">  2  5  1 -1</clus>
</clustering>
</event>
<event>
 9    2  0.1654290E-004  0.1948629E+03  0.7546771E-02  0.1155278E+00
          2   -1    0    0  502    0 -0.00000000000E+00  0.00000000000E+00  0.18831335274E+04  0.18831335274E+04  0.00000000000E+00 0. -1.
         21   -1    0    0  501  502  0.00000000000E+00 -0.00000000000E+00 -0.56370057781E+02  0.56370057781E+02  0.00000000000E+00 0. -1.
         23    2    1    2    0    0 -0.15622948462E+03 -0.93178883294E+02  0.91302849250E+03  0.93539376455E+03  0.90832320677E+02 0.  0.
         24    2    1    2    0    0  0.16358278933E+03 -0.17873479644E+02  0.16189161262E+03  0.24407354312E+03  0.79273009113E+02 0.  0.
        -13    1    4    4    0    0  0.23946824117E+02 -0.32073425425E+02  0.53072753443E+02  0.66474597869E+02  0.00000000000E+00 0.  1.
         14    1    4    4    0    0  0.13963596521E+03  0.14199945781E+02  0.10881885918E+03  0.17759894525E+03  0.00000000000E+00 0. -1.
        -11    1    3    3    0    0 -0.13869282019E+02  0.17869596654E+02  0.90744658691E+02  0.93521508484E+02  0.00000000000E+00 0.  1.
         11    1    3    3    0    0 -0.14236020260E+03 -0.11104847995E+03  0.82228383381E+03  0.84187225606E+03  0.00000000000E+00 0. -1.
          1    1    1    2  501    0 -0.73533047038E+01  0.11105236294E+03  0.75184336450E+03  0.76003627752E+03  0.00000000000E+00 0. -1.
<scales pt_clust_5="13000.00000" pt_clust_6="13000.00000" pt_clust_7="13000.00000" pt_clust_8="13000.00000" pt_clust_9="111.29560"></scales>
<clustering>
<clus scale="   79.273">  5  6 -1 -1</clus>
<clus scale="   90.832">  7  8 -1 -1</clus>
<clus scale="  111.296">  2  9  1 -1</clus>
<clus scale="  189.751">  2  5  1 -1</clus>
<clus scale="  111.296">  2  5  1 -1</clus>
</clustering>
</event>
<event>
 9    2  0.1654290E-004  0.1876183E+03  0.7546771E-02  0.1161920E+00
          2   -1    0    0  502    0 -0.00000000000E+00  0.00000000000E+00  0.12048142222E+04  0.12048142222E+04  0.00000000000E+00 0. -1.
         21   -1    0    0  501  502  0.00000000000E+00 -0.00000000000E+00 -0.63566005595E+02  0.63566005595E+02  0.00000000000E+00 0. -1.
         23    2    1    2    0    0 -0.14084573847E+03  0.33751642150E+02  0.31484416599E+03  0.35775708769E+03  0.88806472386E+02 0.  0.
         24    2    1    2    0    0  0.20736953861E+03  0.43116294250E+02  0.30332946300E+03  0.37776188252E+03  0.76381518639E+02 0.  0.
        -11    1    4    4    0    0  0.34123922998E+02 -0.21408733448E+02  0.54653148547E+02  0.67895085497E+02  0.00000000000E+00 0.  1.
         12    1    4    4    0    0  0.17324561561E+03  0.64525027699E+02  0.24867631446E+03  0.30986679703E+03  0.00000000000E+00 0. -1.
        -11    1    3    3    0    0 -0.12719552467E+03  0.99085780137E+01  0.30114878838E+03  0.32705882369E+03  0.00000000000E+00 0. -1.
         11    1    3    3    0    0 -0.13650213798E+02  0.23843064136E+02  0.13695377614E+02  0.30698263992E+02  0.00000000000E+00 0.  1.
          1    1    1    2  501    0 -0.66523800139E+02 -0.76867936400E+02  0.52307458765E+03  0.53286125762E+03  0.00000000000E+00 0. -1.
<scales pt_clust_5="13000.00000" pt_clust_6="13000.00000" pt_clust_7="13000.00000" pt_clust_8="13000.00000" pt_clust_9="101.65680"></scales>
<clustering>
<clus scale="   76.382">  5  6 -1 -1</clus>
<clus scale="   88.806">  7  8 -1 -1</clus>
<clus scale="  101.657">  2  9  1 -1</clus>
<clus scale="  182.066">  2  5  1 -1</clus>
<clus scale="  101.657">  2  5  1 -1</clus>
</clustering>
</event>
<event>
 9    2  0.1654290E-004  0.8586532E+02  0.7546771E-02  0.1315811E+00
         21   -1    0    0  501  502  0.00000000000E+00  0.00000000000E+00  0.59284797064E+03  0.59284797064E+03  0.00000000000E+00 0.  1.
         -3   -1    0    0    0  501 -0.00000000000E+00 -0.00000000000E+00 -0.25515125792E+03  0.25515125792E+03  0.00000000000E+00 0.  1.
         23    2    1    2    0    0 -0.58454008907E+01  0.23348326879E+02 -0.22432166443E+03  0.24032210990E+03  0.82796100729E+02 0.  0.
         24    2    1    2    0    0 -0.74966719612E+02 -0.10068429607E+02  0.13241143394E+03  0.17033391231E+03  0.75891182100E+02 0.  0.
        -13    1    4    4    0    0 -0.34451360357E+02  0.31506877914E+02  0.41476810086E+02  0.62449222263E+02  0.00000000000E+00 0.  1.
         14    1    4    4    0    0 -0.40515359255E+02 -0.41575307521E+02  0.90934623849E+02  0.10788469004E+03  0.00000000000E+00 0. -1.
        -13    1    3    3    0    0  0.24025548057E+02  0.43751670474E+02 -0.13664525055E+03  0.14547632153E+03  0.00000000000E+00 0.  1.
         13    1    3    3    0    0 -0.29870948947E+02 -0.20403343594E+02 -0.87676413877E+02  0.94845788368E+02  0.00000000000E+00 0. -1.
         -4    1    1    2    0  502  0.80812120503E+02 -0.13279897272E+02  0.42960694321E+03  0.43734320635E+03  0.00000000000E+00 0.  1.
<scales pt_clust_5="13000.00000" pt_clust_6="13000.00000" pt_clust_7="13000.00000" pt_clust_8="13000.00000" pt_clust_9="81.89600"></scales>
<clustering>
<clus scale="   75.891">  5  6 -1 -1</clus>
<clus scale="   81.896">  1  9  2 -1</clus>
<clus scale="   81.896">  1  5  2 -1</clus>
<clus scale="   82.796">  7  8 -1 -1</clus>
<clus scale="   81.896">  1  5  2 -1</clus>
</clustering>
</event>
<event>
 9    2  0.1654290E-004  0.2425163E+03  0.7546771E-02  0.1134305E+00
         21   -1    0    0  501  502  0.00000000000E+00  0.00000000000E+00  0.27118890229E+03  0.27118890229E+03  0.00000000000E+00 0. -1.
          4   -1    0    0  502    0 -0.00000000000E+00 -0.00000000000E+00 -0.44005177088E+03  0.44005177088E+03  0.00000000000E+00 0. -1.
         23    2    1    2    0    0  0.53809438788E+02 -0.12563297460E+03 -0.53880073139E+02  0.17125057880E+03  0.88003400210E+02 0.  0.
         24    2    1    2    0    0  0.15531722035E+03  0.20948716426E+03 -0.14992396362E+03  0.31198489725E+03  0.82759110176E+02 0.  0.
        -13    1    4    4    0    0  0.42176519158E+02  0.53596926716E+02 -0.50275687663E+00  0.68203680884E+02  0.00000000000E+00 0.  1.
         14    1    4    4    0    0  0.11314070119E+03  0.15589023755E+03 -0.14942120674E+03  0.24378121636E+03  0.00000000000E+00 0. -1.
        -13    1    3    3    0    0 -0.17254277710E+02 -0.12112438455E+02 -0.27662170314E+02  0.34779547597E+02  0.00000000000E+00 0.  1.
         13    1    3    3    0    0  0.71063716498E+02 -0.11352053614E+03 -0.26217902826E+02  0.13647103120E+03  0.00000000000E+00 0. -1.
          3    1    1    2  501    0 -0.20912665913E+03 -0.83854189663E+02  0.34941168166E+02  0.22800519713E+03  0.00000000000E+00 0. -1.
<scales pt_clust_5="13000.00000" pt_clust_6="13000.00000" pt_clust_7="13000.00000" pt_clust_8="13000.00000" pt_clust_9="227.95854"></scales>
<clustering>
<clus scale="   82.759">  5  6 -1 -1</clus>
<clus scale="   88.003">  7  8 -1 -1</clus>
<clus scale="  162.554">  2  7  1 -1</clus>
<clus scale="  227.959">  1  9  2 -1</clus>
<clus scale="  227.959">  1  5  2 -1</clus>
</clustering>
</event>
<event>
 9    2  0.1654290E-004  0.1557707E+03  0.7546771E-02  0.1214156E+00
          2   -1    0    0  502    0 -0.00000000000E+00  0.00000000000E+00  0.33169313711E+03  0.33169313711E+03  0.00000000000E+00 0. -1.
         21   -1    0    0  501  502  0.00000000000E+00 -0.00000000000E+00 -0.20838694346E+03  0.20838694346E+03  0.00000000000E+00 0. -1.
         23    2    1    2    0    0  0.15052869719E+02  0.42062807720E+02  0.21158437410E+03  0.23396945510E+03  0.89319034222E+02 0.  0.
         24    2    1    2    0    0 -0.84103253087E+02  0.86021503771E+02 -0.22657129141E+02  0.14648710380E+03  0.80449175191E+02 0.  0.
        -11    1    4    4    0    0 -0.27113376345E+02 -0.11813255888E+02 -0.14586736889E+02  0.32976674857E+02  0.00000000000E+00 0.  1.
         12    1    4    4    0    0 -0.56989876741E+02  0.97834759659E+02 -0.80703922516E+01  0.11351042895E+03  0.00000000000E+00 0. -1.
        -11    1    3    3    0    0 -0.15603788196E+02  0.37731195989E+02  0.19423209016E+03  0.19847726874E+03  0.00000000000E+00 0. -1.
         11    1    3    3    0    0  0.30656657915E+02  0.43316117310E+01  0.17352283943E+02  0.35492186362E+02  0.00000000000E+00 0.  1.
          1    1    1    2  501    0  0.69050383368E+02 -0.12808431149E+03 -0.65621051313E+02  0.15962352167E+03  0.00000000000E+00 0. -1.
<scales pt_clust_5="13000.00000" pt_clust_6="13000.00000" pt_clust_7="13000.00000" pt_clust_8="13000.00000" pt_clust_9="133.38828"></scales>
<clustering>
<clus scale="   80.449">  5  6 -1 -1</clus>
<clus scale="   89.319">  7  8 -1 -1</clus>
<clus scale="   99.869">  1  7  2 -1</clus>
<clus scale="  133.388">  2  9  1 -1</clus>
<clus scale="  133.388">  2  5  1 -1</clus>
</clustering>
</event>
<event>
 9    2  0.1654290E-004  0.1541501E+03  0.7546771E-02  0.1205258E+00
         21   -1    0    0  501  502  0.00000000000E+00  0.00000000000E+00  0.31229658433E+02  0.31229658433E+02  0.00000000000E+00 0. -1.
          2   -1    0    0  502    0 -0.00000000000E+00 -0.00000000000E+00 -0.14436691180E+04  0.14436691180E+04  0.00000000000E+00 0. -1.
         24    2    1    2    0    0  0.35170449053E+02 -0.88846077550E+02 -0.37064963514E+03  0.39104139885E+03  0.80010234361E+02 0.  0.
         23    2    1    2    0    0 -0.13289470893E+03 -0.28747498343E+01 -0.66118767713E+03  0.68034686263E+03  0.89629466476E+02 0.  0.
        -11    1    3    3    0    0 -0.25189743098E+02 -0.36404006525E+02 -0.11743574798E+03  0.12550270815E+03  0.00000000000E+00 0.  1.
         12    1    3    3    0    0  0.60360192151E+02 -0.52442071024E+02 -0.25321388716E+03  0.26553869070E+03  0.00000000000E+00 0. -1.
        -11    1    4    4    0    0 -0.31940782215E+02  0.14115758783E+02 -0.52131333786E+02  0.62746666659E+02  0.00000000000E+00 0.  1.
         11    1    4    4    0    0 -0.10095392672E+03 -0.16990508617E+02 -0.60905634334E+03  0.61760019597E+03  0.00000000000E+00 0. -1.
          1    1    1    2  501    0  0.97724259878E+02  0.91720827384E+02 -0.38060214727E+03  0.40351051492E+03  0.00000000000E+00 0. -1.
<scales pt_clust_5="13000.00000" pt_clust_6="13000.00000" pt_clust_7="13000.00000" pt_clust_8="13000.00000" pt_clust_9="125.41455"></scales>
<clustering>
<clus scale="   80.010">  5  6 -1 -1</clus>
<clus scale="   89.629">  7  8 -1 -1</clus>
<clus scale="  124.628">  2  5  1 -1</clus>
<clus scale="  125.415">  1  9  2 -1</clus>
<clus scale="  125.415">  1  5  2 -1</clus>
</clustering>
</event>
<event>
 9    2  0.1654290E-004  0.1136799E+03  0.7546771E-02  0.1257220E+00
          2   -1    0    0  502    0 -0.00000000000E+00  0.00000000000E+00  0.59439312891E+03  0.59439312891E+03  0.00000000000E+00 0. -1.
         21   -1    0    0  501  502  0.00000000000E+00 -0.00000000000E+00 -0.39443254685E+02  0.39443254685E+02  0.00000000000E+00 0. -1.
         24    2    1    2    0    0 -0.26872992313E+00 -0.47834659574E+02  0.16046347924E+03  0.18659457063E+03  0.82345484074E+02 0.  0.
         23    2    1    2    0    0 -0.35646151699E+01  0.10196964704E+03  0.18137769297E+03  0.22733135328E+03  0.91494050509E+02 0.  0.
        -13    1    3    3    0    0  0.23516717938E+02 -0.19952995654E+02  0.11063586222E+02  0.32765240702E+02  0.00000000000E+00 0.  1.
         14    1    3    3    0    0 -0.23785447861E+02 -0.27881663919E+02  0.14939989302E+03  0.15382932993E+03  0.00000000000E+00 0. -1.
        -13    1    4    4    0    0 -0.24891229673E+02  0.10409509960E+03  0.17470678688E+03  0.20488490540E+03  0.00000000000E+00 0. -1.
         13    1    4    4    0    0  0.21326614503E+02 -0.21254525595E+01  0.66709060883E+01  0.22446447888E+02  0.00000000000E+00 0.  1.
          1    1    1    2  501    0  0.38333450930E+01 -0.54134987470E+02  0.21310870201E+03  0.21991045968E+03  0.00000000000E+00 0. -1.
<scales pt_clust_5="13000.00000" pt_clust_6="13000.00000" pt_clust_7="13000.00000" pt_clust_8="13000.00000" pt_clust_9="54.27057"></scales>
<clustering>
<clus scale="   54.271">  2  9  1 -1</clus>
<clus scale="   82.345">  5  6 -1 -1</clus>
<clus scale="   91.494">  7  8 -1 -1</clus>
<clus scale="  106.455">  1  5  2 -1</clus>
<clus scale="   54.271">  2  5  1 -1</clus>
</clustering>
</event>
<event>
 9    2  0.1654290E-004  0.1513688E+03  0.7546771E-02  0.1227037E+00
         21   -1    0    0  501  502  0.00000000000E+00  0.00000000000E+00  0.26805111962E+03  0.26805111962E+03  0.00000000000E+00 0. -1.
          4   -1    0    0  502    0 -0.00000000000E+00 -0.00000000000E+00 -0.16033171689E+03  0.16033171689E+03  0.00000000000E+00 0. -1.
         24    2    1    2    0    0 -0.19405883178E+02 -0.94951882842E-01 -0.61483736357E+02  0.10334737152E+03  0.80770242331E+02 0.  0.
         23    2    1    2    0    0 -0.10315918243E+03 -0.37696985632E+02  0.52208552122E+02  0.15143201102E+03  0.90238802088E+02 0.  0.
        -13    1    3    3    0    0  0.25930363476E+02 -0.20528839443E+02 -0.20538683633E+02  0.38931407941E+02  0.00000000000E+00 0.  1.
         14    1    3    3    0    0 -0.45336246654E+02  0.20433887560E+02 -0.40945052724E+02  0.64415963581E+02  0.00000000000E+00 0. -1.
        -13    1    4    4    0    0 -0.25790563057E+02  0.12597134742E+02 -0.19386394707E+02  0.34636299546E+02  0.00000000000E+00 0.  1.
         13    1    4    4    0    0 -0.77368619377E+02 -0.50294120374E+02  0.71594946829E+02  0.11679571148E+03  0.00000000000E+00 0. -1.
          3    1    1    2  501    0  0.12256506561E+03  0.37791937515E+02  0.11699458696E+03  0.17360345396E+03  0.00000000000E+00 0. -1.
<scales pt_clust_5="13000.00000" pt_clust_6="13000.00000" pt_clust_7="13000.00000" pt_clust_8="13000.00000" pt_clust_9="121.52968"></scales>
<clustering>
<clus scale="   80.770">  5  6 -1 -1</clus>
<clus scale="   83.069">  2  5  1 -1</clus>
<clus scale="   90.239">  7  8 -1 -1</clus>
<clus scale="  121.530">  1  9  2 -1</clus>
<clus scale="  121.530">  1  5  2 -1</clus>
</clustering>
</event>
<event>
 9    2  0.1654290E-004  0.1298173E+03  0.7546771E-02  0.1228577E+00
         -1   -1    0    0    0  501 -0.00000000000E+00  0.00000000000E+00  0.26800052574E+03  0.26800052574E+03  0.00000000000E+00 0.  1.
         21   -1    0    0  501  502  0.00000000000E+00 -0.00000000000E+00 -0.11132226751E+03  0.11132226751E+03  0.00000000000E+00 0.  1.
         24    2    1    2    0    0 -0.37785462216E+02 -0.10509199603E+03  0.10829566924E+03  0.17671720634E+03  0.83838835014E+02 0.  0.
         23    2    1    2    0    0  0.49504072653E+02  0.50297588006E+02 -0.20225447992E+02  0.11402333292E+03  0.87245350223E+02 0.  0.
        -11    1    3    3    0    0  0.12688355322E+02 -0.79740957997E+02  0.47265285997E+02  0.93560793089E+02  0.00000000000E+00 0.  1.
         12    1    3    3    0    0 -0.50473817538E+02 -0.25351038034E+02  0.61030383246E+02  0.83156413255E+02  0.00000000000E+00 0. -1.
        -11    1    4    4    0    0  0.15370474783E+02  0.51666116901E+02  0.23273691572E+02  0.58713744985E+02  0.00000000000E+00 0. -1.
         11    1    4    4    0    0  0.34133597870E+02 -0.13685288951E+01 -0.43499139564E+02  0.55309587937E+02  0.00000000000E+00 0.  1.
         -2    1    1    2    0  502 -0.11718610437E+02  0.54794408025E+02  0.68608036979E+02  0.88582253976E+02  0.00000000000E+00 0.  1.
<scales pt_clust_5="13000.00000" pt_clust_6="13000.00000" pt_clust_7="13000.00000" pt_clust_8="13000.00000" pt_clust_9="56.03353"></scales>
<clustering>
<clus scale="   56.034">  2  9  1 -1</clus>
<clus scale="   83.839">  5  6 -1 -1</clus>
<clus scale="   87.245">  7  8 -1 -1</clus>
<clus scale="  127.553">  1  5  2 -1</clus>
<clus scale="   56.034">  2  5  1 -1</clus>
</clustering>
</event>
<event>
 9    2  0.1654290E-004  0.9300144E+02  0.7546771E-02  0.1303495E+00
          4   -1    0    0  502    0 -0.00000000000E+00  0.00000000000E+00  0.74901830727E+03  0.74901830727E+03  0.00000000000E+00 0. -1.
         21   -1    0    0  501  502  0.00000000000E+00 -0.00000000000E+00 -0.17375227069E+03  0.17375227069E+03  0.00000000000E+00 0. -1.
         24    2    1    2    0    0  0.19523979164E+01  0.18651236874E+02  0.63988846737E+03  0.64490980512E+03  0.78100739836E+02 0.  0.
         23    2    1    2    0    0  0.47254880070E+02 -0.33346767454E+02  0.73580997286E+02  0.13042433786E+03  0.90836744517E+02 0.  0.
        -13    1    3    3    0    0 -0.67717494363E+01  0.31739206024E+02  0.10756926588E+03  0.11235826961E+03  0.00000000000E+00 0.  1.
         14    1    3    3    0    0  0.87241473527E+01 -0.13087969150E+02  0.53231920150E+03  0.53255153550E+03  0.00000000000E+00 0. -1.
        -13    1    4    4    0    0 -0.13645849478E+02  0.18742314252E+02  0.25246279766E+01  0.23320748228E+02  0.00000000000E+00 0.  1.
         13    1    4    4    0    0  0.60900729549E+02 -0.52089081706E+02  0.71056369310E+02  0.10710358963E+03  0.00000000000E+00 0. -1.
          3    1    1    2  501    0 -0.49207277987E+02  0.14695530581E+02 -0.13820342808E+03  0.14743643498E+03  0.00000000000E+00 0. -1.
<scales pt_clust_5="13000.00000" pt_clust_6="13000.00000" pt_clust_7="13000.00000" pt_clust_8="13000.00000" pt_clust_9="51.35479"></scales>
<clustering>
<clus scale="   51.355">  2  9  1 -1</clus>
<clus scale="   78.101">  5  6 -1 -1</clus>
<clus scale="   80.608">  1  5  2 -1</clus>
<clus scale="   90.837">  7  8 -1 -1</clus>
<clus scale="   51.355">  2  5  1 -1</clus>
</clustering>
</event>
<event>
 9    2  0.1654290E-004  0.1647163E+03  0.7546771E-02  0.1184969E+00
          4   -1    0    0  502    0 -0.00000000000E+00  0.00000000000E+00  0.17581940496E+04  0.17581940496E+04  0.00000000000E+00 0. -1.
         21   -1    0    0  501  502  0.00000000000E+00 -0.00000000000E+00 -0.23345343489E+02  0.23345343489E+02  0.00000000000E+00 0.  1.
         23    2    1    2    0    0  0.11778802310E+03  0.43269013131E+02  0.74194838737E+03  0.75800623319E+03  0.91322582894E+02 0.  0.
         24    2    1    2    0    0 -0.16103523389E+03  0.63774771545E+01  0.66235045961E+03  0.68648968406E+03  0.81159942105E+02 0.  0.
        -13    1    4    4    0    0 -0.13640579101E+03 -0.26907225197E+02  0.51206483824E+03  0.53060431317E+03  0.00000000000E+00 0.  1.
         14    1    4    4    0    0 -0.24629442877E+02  0.33284702351E+02  0.15028562137E+03  0.15588537089E+03  0.00000000000E+00 0. -1.
        -11    1    3    3    0    0  0.26166399999E+02 -0.19390624147E+02  0.73330792325E+02  0.80237658844E+02  0.00000000000E+00 0.  1.
         11    1    3    3    0    0  0.91621623104E+02  0.62659637278E+02  0.66861759505E+03  0.67776857435E+03  0.00000000000E+00 0. -1.
          3    1    1    2  501    0  0.43247210784E+02 -0.49646490285E+02  0.33054985916E+03  0.33704347587E+03  0.00000000000E+00 0. -1.
<scales pt_clust_5="13000.00000" pt_clust_6="13000.00000" pt_clust_7="13000.00000" pt_clust_8="13000.00000" pt_clust_9="65.84147"></scales>
<clustering>
<clus scale="   65.841">  2  9  1 -1</clus>
<clus scale="   81.160">  5  6 -1 -1</clus>
<clus scale="   91.323">  7  8 -1 -1</clus>
<clus scale="  159.307">  2  5  1 -1</clus>
<clus scale="   65.841">  2  5  1 -1</clus>
</clustering>
</event>
<event>
 9    2  0.1654290E-004  0.3913019E+03  0.7546771E-02  0.1087762E+00
         -1   -1    0    0    0  501 -0.00000000000E+00  0.00000000000E+00  0.77334368146E+03  0.77334368146E+03  0.00000000000E+00 0.  1.
         21   -1    0    0  501  502  0.00000000000E+00 -0.00000000000E+00 -0.31989384520E+03  0.31989384520E+03  0.00000000000E+00 0. -1.
         24    2    1    2    0    0  0.75669973323E+02  0.63174163889E+02 -0.32040931228E+02  0.13041575628E+03  0.79150037053E+02 0.  0.
         23    2    1    2    0    0  0.14658702161E+03 -0.36035671541E+03  0.70041055680E+02  0.40576333200E+03  0.91615582010E+02 0.  0.
        -11    1    3    3    0    0  0.84932397112E+02  0.70693746444E+02 -0.17949650431E+02  0.11195225686E+03  0.00000000000E+00 0.  1.
         12    1    3    3    0    0 -0.92624237890E+01 -0.75195825544E+01 -0.14091280796E+02  0.18463499417E+02  0.00000000000E+00 0. -1.
        -13    1    4    4    0    0  0.49145741684E+01 -0.55624179766E+02  0.39343853238E+02  0.68309158987E+02  0.00000000000E+00 0.  1.
         13    1    4    4    0    0  0.14167244744E+03 -0.30473253565E+03  0.30697202442E+02  0.33745417301E+03  0.00000000000E+00 0. -1.
         -2    1    1    2    0  502 -0.22225699493E+03  0.29718255152E+03  0.41544971181E+03  0.55705843838E+03  0.00000000000E+00 0.  1.
<scales pt_clust_5="13000.00000" pt_clust_6="13000.00000" pt_clust_7="13000.00000" pt_clust_8="13000.00000" pt_clust_9="380.42592"></scales>
<clustering>
<clus scale="   79.150">  5  6 -1 -1</clus>
<clus scale="   91.616">  7  8 -1 -1</clus>
<clus scale="  126.419">  1  5  2 -1</clus>
<clus scale="  380.426">  2  9  1 -1</clus>
<clus scale="  380.426">  2  5  1 -1</clus>
</clustering>
</event>
<event>
 9    2  0.1654290E-004  0.9258801E+02  0.7546771E-02  0.1303678E+00
          2   -1    0    0  502    0 -0.00000000000E+00  0.00000000000E+00  0.77923186985E+03  0.77923186985E+03  0.00000000000E+00 0. -1.
         21   -1    0    0  501  502  0.00000000000E+00 -0.00000000000E+00 -0.34401819422E+02  0.34401819422E+02  0.00000000000E+00 0.  1.
         24    2    1    2    0    0 -0.13133665283E+02 -0.72577508282E+01  0.67018832073E+03  0.67509750666E+03  0.79869206507E+02 0.  0.
         23    2    1    2    0    0  0.11216055671E+02  0.27622723315E+02  0.65053647002E+02  0.11594546193E+03  0.91228057115E+02 0.  0.
        -11    1    3    3    0    0 -0.78510370890E+01  0.30102154623E+02  0.13317290555E+03  0.13675818538E+03  0.00000000000E+00 0.  1.
         12    1    3    3    0    0 -0.52826281939E+01 -0.37359905451E+02  0.53701541518E+03  0.53833932128E+03  0.00000000000E+00 0. -1.
        -11    1    4    4    0    0  0.41774815255E+02  0.42258616632E+02  0.54034222464E+02  0.80315770970E+02  0.00000000000E+00 0.  1.
         11    1    4    4    0    0 -0.30558759584E+02 -0.14635893318E+02  0.11019424538E+02  0.35629690956E+02  0.00000000000E+00 0. -1.
          1    1    1    2  501    0  0.19176096114E+01 -0.20364972487E+02  0.95880826903E+01  0.22590720676E+02  0.00000000000E+00 0. -1.
<scales pt_clust_5="13000.00000" pt_clust_6="13000.00000" pt_clust_7="13000.00000" pt_clust_8="13000.00000" pt_clust_9="20.45506"></scales>
<clustering>
<clus scale="   20.455">  2  9  1 -1</clus>
<clus scale="   79.869">  5  6 -1 -1</clus>
<clus scale="   81.419">  1  5  2 -1</clus>
<clus scale="   91.228">  7  8 -1 -1</clus>
<clus scale="   20.455">  2  5  1 -1</clus>
</clustering>
</event>
<event>
 9    2  0.1654290E-004  0.1028238E+03  0.7546771E-02  0.1278524E+00
         21   -1    0    0  501  502  0.00000000000E+00  0.00000000000E+00  0.50733109811E+02  0.50733109811E+02  0.00000000000E+00 0. -1.
          2   -1    0    0  502    0 -0.00000000000E+00 -0.00000000000E+00 -0.63743387840E+03  0.63743387840E+03  0.00000000000E+00 0. -1.
         24    2    1    2    0    0 -0.62160883077E+02 -0.10237087817E+02 -0.43330937635E+03  0.44530332776E+03  0.81051000802E+02 0.  0.
         23    2    1    2    0    0 -0.97657730856E+01  0.49539143304E+02 -0.10726464530E+03  0.14881169494E+03  0.89942867292E+02 0.  0.
        -11    1    3    3    0    0 -0.53556647569E+02 -0.43017379130E+02 -0.28228647602E+03  0.29052446360E+03  0.00000000000E+00 0.  1.
         12    1    3    3    0    0 -0.86042355083E+01  0.32780291313E+02 -0.15102290033E+03  0.15477886416E+03  0.00000000000E+00 0. -1.
        -11    1    4    4    0    0  0.28394936428E+02  0.41028975074E+02 -0.21067371572E+02  0.54161640996E+02  0.00000000000E+00 0. -1.
         11    1    4    4    0    0 -0.38160709514E+02  0.85101682296E+01 -0.86197273723E+02  0.94650053942E+02  0.00000000000E+00 0.  1.
          1    1    1    2  501    0  0.71926656163E+02 -0.39302055487E+02 -0.46126746937E+02  0.94051965505E+02  0.00000000000E+00 0. -1.
<scales pt_clust_5="13000.00000" pt_clust_6="13000.00000" pt_clust_7="13000.00000" pt_clust_8="13000.00000" pt_clust_9="81.96399"></scales>
<clustering>
<clus scale="   81.051">  5  6 -1 -1</clus>
<clus scale="   81.964">  1  9  2 -1</clus>
<clus scale="   89.943">  7  8 -1 -1</clus>
<clus scale="   95.143">  2  5  1 -1</clus>
<clus scale="   81.964">  1  5  2 -1</clus>
</clustering>
</event>
<event>
 9    2  0.1654290E-004  0.1189257E+03  0.7546771E-02  0.1248035E+00
          2   -1    0    0  502    0 -0.00000000000E+00  0.00000000000E+00  0.31818681801E+03  0.31818681801E+03  0.00000000000E+00 0. -1.
         21   -1    0    0  501  502  0.00000000000E+00 -0.00000000000E+00 -0.14350923511E+03  0.14350923511E+03  0.00000000000E+00 0. -1.
         24    2    1    2    0    0  0.93879341161E+02 -0.10787750573E+02  0.57805557594E+02  0.13647610405E+03  0.79715357541E+02 0.  0.
         23    2    1    2    0    0 -0.38535620724E+02 -0.22778951134E+02 -0.73413845702E+02  0.12422650748E+03  0.89659119673E+02 0.  0.
        -13    1    3    3    0    0  0.24410843698E+02  0.22399950870E+02 -0.92300669200E+01  0.34392458830E+02  0.00000000000E+00 0.  1.
         14    1    3    3    0    0  0.69468497464E+02 -0.33187701443E+02  0.67035624514E+02  0.10208364522E+03  0.00000000000E+00 0. -1.
        -11    1    4    4    0    0 -0.58632869768E+02 -0.32765069451E+02 -0.26470020793E+02  0.72194357080E+02  0.00000000000E+00 0. -1.
         11    1    4    4    0    0  0.20097249044E+02  0.99861183168E+01 -0.46943824909E+02  0.52032150400E+02  0.00000000000E+00 0.  1.
          1    1    1    2  501    0 -0.55343720438E+02  0.33566701707E+02  0.19028587102E+03  0.20099344159E+03  0.00000000000E+00 0. -1.
<scales pt_clust_5="13000.00000" pt_clust_6="13000.00000" pt_clust_7="13000.00000" pt_clust_8="13000.00000" pt_clust_9="64.72754"></scales>
<clustering>
<clus scale="   64.728">  2  9  1 -1</clus>
<clus scale="   79.715">  5  6 -1 -1</clus>
<clus scale="   89.659">  7  8 -1 -1</clus>
<clus scale="  111.620">  1  5  2 -1</clus>
<clus scale="   64.728">  2  5  1 -1</clus>
</clustering>
</event>
<event>
 9    2  0.1654290E-004  0.1111919E+03  0.7546771E-02  0.1262920E+00
         21   -1    0    0  501  502  0.00000000000E+00  0.00000000000E+00  0.30024245841E+03  0.30024245841E+03  0.00000000000E+00 0. -1.
         -3   -1    0    0    0  501 -0.00000000000E+00 -0.00000000000E+00 -0.13731041806E+03  0.13731041806E+03  0.00000000000E+00 0.  1.
         23    2    1    2    0    0 -0.22126190038E+02 -0.80226407958E+02  0.11201090640E+03  0.16694404876E+03  0.91640752086E+02 0.  0.
         24    2    1    2    0    0 -0.57602633812E+02  0.40670495709E+02  0.11813374195E+03  0.15907905491E+03  0.79864961541E+02 0.  0.
        -13    1    4    4    0    0 -0.53966818732E+02  0.36387150827E+01  0.26610325162E+02  0.60280736365E+02  0.00000000000E+00 0.  1.
         14    1    4    4    0    0 -0.36358150801E+01  0.37031780627E+02  0.91523416786E+02  0.98798318547E+02  0.00000000000E+00 0. -1.
        -13    1    3    3    0    0  0.31328053011E+02 -0.56134726346E+02  0.48663595035E+02  0.80626917895E+02  0.00000000000E+00 0. -1.
         13    1    3    3    0    0 -0.53454243049E+02 -0.24091681613E+02  0.63347311368E+02  0.86317130863E+02  0.00000000000E+00 0.  1.
         -4    1    1    2    0  502  0.79728823850E+02  0.39555912249E+02 -0.67212608002E+02  0.11152977280E+03  0.00000000000E+00 0.  1.
<scales pt_clust_5="13000.00000" pt_clust_6="13000.00000" pt_clust_7="13000.00000" pt_clust_8="13000.00000" pt_clust_9="89.00204"></scales>
<clustering>
<clus scale="   79.865">  5  6 -1 -1</clus>
<clus scale="   89.002">  1  9  2 -1</clus>
<clus scale="   91.641">  7  8 -1 -1</clus>
<clus scale="  101.706">  1  5  2 -1</clus>
<clus scale="   89.002">  1  5  2 -1</clus>
</clustering>
</event>
<event>
 9    2  0.1654290E-004  0.1508527E+03  0.7546771E-02  0.1221496E+00
         21   -1    0    0  501  502  0.00000000000E+00  0.00000000000E+00  0.66496571690E+02  0.66496571690E+02  0.00000000000E+00 0. -1.
          2   -1    0    0  502    0 -0.00000000000E+00 -0.00000000000E+00 -0.79051730680E+03  0.79051730680E+03  0.00000000000E+00 0. -1.
         24    2    1    2    0    0 -0.45841086889E+02 -0.14743251190E+02 -0.17514997113E+02  0.95815113865E+02  0.80962906434E+02 0.  0.
         23    2    1    2    0    0  0.85231676314E+01 -0.10775857659E+03 -0.48566234365E+03  0.50591239654E+03  0.91623608910E+02 0.  0.
        -11    1    3    3    0    0  0.22114182546E+02 -0.22799085754E+01 -0.14733485902E+02  0.26670407938E+02  0.00000000000E+00 0.  1.
         12    1    3    3    0    0 -0.67955269434E+02 -0.12463342615E+02 -0.27815112111E+01  0.69144705926E+02  0.00000000000E+00 0. -1.
        -13    1    4    4    0    0  0.27560756539E+02  0.43372139317E+01 -0.88297951819E+02  0.92600945033E+02  0.00000000000E+00 0.  1.
         13    1    4    4    0    0 -0.19037588908E+02 -0.11209579052E+03 -0.39736439184E+03  0.41331145150E+03  0.00000000000E+00 0. -1.
          1    1    1    2  501    0  0.37317919257E+02  0.12250182778E+03 -0.22084339434E+03  0.25528636809E+03  0.00000000000E+00 0. -1.
<scales pt_clust_5="13000.00000" pt_clust_6="13000.00000" pt_clust_7="13000.00000" pt_clust_8="13000.00000" pt_clust_9="119.84005"></scales>
<clustering>
<clus scale="   80.963">  5  6 -1 -1</clus>
<clus scale="   91.624">  7  8 -1 -1</clus>
<clus scale="   94.201">  2  5  1 -1</clus>
<clus scale="  119.840">  1  9  2 -1</clus>
<clus scale="  119.840">  1  5  2 -1</clus>
</clustering>
</event>
<event>
 9    2  0.1654290E-004  0.1465610E+03  0.7546771E-02  0.1207032E+00
         21   -1    0    0  501  502  0.00000000000E+00  0.00000000000E+00  0.14025336971E+03  0.14025336971E+03  0.00000000000E+00 0.  1.
          2   -1    0    0  502    0 -0.00000000000E+00 -0.00000000000E+00 -0.21597305975E+03  0.21597305975E+03  0.00000000000E+00 0. -1.
         24    2    1    2    0    0  0.10830620318E+03  0.22618606807E+02 -0.72145017657E+02  0.15434984662E+03  0.79856975623E+02 0.  0.
         23    2    1    2    0    0 -0.12425730752E+03 -0.66108444208E+01  0.33882297783E+02  0.15813060245E+03  0.91507899069E+02 0.  0.
        -11    1    3    3    0    0  0.11968793853E+03  0.19985119022E+02 -0.74558906468E+02  0.14242063806E+03  0.00000000000E+00 0.  1.
         12    1    3    3    0    0 -0.11381735350E+02  0.26334877847E+01  0.24138888107E+01  0.11929208552E+02  0.00000000000E+00 0. -1.
        -13    1    4    4    0    0 -0.35322469668E+02 -0.44115587416E+02  0.22469205107E+01  0.56558912369E+02  0.00000000000E+00 0. -1.
         13    1    4    4    0    0 -0.88934837853E+02  0.37504742995E+02  0.31635377272E+02  0.10157169008E+03  0.00000000000E+00 0.  1.
          1    1    1    2  501    0  0.15951104339E+02 -0.16007762386E+02 -0.37456970171E+02  0.43745980394E+02  0.00000000000E+00 0. -1.
<scales pt_clust_5="13000.00000" pt_clust_6="13000.00000" pt_clust_7="13000.00000" pt_clust_8="13000.00000" pt_clust_9="22.59838"></scales>
<clustering>
<clus scale="   22.598">  1  9  2 -1</clus>
<clus scale="   79.857">  5  6 -1 -1</clus>
<clus scale="   91.508">  7  8 -1 -1</clus>
<clus scale="  139.584">  2  5  1 -1</clus>
<clus scale="   22.598">  1  5  2 -1</clus>
</clustering>
</event>
<event>
 9    2  0.1654290E-004  0.1265940E+03  0.7546771E-02  0.1235644E+00
         21   -1    0    0  501  502  0.00000000000E+00  0.00000000000E+00  0.15055605051E+03  0.15055605051E+03  0.00000000000E+00 0. -1.
         -1   -1    0    0    0  501 -0.00000000000E+00 -0.00000000000E+00 -0.14071378060E+03  0.14071378060E+03  0.00000000000E+00 0.  1.
         23    2    1    2    0    0  0.62323019161E+02 -0.38547217180E+02  0.12281257259E+02  0.11748954874E+03  0.91010538481E+02 0.  0.
         24    2    1    2    0    0 -0.95160544846E+02  0.45782879877E+02  0.19086460588E+02  0.13385531754E+03  0.80008447497E+02 0.  0.
        -13    1    4    4    0    0 -0.70974706186E+02  0.61541570339E+01 -0.19083377385E+02  0.73752680354E+02  0.00000000000E+00 0.  1.
         14    1    4    4    0    0 -0.24185838660E+02  0.39628722843E+02  0.38169837973E+02  0.60102637186E+02  0.00000000000E+00 0. -1.
        -13    1    3    3    0    0  0.71298459770E+02  0.58549227276E+01  0.68820998081E+01  0.71868726046E+02  0.00000000000E+00 0.  1.
         13    1    3    3    0    0 -0.89754406089E+01 -0.44402139907E+02  0.53991574505E+01  0.45620822698E+02  0.00000000000E+00 0. -1.
         -2    1    1    2    0  502  0.32837525685E+02 -0.72356626970E+01 -0.21525447930E+02  0.39924964826E+02  0.00000000000E+00 0.  1.
<scales pt_clust_5="13000.00000" pt_clust_6="13000.00000" pt_clust_7="13000.00000" pt_clust_8="13000.00000" pt_clust_9="33.62527"></scales>
<clustering>
<clus scale="   33.625">  1  9  2 -1</clus>
<clus scale="   80.008">  5  6 -1 -1</clus>
<clus scale="   91.011">  7  8 -1 -1</clus>
<clus scale="  118.931">  1  5  2 -1</clus>
<clus scale="   33.625">  1  5  2 -1</clus>
</clustering>
</event>
<event>
 9    2  0.1654290E-004  0.1066842E+03  0.7546771E-02  0.1269514E+00
         -1   -1    0    0    0  501 -0.00000000000E+00  0.00000000000E+00  0.36438523364E+03  0.36438523364E+03  0.00000000000E+00 0.  1.
         21   -1    0    0  501  502  0.00000000000E+00 -0.00000000000E+00 -0.21902566907E+03  0.21902566907E+03  0.00000000000E+00 0. -1.
         24    2    1    2    0    0 -0.83829331591E+01  0.57590637889E+02  0.27079460922E+03  0.28872266659E+03  0.81511365363E+02 0.  0.
         23    2    1    2    0    0  0.10131855562E+03 -0.77778476156E+02 -0.12550868958E+03  0.19958521745E+03  0.88129942674E+02 0.  0.
        -11    1    3    3    0    0 -0.28010439607E+02  0.61108892208E+02  0.12834146287E+03  0.14488068376E+03  0.00000000000E+00 0.  1.
         12    1    3    3    0    0  0.19627506448E+02 -0.35182543187E+01  0.14245314634E+03  0.14384198283E+03  0.00000000000E+00 0. -1.
        -13    1    4    4    0    0  0.29698168147E+02 -0.87041761237E+01  0.90402331462E+01  0.32240807816E+02  0.00000000000E+00 0.  1.
         13    1    4    4    0    0  0.71620387475E+02 -0.69074300032E+02 -0.13454892273E+03  0.16734440963E+03  0.00000000000E+00 0. -1.
         -2    1    1    2    0  502 -0.92935622464E+02  0.20187838267E+02  0.73644929722E-01  0.95103018670E+02  0.00000000000E+00 0.  1.
<scales pt_clust_5="13000.00000" pt_clust_6="13000.00000" pt_clust_7="13000.00000" pt_clust_8="13000.00000" pt_clust_9="95.10299"></scales>
<clustering>
<clus scale="   81.511">  5  6 -1 -1</clus>
<clus scale="   88.130">  7  8 -1 -1</clus>
<clus scale="   95.103">  2  9  1 -1</clus>
<clus scale="  101.285">  1  5  2 -1</clus>
<clus scale="   95.103">  2  5  1 -1</clus>
</clustering>
</event>
<event>
 9    2  0.1654290E-004  0.1988987E+03  0.7546771E-02  0.1151704E+00
          2   -1    0    0  502    0 -0.00000000000E+00  0.00000000000E+00  0.16752478319E+04  0.16752478319E+04  0.00000000000E+00 0. -1.
         21   -1    0    0  501  502  0.00000000000E+00 -0.00000000000E+00 -0.34369938713E+02  0.34369938713E+02  0.00000000000E+00 0.  1.
         23    2    1    2    0    0  0.14873469135E+03 -0.71765182430E+02  0.86540277762E+03  0.88553677438E+03  0.89337346326E+02 0.  0.
         24    2    1    2    0    0 -0.16510157495E+03  0.10759665393E+03  0.74415354208E+03  0.77375396378E+03  0.78071328222E+02 0.  0.
        -13    1    4    4    0    0 -0.59346183547E+02  0.78421880045E+02  0.27858359866E+03  0.29543321109E+03  0.00000000000E+00 0.  1.
         14    1    4    4    0    0 -0.10575539141E+03  0.29174773887E+02  0.46556994342E+03  0.47832075269E+03  0.00000000000E+00 0. -1.
        -13    1    3    3    0    0  0.81123841533E+02  0.48652557299E+01  0.47917233570E+03  0.48601530396E+03  0.00000000000E+00 0.  1.
         13    1    3    3    0    0  0.67610849816E+02 -0.76630438160E+02  0.38623044192E+03  0.39952147042E+03  0.00000000000E+00 0. -1.
          1    1    1    2  501    0  0.16366883604E+02 -0.35831471502E+02  0.31321573474E+02  0.50327032436E+02  0.00000000000E+00 0. -1.
<scales pt_clust_5="13000.00000" pt_clust_6="13000.00000" pt_clust_7="13000.00000" pt_clust_8="13000.00000" pt_clust_9="39.39250"></scales>
<clustering>
<clus scale="   39.393">  2  9  1 -1</clus>
<clus scale="   78.071">  5  6 -1 -1</clus>
<clus scale="   89.337">  7  8 -1 -1</clus>
<clus scale="  194.100">  2  5  1 -1</clus>
<clus scale="   39.393">  2  5  1 -1</clus>
</clustering>
</event>
<event>
 9    2  0.1654290E-004  0.1636057E+03  0.7546771E-02  0.1186196E+00
         21   -1    0    0  501  502  0.00000000000E+00  0.00000000000E+00  0.27999185079E+02  0.27999185079E+02  0.00000000000E+00 0. -1.
          2   -1    0    0  502    0 -0.00000000000E+00 -0.00000000000E+00 -0.12573760041E+04  0.12573760041E+04  0.00000000000E+00 0. -1.
         24    2    1    2    0    0  0.12942950234E+03 -0.62791405235E+02 -0.78097273434E+03  0.79828840583E+03  0.81554953552E+02 0.  0.
         23    2    1    2    0    0 -0.95743445994E+02  0.74545974199E+02 -0.32834651486E+03  0.36184006541E+03  0.91612714171E+02 0.  0.
        -13    1    3    3    0    0  0.20855323955E+02  0.19343904867E+02 -0.10800650288E+03  0.11168946171E+03  0.00000000000E+00 0.  1.
         14    1    3    3    0    0  0.10857417838E+03 -0.82135310102E+02 -0.67296623146E+03  0.68659894412E+03  0.00000000000E+00 0. -1.
        -11    1    4    4    0    0 -0.58167617633E+02 -0.10432659545E+02 -0.13120660613E+03  0.14390095767E+03  0.00000000000E+00 0.  1.
         11    1    4    4    0    0 -0.37575828361E+02  0.84978633743E+02 -0.19713990873E+03  0.21793910774E+03  0.00000000000E+00 0. -1.
          1    1    1    2  501    0 -0.33686056342E+02 -0.11754568964E+02 -0.12005756984E+03  0.12524671795E+03  0.00000000000E+00 0. -1.
<scales pt_clust_5="13000.00000" pt_clust_6="13000.00000" pt_clust_7="13000.00000" pt_clust_8="13000.00000" pt_clust_9="35.67803"></scales>
<clustering>
<clus scale="   35.678">  1  9  2 -1</clus>
<clus scale="   81.555">  5  6 -1 -1</clus>
<clus scale="   91.613">  7  8 -1 -1</clus>
<clus scale="  158.193">  2  5  1 -1</clus>
<clus scale="   35.678">  1  5  2 -1</clus>
</clustering>
</event>
<event>
 9    2  0.1654290E-004  0.1886704E+03  0.7546771E-02  0.1167087E+00
          2   -1    0    0  502    0 -0.00000000000E+00  0.00000000000E+00  0.81946577757E+03  0.81946577757E+03  0.00000000000E+00 0. -1.
         21   -1    0    0  501  502  0.00000000000E+00 -0.00000000000E+00 -0.10273370612E+03  0.10273370612E+03  0.00000000000E+00 0. -1.
         23    2    1    2    0    0  0.12817642952E+03 -0.85631402172E+01  0.83574605692E+02  0.17953670811E+03  0.93521069216E+02 0.  0.
         24    2    1    2    0    0  0.31234369453E+02 -0.14375691279E+03  0.27015386132E+03  0.31794543638E+03  0.80402462152E+02 0.  0.
        -11    1    4    4    0    0 -0.23316850352E+02 -0.33985259476E+02  0.10066343894E+03  0.10877408382E+03  0.00000000000E+00 0.  1.
         12    1    4    4    0    0  0.54551219804E+02 -0.10977165332E+03  0.16949042238E+03  0.20917135256E+03  0.00000000000E+00 0. -1.
        -11    1    3    3    0    0  0.27367067602E+02 -0.19627222745E+02  0.69395329675E+02  0.77135569243E+02  0.00000000000E+00 0.  1.
         11    1    3    3    0    0  0.10080936192E+03  0.11064082528E+02  0.14179276018E+02  0.10240113887E+03  0.00000000000E+00 0. -1.
          1    1    1    2  501    0 -0.15941079898E+03  0.15232005301E+03  0.36300360443E+03  0.42471733919E+03  0.00000000000E+00 0. -1.
<scales pt_clust_5="13000.00000" pt_clust_6="13000.00000" pt_clust_7="13000.00000" pt_clust_8="13000.00000" pt_clust_9="170.68093"></scales>
<clustering>
<clus scale="   80.402">  5  6 -1 -1</clus>
<clus scale="   93.521">  7  8 -1 -1</clus>
<clus scale="  158.899">  1  7  2 -1</clus>
<clus scale="  170.681">  2  9  1 -1</clus>
<clus scale="  170.681">  2  5  1 -1</clus>
</clustering>
</event>
<event>
 9    2  0.1654290E-004  0.1359278E+03  0.7546771E-02  0.1221297E+00
          2   -1    0    0  502    0 -0.00000000000E+00  0.00000000000E+00  0.39012246603E+03  0.39012246603E+03  0.00000000000E+00 0. -1.
         21   -1    0    0  501  502  0.00000000000E+00 -0.00000000000E+00 -0.14534511669E+03  0.14534511669E+03  0.00000000000E+00 0.  1.
         23    2    1    2    0    0  0.45163767423E+02  0.92668075666E+02  0.16120223603E+03  0.21252398902E+03  0.92483224813E+02 0.  0.
         24    2    1    2    0    0  0.54359975373E+02 -0.11113288285E+03 -0.48649900478E+02  0.15642218740E+03  0.82435206812E+02 0.  0.
        -11    1    4    4    0    0  0.70556742066E+02 -0.52901890063E+02 -0.27166973452E+02  0.92276260596E+02  0.00000000000E+00 0.  1.
         12    1    4    4    0    0 -0.16196766692E+02 -0.58230992784E+02 -0.21482927026E+02  0.64145926804E+02  0.00000000000E+00 0. -1.
        -11    1    3    3    0    0  0.69015564693E+02  0.88483668132E+02  0.14515546951E+03  0.18347375296E+03  0.00000000000E+00 0. -1.
         11    1    3    3    0    0 -0.23851797269E+02  0.41844075347E+01  0.16046766519E+02  0.29050236059E+02  0.00000000000E+00 0.  1.
          1    1    1    2  501    0 -0.99523742797E+02  0.18464807180E+02  0.13222501378E+03  0.16652140630E+03  0.00000000000E+00 0. -1.
<scales pt_clust_5="13000.00000" pt_clust_6="13000.00000" pt_clust_7="13000.00000" pt_clust_8="13000.00000" pt_clust_9="101.22220"></scales>
<clustering>
<clus scale="   82.435">  5  6 -1 -1</clus>
<clus scale="   92.483">  7  8 -1 -1</clus>
<clus scale="  101.222">  2  9  1 -1</clus>
<clus scale="  129.301">  2  5  1 -1</clus>
<clus scale="  101.222">  2  5  1 -1</clus>
</clustering>
</event>
<event>
 9    2  0.1654290E-004  0.9457205E+02  0.7546771E-02  0.1298491E+00
         21   -1    0    0  501  502  0.00000000000E+00  0.00000000000E+00  0.67148417290E+02  0.67148417290E+02  0.00000000000E+00 0. -1.
          2   -1    0    0  502    0 -0.00000000000E+00 -0.00000000000E+00 -0.32904599015E+03  0.32904599015E+03  0.00000000000E+00 0. -1.
         24    2    1    2    0    0 -0.21075258727E-01  0.27327072781E+02 -0.19549863694E+03  0.21321611646E+03  0.80589241980E+02 0.  0.
         23    2    1    2    0    0  0.54161694952E+02  0.34589888861E+01 -0.28769404156E+02  0.11021174678E+03  0.91506812360E+02 0.  0.
        -13    1    3    3    0    0  0.70038249125E+01  0.55538267047E+02 -0.13194805123E+03  0.14333122790E+03  0.00000000000E+00 0.  1.
         14    1    3    3    0    0 -0.70249001712E+01 -0.28211194266E+02 -0.63550585713E+02  0.69884888558E+02  0.00000000000E+00 0. -1.
        -11    1    4    4    0    0 -0.69837701998E+01 -0.19563297727E+02  0.19880190447E+02  0.28752697897E+02  0.00000000000E+00 0.  1.
         11    1    4    4    0    0  0.61145465152E+02  0.23022286613E+02 -0.48649594603E+02  0.81459048881E+02  0.00000000000E+00 0. -1.
          1    1    1    2  501    0 -0.54140619693E+02 -0.30786061667E+02 -0.37629531762E+02  0.72766544197E+02  0.00000000000E+00 0. -1.
<scales pt_clust_5="13000.00000" pt_clust_6="13000.00000" pt_clust_7="13000.00000" pt_clust_8="13000.00000" pt_clust_9="62.28152"></scales>
<clustering>
<clus scale="   62.282">  1  9  2 -1</clus>
<clus scale="   80.589">  5  6 -1 -1</clus>
<clus scale="   84.054">  2  5  1 -1</clus>
<clus scale="   91.507">  7  8 -1 -1</clus>
<clus scale="   62.282">  1  5  2 -1</clus>
</clustering>
</event>
<event>
 9    2  0.1654290E-004  0.1183986E+03  0.7546771E-02  0.1249070E+00
         -1   -1    0    0    0  501 -0.00000000000E+00  0.00000000000E+00  0.39187863253E+03  0.39187863253E+03  0.00000000000E+00 0.  1.
         21   -1    0    0  501  502  0.00000000000E+00 -0.00000000000E+00 -0.75315946674E+02  0.75315946674E+02  0.00000000000E+00 0. -1.
         24    2    1    2    0    0 -0.23156423968E+02 -0.66827185892E+02  0.17446186950E+03  0.20486241645E+03  0.80805773425E+02 0.  0.
         23    2    1    2    0    0  0.48377439110E+01  0.83762465351E+02  0.17911213719E+03  0.21769792031E+03  0.90948735276E+02 0.  0.
        -13    1    3    3    0    0 -0.52624151910E+02 -0.31344885627E+02  0.10093897460E+03  0.11806980906E+03  0.00000000000E+00 0.  1.
         14    1    3    3    0    0  0.29467727943E+02 -0.35482300265E+02  0.73522894905E+02  0.86792607389E+02  0.00000000000E+00 0. -1.
        -11    1    4    4    0    0 -0.37563812370E+02  0.64300057128E+02  0.13095184201E+03  0.15064502073E+03  0.00000000000E+00 0.  1.
         11    1    4    4    0    0  0.42401556281E+02  0.19462408223E+02  0.48160295185E+02  0.67052899573E+02  0.00000000000E+00 0. -1.
         -2    1    1    2    0  502  0.18318680057E+02 -0.16935279459E+02 -0.37011320833E+02  0.44634242451E+02  0.00000000000E+00 0.  1.
<scales pt_clust_5="13000.00000" pt_clust_6="13000.00000" pt_clust_7="13000.00000" pt_clust_8="13000.00000" pt_clust_9="24.94750"></scales>
<clustering>
<clus scale="   24.947">  2  9  1 -1</clus>
<clus scale="   80.806">  5  6 -1 -1</clus>
<clus scale="   90.949">  7  8 -1 -1</clus>
<clus scale="  110.798">  1  5  2 -1</clus>
<clus scale="   24.947">  2  5  1 -1</clus>
</clustering>
</event>
<event>
 9    2  0.1654290E-004  0.1573276E+03  0.7546771E-02  0.1193018E+00
         21   -1    0    0  501  502  0.00000000000E+00  0.00000000000E+00  0.14576118674E+03  0.14576118674E+03  0.00000000000E+00 0.  1.
         -1   -1    0    0    0  501 -0.00000000000E+00 -0.00000000000E+00 -0.52652392634E+03  0.52652392634E+03  0.00000000000E+00 0.  1.
         24    2    1    2    0    0  0.10590886945E+03 -0.98360706010E+02 -0.22577303030E+03  0.28047667971E+03  0.82475387479E+02 0.  0.
         23    2    1    2    0    0 -0.14273518696E+03 -0.31295174791E+02 -0.18634290606E+03  0.25342545741E+03  0.90266617652E+02 0.  0.
        -11    1    3    3    0    0  0.82185232844E+02 -0.11110705646E+03 -0.20070935451E+03  0.24368716725E+03  0.00000000000E+00 0.  1.
         12    1    3    3    0    0  0.23723636603E+02  0.12746350454E+02 -0.25063675789E+02  0.36789512468E+02  0.00000000000E+00 0. -1.
        -11    1    4    4    0    0 -0.12134109061E+03 -0.22731902476E+01 -0.91590219980E+02  0.15204471730E+03  0.00000000000E+00 0.  1.
         11    1    4    4    0    0 -0.21394096357E+02 -0.29021984543E+02 -0.94752686077E+02  0.10138074011E+03  0.00000000000E+00 0. -1.
         -2    1    1    2    0  502  0.36826317519E+02  0.12965588080E+03  0.31353196758E+02  0.13838297596E+03  0.00000000000E+00 0.  1.
<scales pt_clust_5="13000.00000" pt_clust_6="13000.00000" pt_clust_7="13000.00000" pt_clust_8="13000.00000" pt_clust_9="134.78437"></scales>
<clustering>
<clus scale="   82.475">  5  6 -1 -1</clus>
<clus scale="   90.267">  7  8 -1 -1</clus>
<clus scale="  134.784">  1  9  2 -1</clus>
<clus scale="  152.990">  2  5  1 -1</clus>
<clus scale="  134.784">  1  5  2 -1</clus>
</clustering>
</event>
<event>
 9    2  0.1654290E-004  0.3369879E+03  0.7546771E-02  0.1090972E+00
         21   -1    0    0  501  502  0.00000000000E+00  0.00000000000E+00  0.12974566603E+03  0.12974566603E+03  0.00000000000E+00 0.  1.
          2   -1    0    0  502    0 -0.00000000000E+00 -0.00000000000E+00 -0.22328562062E+04  0.22328562062E+04  0.00000000000E+00 0. -1.
         23    2    1    2    0    0 -0.14820238289E+03  0.52028344343E+02 -0.87320541974E+02  0.20168907867E+03  0.91557154251E+02 0.  0.
         24    2    1    2    0    0 -0.13842947876E+03  0.25708040016E+03 -0.49395775736E+03  0.58177397468E+03  0.95987701432E+02 0.  0.
        -13    1    4    4    0    0 -0.10484672560E+03  0.25211159190E+03 -0.43001423667E+03  0.50937739877E+03  0.00000000000E+00 0.  1.
         14    1    4    4    0    0 -0.33582753154E+02  0.49688082510E+01 -0.63943520689E+02  0.72396575906E+02  0.00000000000E+00 0. -1.
        -13    1    3    3    0    0 -0.14358440990E+03  0.72126187708E+02 -0.72422487777E+02  0.17624893320E+03  0.00000000000E+00 0.  1.
         13    1    3    3    0    0 -0.46179729895E+01 -0.20097843365E+02 -0.14898054197E+02  0.25440145466E+02  0.00000000000E+00 0. -1.
          1    1    1    2  501    0  0.28663186165E+03 -0.30910874450E+03 -0.15218322408E+04  0.15791388189E+04  0.00000000000E+00 0. -1.
<scales pt_clust_5="13000.00000" pt_clust_6="13000.00000" pt_clust_7="13000.00000" pt_clust_8="13000.00000" pt_clust_9="323.02837"></scales>
<clustering>
<clus scale="   91.557">  7  8 -1 -1</clus>
<clus scale="   95.988">  5  6 -1 -1</clus>
<clus scale="  181.807">  2  7  1 -1</clus>
<clus scale="  323.028">  1  9  2 -1</clus>
<clus scale="  323.028">  1  5  2 -1</clus>
</clustering>
</event>
<event>
 9    2  0.1809266E-004  0.2156371E+03  0.7546771E-02  0.1138182E+00
          2   -1    0    0  502    0 -0.00000000000E+00  0.00000000000E+00  0.11348383313E+04  0.11348383313E+04  0.00000000000E+00 0. -1.
         21   -1    0    0  501  502  0.00000000000E+00 -0.00000000000E+00 -0.70122024032E+02  0.70122024032E+02  0.00000000000E+00 0.  1.
         24    2    1    2    0    0  0.14766547783E+03 -0.14075807432E+03  0.88367845200E+03  0.91023158332E+03  0.77562877213E+02 0.  0.
         23    2    1    2    0    0 -0.12882177345E+03  0.10331548356E+03  0.13105154369E+03  0.22949332043E+03  0.90683728204E+02 0.  0.
        -11    1    3    3    0    0 -0.83408567871E+00 -0.24899982906E+02  0.54411694548E+02  0.59844275844E+02  0.00000000000E+00 0.  1.
         12    1    3    3    0    0  0.14849956351E+03 -0.11585809141E+03  0.82926675745E+03  0.85038730748E+03  0.00000000000E+00 0. -1.
        -11    1    4    4    0    0 -0.12026888401E+03  0.60879514492E+02  0.62893075966E+02  0.14874965126E+03  0.00000000000E+00 0.  1.
         11    1    4    4    0    0 -0.85528894412E+01  0.42435969065E+02  0.68158467729E+02  0.80743669173E+02  0.00000000000E+00 0. -1.
          1    1    1    2  501    0 -0.18843704383E+02  0.37442590758E+02  0.49986311569E+02  0.65235451572E+02  0.00000000000E+00 0. -1.
<scales pt_clust_5="13000.00000" pt_clust_6="13000.00000" pt_clust_7="13000.00000" pt_clust_8="13000.00000" pt_clust_9="41.91698"></scales>
<clustering>
<clus scale="   41.917">  2  9  1 -1</clus>
<clus scale="   77.563">  5  6 -1 -1</clus>
<clus scale="   90.684">  7  8 -1 -1</clus>
<clus scale="  210.456">  1  5  2 -1</clus>
<clus scale="   41.917">  2  5  1 -1</clus>
</clustering>
</event>
<event>
 9    2  0.1654290E-004  0.8898043E+02  0.7546771E-02  0.1308823E+00
         21   -1    0    0  501  502  0.00000000000E+00  0.00000000000E+00  0.46967398063E+02  0.46967398063E+02  0.00000000000E+00 0. -1.
          2   -1    0    0  502    0 -0.00000000000E+00 -0.00000000000E+00 -0.29956945017E+03  0.29956945017E+03  0.00000000000E+00 0. -1.
         23    2    1    2    0    0  0.27481806203E+02 -0.27447846644E+02 -0.14365098270E+03  0.16603154162E+03  0.73635820238E+02 0.  0.
         24    2    1    2    0    0  0.60433907713E+01  0.51566419510E+02 -0.10034966267E+03  0.13831966229E+03  0.79791327761E+02 0.  0.
        -11    1    4    4    0    0 -0.28435487095E+02  0.51584788756E+02 -0.75790074034E+02  0.95988034043E+02  0.00000000000E+00 0.  1.
         12    1    4    4    0    0  0.34478877866E+02 -0.18369245760E-01 -0.24559588634E+02  0.42331628249E+02  0.00000000000E+00 0. -1.
        -11    1    3    3    0    0  0.98815230417E+01  0.23577877103E+02 -0.71444797008E+02  0.75880958124E+02  0.00000000000E+00 0. -1.
         11    1    3    3    0    0  0.17600283161E+02 -0.51025723747E+02 -0.72206185696E+02  0.90150583493E+02  0.00000000000E+00 0.  1.
          1    1    1    2  501    0 -0.33525196974E+02 -0.24118572866E+02 -0.86014067353E+01  0.42185644324E+02  0.00000000000E+00 0. -1.
<scales pt_clust_5="13000.00000" pt_clust_6="13000.00000" pt_clust_7="13000.00000" pt_clust_8="13000.00000" pt_clust_9="41.29945"></scales>
<clustering>
<clus scale="   41.299">  1  9  2 -1</clus>
<clus scale="   73.636">  7  8 -1 -1</clus>
<clus scale="   79.791">  5  6 -1 -1</clus>
<clus scale="   83.505">  2  7  1 -1</clus>
<clus scale="   41.299">  1  5  2 -1</clus>
</clustering>
</event>
<event>
 9    2  0.1654290E-004  0.9076400E+02  0.7546771E-02  0.1308596E+00
         -1   -1    0    0    0  501 -0.00000000000E+00  0.00000000000E+00  0.62320077457E+03  0.62320077457E+03  0.00000000000E+00 0.  1.
         21   -1    0    0  501  502  0.00000000000E+00 -0.00000000000E+00 -0.29364948563E+02  0.29364948563E+02  0.00000000000E+00 0. -1.
         23    2    1    2    0    0 -0.37039541168E+02 -0.51722770217E+01  0.21133147203E+03  0.23284543529E+03  0.90317914084E+02 0.  0.
         24    2    1    2    0    0 -0.36318483275E+02 -0.24155919035E+02  0.14883015964E+03  0.17305214654E+03  0.76772966290E+02 0.  0.
        -11    1    4    4    0    0  0.21149516053E+02 -0.47106050864E+01  0.71807046506E+02  0.75004958219E+02  0.00000000000E+00 0.  1.
         12    1    4    4    0    0 -0.57467999329E+02 -0.19445313949E+02  0.77023113134E+02  0.98047188324E+02  0.00000000000E+00 0. -1.
        -11    1    3    3    0    0 -0.34318218598E+02 -0.44140335765E+02  0.96203899122E+02  0.11127128819E+03  0.00000000000E+00 0. -1.
         11    1    3    3    0    0 -0.27213225707E+01  0.38968058744E+02  0.11512757291E+03  0.12157414710E+03  0.00000000000E+00 0.  1.
         -2    1    1    2    0  502  0.73358024444E+02  0.29328196057E+02  0.23367419433E+03  0.24666814130E+03  0.00000000000E+00 0.  1.
<scales pt_clust_5="13000.00000" pt_clust_6="13000.00000" pt_clust_7="13000.00000" pt_clust_8="13000.00000" pt_clust_9="79.00348"></scales>
<clustering>
<clus scale="   76.773">  5  6 -1 -1</clus>
<clus scale="   79.003">  2  9  1 -1</clus>
<clus scale="   79.003">  2  5  1 -1</clus>
<clus scale="   90.318">  7  8 -1 -1</clus>
<clus scale="   79.003">  2  5  1 -1</clus>
</clustering>
</event>
<event>
 9    2  0.1654290E-004  0.1779206E+03  0.7546771E-02  0.1184022E+00
          2   -1    0    0  502    0 -0.00000000000E+00  0.00000000000E+00  0.15066248407E+04  0.15066248407E+04  0.00000000000E+00 0. -1.
         21   -1    0    0  501  502  0.00000000000E+00 -0.00000000000E+00 -0.60139839339E+02  0.60139839339E+02  0.00000000000E+00 0. -1.
         24    2    1    2    0    0  0.99516352405E+02 -0.16790538788E+02  0.95222856857E+02  0.16042305432E+03  0.80515447590E+02 0.  0.
         23    2    1    2    0    0 -0.22165668862E+03 -0.35251782239E+02  0.10428517108E+04  0.10705683979E+04  0.90568361301E+02 0.  0.
        -11    1    3    3    0    0  0.73251666250E+02 -0.43093729186E+02  0.40185816781E+02  0.94009446195E+02  0.00000000000E+00 0.  1.
         12    1    3    3    0    0  0.26264686156E+02  0.26303190398E+02  0.55037040076E+02  0.66413608126E+02  0.00000000000E+00 0. -1.
        -11    1    4    4    0    0 -0.16337750780E+03 -0.56250138530E+02  0.86894746897E+03  0.88596049120E+03  0.00000000000E+00 0. -1.
         11    1    4    4    0    0 -0.58279180822E+02  0.20998356291E+02  0.17390424187E+03  0.18460790673E+03  0.00000000000E+00 0.  1.
          1    1    1    2  501    0  0.12214033622E+03  0.52042321027E+02  0.30841043364E+03  0.33577322777E+03  0.00000000000E+00 0. -1.
<scales pt_clust_5="13000.00000" pt_clust_6="13000.00000" pt_clust_7="13000.00000" pt_clust_8="13000.00000" pt_clust_9="153.14404"></scales>
<clustering>
<clus scale="   80.515">  5  6 -1 -1</clus>
<clus scale="   90.568">  7  8 -1 -1</clus>
<clus scale="  129.105">  1  5  2 -1</clus>
<clus scale="  153.144">  2  9  1 -1</clus>
<clus scale="  153.144">  2  5  1 -1</clus>
</clustering>
</event>
<event>
 9    2  0.1802040E-004  0.4808637E+03  0.7546771E-02  0.1036323E+00
         21   -1    0    0  501  502  0.00000000000E+00  0.00000000000E+00  0.41138661762E+03  0.41138661762E+03  0.00000000000E+00 0.  1.
          2   -1    0    0  502    0 -0.00000000000E+00 -0.00000000000E+00 -0.12239311624E+04  0.12239311624E+04  0.00000000000E+00 0. -1.
         24    2    1    2    0    0 -0.18046301533E+03 -0.19848849060E+03 -0.18960147889E+02  0.28663666705E+03  0.99179185766E+02 0.  0.
         23    2    1    2    0    0 -0.28492995624E+03  0.38791967335E+03 -0.11307223120E+03  0.50276646089E+03  0.91225170806E+02 0.  0.
        -11    1    3    3    0    0 -0.14458964064E+03 -0.19100542164E+03  0.10241165848E+02  0.23977930844E+03  0.00000000000E+00 0.  1.
         12    1    3    3    0    0 -0.35873374684E+02 -0.74830689588E+01 -0.29201313737E+02  0.46857358614E+02  0.00000000000E+00 0. -1.
        -13    1    4    4    0    0 -0.23203829085E+03  0.35214420751E+03 -0.74744191458E+02  0.42829196288E+03  0.00000000000E+00 0.  1.
         13    1    4    4    0    0 -0.52891665393E+02  0.35775465833E+02 -0.38328039740E+02  0.74474498010E+02  0.00000000000E+00 0. -1.
          1    1    1    2  501    0  0.46539297157E+03 -0.18943118275E+03 -0.68051216573E+03  0.84591465213E+03  0.00000000000E+00 0. -1.
<scales pt_clust_5="13000.00000" pt_clust_6="13000.00000" pt_clust_7="13000.00000" pt_clust_8="13000.00000" pt_clust_9="472.13142"></scales>
<clustering>
<clus scale="   91.225">  7  8 -1 -1</clus>
<clus scale="   99.179">  5  6 -1 -1</clus>
<clus scale="  286.009">  2  5  1 -1</clus>
<clus scale="  472.131">  1  9  2 -1</clus>
<clus scale="  472.131">  1  5  2 -1</clus>
</clustering>
</event>
<event>
 9    2  0.1654290E-004  0.9682026E+02  0.7546771E-02  0.1295929E+00
         21   -1    0    0  501  502  0.00000000000E+00  0.00000000000E+00  0.11484274082E+03  0.11484274082E+03  0.00000000000E+00 0.  1.
          2   -1    0    0  502    0 -0.00000000000E+00 -0.00000000000E+00 -0.10807345008E+03  0.10807345008E+03  0.00000000000E+00 0. -1.
         23    2    1    2    0    0 -0.30747511995E+02 -0.21488971082E+01 -0.39738069780E+02  0.10433308048E+03  0.91412527807E+02 0.  0.
         24    2    1    2    0    0  0.33202926756E+02 -0.20274921956E+02  0.44231248064E+02  0.95910717274E+02  0.75689864428E+02 0.  0.
        -11    1    4    4    0    0  0.55631347738E+02 -0.26435342429E+02  0.28763676232E+02  0.67978108615E+02  0.00000000000E+00 0.  1.
         12    1    4    4    0    0 -0.22428420981E+02  0.61604204729E+01  0.15467571832E+02  0.27932608659E+02  0.00000000000E+00 0. -1.
        -13    1    3    3    0    0 -0.14777501944E+02 -0.45429045726E+02 -0.82513159794E+01  0.48479448993E+02  0.00000000000E+00 0.  1.
         13    1    3    3    0    0 -0.15970010051E+02  0.43280148618E+02 -0.31486753801E+02  0.55853631487E+02  0.00000000000E+00 0. -1.
          1    1    1    2  501    0 -0.24554147610E+01  0.22423819064E+02  0.22761124587E+01  0.22672393147E+02  0.00000000000E+00 0. -1.
<scales pt_clust_5="13000.00000" pt_clust_6="13000.00000" pt_clust_7="13000.00000" pt_clust_8="13000.00000" pt_clust_9="22.55785"></scales>
<clustering>
<clus scale="   22.558">  1  9  2 -1</clus>
<clus scale="   75.690">  5  6 -1 -1</clus>
<clus scale="   82.139">  1  5  2 -1</clus>
<clus scale="   91.413">  7  8 -1 -1</clus>
<clus scale="   22.558">  1  5  2 -1</clus>
</clustering>
</event>
<event>
 9    2  0.1654290E-004  0.2353094E+03  0.7546771E-02  0.1122958E+00
          2   -1    0    0  502    0 -0.00000000000E+00  0.00000000000E+00  0.16065154084E+04  0.16065154084E+04  0.00000000000E+00 0. -1.
         21   -1    0    0  501  502  0.00000000000E+00 -0.00000000000E+00 -0.17120362107E+03  0.17120362107E+03  0.00000000000E+00 0. -1.
         24    2    1    2    0    0 -0.38589795465E+02 -0.86219988633E+02  0.10838854098E+04  0.10909330285E+04  0.80026447712E+02 0.  0.
         23    2    1    2    0    0  0.11913243145E+02 -0.39294626549E+02  0.48853577629E+03  0.49899743836E+03  0.92979813621E+02 0.  0.
        -13    1    3    3    0    0 -0.44316355267E+02 -0.29044222991E+02  0.27818525738E+03  0.28318641150E+03  0.00000000000E+00 0.  1.
         14    1    3    3    0    0  0.57265598023E+01 -0.57175765642E+02  0.80570015237E+03  0.80774661695E+03  0.00000000000E+00 0. -1.
        -11    1    4    4    0    0 -0.29961077288E+02  0.13548625671E+02  0.12440914046E+03  0.12868125598E+03  0.00000000000E+00 0.  1.
         11    1    4    4    0    0  0.41874320433E+02 -0.52843252220E+02  0.36412663583E+03  0.37031618238E+03  0.00000000000E+00 0. -1.
          1    1    1    2  501    0  0.26676552320E+02  0.12551461518E+03 -0.13710939868E+03  0.18778856268E+03  0.00000000000E+00 0. -1.
<scales pt_clust_5="13000.00000" pt_clust_6="13000.00000" pt_clust_7="13000.00000" pt_clust_8="13000.00000" pt_clust_9="128.31819"></scales>
<clustering>
<clus scale="   80.026">  5  6 -1 -1</clus>
<clus scale="   92.980">  7  8 -1 -1</clus>
<clus scale="   97.329">  5  7 -1 -1</clus>
<clus scale="  128.318">  2  9  1 -1</clus>
<clus scale="  128.318">  2  5  1 -1</clus>
</clustering>
</event>
<event>
 9    2  0.1654290E-004  0.9244385E+02  0.7546771E-02  0.1305173E+00
         21   -1    0    0  501  502  0.00000000000E+00  0.00000000000E+00  0.15741352482E+03  0.15741352482E+03  0.00000000000E+00 0. -1.
         -1   -1    0    0    0  501 -0.00000000000E+00 -0.00000000000E+00 -0.27059035461E+03  0.27059035461E+03  0.00000000000E+00 0.  1.
         23    2    1    2    0    0 -0.22236740709E+02  0.62452486905E+01 -0.23393228718E+03  0.25176055207E+03  0.90142025850E+02 0.  0.
         24    2    1    2    0    0 -0.11592405723E+02 -0.27074588983E+02  0.53736045595E+02  0.98333930467E+02  0.76906319935E+02 0.  0.
        -13    1    4    4    0    0  0.28043693497E+02 -0.95165897604E+00  0.20171025024E+01  0.28132243108E+02  0.00000000000E+00 0.  1.
         14    1    4    4    0    0 -0.39636099220E+02 -0.26122930007E+02  0.51718943092E+02  0.70201687360E+02  0.00000000000E+00 0. -1.
        -11    1    3    3    0    0  0.19996489834E+02  0.13062358989E+02 -0.13956372831E+02  0.27663426589E+02  0.00000000000E+00 0. -1.
         11    1    3    3    0    0 -0.42233230542E+02 -0.68171102988E+01 -0.21997591435E+03  0.22409712548E+03  0.00000000000E+00 0.  1.
         -2    1    1    2    0  502  0.33829146432E+02  0.20829340292E+02  0.67019411803E+02  0.77909396890E+02  0.00000000000E+00 0.  1.
<scales pt_clust_5="13000.00000" pt_clust_6="13000.00000" pt_clust_7="13000.00000" pt_clust_8="13000.00000" pt_clust_9="39.72748"></scales>
<clustering>
<clus scale="   39.727">  1  9  2 -1</clus>
<clus scale="   76.906">  5  6 -1 -1</clus>
<clus scale="   79.592">  1  5  2 -1</clus>
<clus scale="   90.142">  7  8 -1 -1</clus>
<clus scale="   39.727">  1  5  2 -1</clus>
</clustering>
</event>
<event>
 9    2  0.1654290E-004  0.1074306E+03  0.7546771E-02  0.1270940E+00
         21   -1    0    0  501  502  0.00000000000E+00  0.00000000000E+00  0.46259888061E+02  0.46259888061E+02  0.00000000000E+00 0.  1.
          2   -1    0    0  502    0 -0.00000000000E+00 -0.00000000000E+00 -0.59045951127E+03  0.59045951127E+03  0.00000000000E+00 0. -1.
         23    2    1    2    0    0  0.17311589865E+02  0.66938759961E+02 -0.15521799742E+03  0.19388337551E+03  0.93368345004E+02 0.  0.
         24    2    1    2    0    0 -0.69149768663E+02  0.51403640947E+01 -0.12366278418E+03  0.16305631652E+03  0.80540451421E+02 0.  0.
        -13    1    4    4    0    0 -0.23212139908E+02 -0.36290244872E+02 -0.38349904176E+02  0.57675822164E+02  0.00000000000E+00 0.  1.
         14    1    4    4    0    0 -0.45937628756E+02  0.41430608967E+02 -0.85312880008E+02  0.10538049435E+03  0.00000000000E+00 0. -1.
        -11    1    3    3    0    0  0.41640372045E+02  0.63207020097E+02 -0.15100392938E+03  0.16891191392E+03  0.00000000000E+00 0.  1.
         11    1    3    3    0    0 -0.24328782180E+02  0.37317398640E+01 -0.42140680329E+01  0.24971461595E+02  0.00000000000E+00 0. -1.
          1    1    1    2  501    0  0.51838178799E+02 -0.72079124055E+02 -0.26531884161E+03  0.27977970730E+03  0.00000000000E+00 0. -1.
<scales pt_clust_5="13000.00000" pt_clust_6="13000.00000" pt_clust_7="13000.00000" pt_clust_8="13000.00000" pt_clust_9="88.78403"></scales>
<clustering>
<clus scale="   80.540">  5  6 -1 -1</clus>
<clus scale="   88.784">  1  9  2 -1</clus>
<clus scale="   93.368">  7  8 -1 -1</clus>
<clus scale="   96.491">  1  5  2 -1</clus>
<clus scale="   88.784">  1  5  2 -1</clus>
</clustering>
</event>
<event>
 9    2  0.1654290E-004  0.1626236E+03  0.7546771E-02  0.1187319E+00
         21   -1    0    0  501  502  0.00000000000E+00  0.00000000000E+00  0.23640895957E+03  0.23640895957E+03  0.00000000000E+00 0. -1.
         -1   -1    0    0    0  501 -0.00000000000E+00 -0.00000000000E+00 -0.15370370136E+03  0.15370370136E+03  0.00000000000E+00 0.  1.
         24    2    1    2    0    0 -0.10670620799E+02 -0.15498401826E+03  0.15821545132E+02  0.17535853955E+03  0.79789648684E+02 0.  0.
         23    2    1    2    0    0 -0.14697810726E+02  0.11071305860E+03  0.76769403663E+02  0.16278103156E+03  0.90170482492E+02 0.  0.
        -11    1    3    3    0    0  0.12600373113E+02 -0.25091593243E+02 -0.24616885034E+02  0.37340975922E+02  0.00000000000E+00 0.  1.
         12    1    3    3    0    0 -0.23270993912E+02 -0.12989242502E+03  0.40438430166E+02  0.13801756363E+03  0.00000000000E+00 0. -1.
        -13    1    4    4    0    0 -0.51505602707E+02  0.80032961923E+02  0.44902374353E+02  0.10523462038E+03  0.00000000000E+00 0. -1.
         13    1    4    4    0    0  0.36807791981E+02  0.30680096677E+02  0.31867029310E+02  0.57546411180E+02  0.00000000000E+00 0.  1.
         -2    1    1    2    0  502  0.25368431526E+02  0.44270959661E+02 -0.98856905770E+01  0.51973089821E+02  0.00000000000E+00 0.  1.
<scales pt_clust_5="13000.00000" pt_clust_6="13000.00000" pt_clust_7="13000.00000" pt_clust_8="13000.00000" pt_clust_9="51.02429"></scales>
<clustering>
<clus scale="   51.024">  1  9  2 -1</clus>
<clus scale="   79.790">  5  6 -1 -1</clus>
<clus scale="   90.170">  7  8 -1 -1</clus>
<clus scale="  157.105">  2  5  1 -1</clus>
<clus scale="   51.024">  1  5  2 -1</clus>
</clustering>
</event>
<event>
 9    2  0.1654290E-004  0.9453909E+02  0.7546771E-02  0.1295778E+00
         21   -1    0    0  501  502  0.00000000000E+00  0.00000000000E+00  0.12871509107E+03  0.12871509107E+03  0.00000000000E+00 0.  1.
          2   -1    0    0  502    0 -0.00000000000E+00 -0.00000000000E+00 -0.12464869306E+03  0.12464869306E+03  0.00000000000E+00 0. -1.
         24    2    1    2    0    0  0.22563131826E+00  0.44343280980E+02 -0.59484132884E+02  0.10940692490E+03  0.80406067396E+02 0.  0.
         23    2    1    2    0    0 -0.15437626382E+02 -0.18726728775E+02  0.22283767422E+02  0.93059331705E+02  0.87031386568E+02 0.  0.
        -13    1    3    3    0    0 -0.17570067611E+02  0.48115350857E+02 -0.44171773465E+01  0.51413088991E+02  0.00000000000E+00 0.  1.
         14    1    3    3    0    0  0.17795698929E+02 -0.37720698770E+01 -0.55066955537E+02  0.57993835911E+02  0.00000000000E+00 0. -1.
        -13    1    4    4    0    0 -0.31329008358E+02 -0.46851427387E+02  0.54263747451E+01  0.56621626220E+02  0.00000000000E+00 0.  1.
         13    1    4    4    0    0  0.15891381976E+02  0.28124698612E+02  0.16857392677E+02  0.36437705485E+02  0.00000000000E+00 0. -1.
          1    1    1    2  501    0  0.15211995064E+02 -0.25616552205E+02  0.41266763467E+02  0.50897527521E+02  0.00000000000E+00 0. -1.
<scales pt_clust_5="13000.00000" pt_clust_6="13000.00000" pt_clust_7="13000.00000" pt_clust_8="13000.00000" pt_clust_9="29.79283"></scales>
<clustering>
<clus scale="   29.793">  1  9  2 -1</clus>
<clus scale="   80.406">  5  6 -1 -1</clus>
<clus scale="   87.031">  7  8 -1 -1</clus>
<clus scale="   88.478">  2  5  1 -1</clus>
<clus scale="   29.793">  1  5  2 -1</clus>
</clustering>
</event>
<event>
 9    2  0.1654290E-004  0.1423161E+03  0.7546771E-02  0.1215718E+00
         21   -1    0    0  501  502  0.00000000000E+00  0.00000000000E+00  0.30013494555E+03  0.30013494555E+03  0.00000000000E+00 0. -1.
          4   -1    0    0  502    0 -0.00000000000E+00 -0.00000000000E+00 -0.10510730731E+03  0.10510730731E+03  0.00000000000E+00 0. -1.
         23    2    1    2    0    0 -0.96786257989E+02 -0.48842276749E+02 -0.75485580443E+01  0.15011670920E+03  0.10356108303E+03 0.  0.
         24    2    1    2    0    0  0.65479642822E+02  0.41898500513E+02  0.10960261245E+03  0.15677714524E+03  0.80766779340E+02 0.  0.
        -11    1    4    4    0    0  0.17718753930E+02  0.26089804389E+02 -0.47063040896E+01  0.31887010397E+02  0.00000000000E+00 0.  1.
         12    1    4    4    0    0  0.47760888892E+02  0.15808696124E+02  0.11430891654E+03  0.12489013485E+03  0.00000000000E+00 0. -1.
        -13    1    3    3    0    0 -0.53974800754E+02 -0.46598657130E+02 -0.52081828890E+02  0.88301930122E+02  0.00000000000E+00 0. -1.
         13    1    3    3    0    0 -0.42811457235E+02 -0.22436196192E+01  0.44533270846E+02  0.61814779073E+02  0.00000000000E+00 0.  1.
          3    1    1    2  501    0  0.31306615167E+02  0.69437762356E+01  0.92973583832E+02  0.98348398422E+02  0.00000000000E+00 0. -1.
<scales pt_clust_5="13000.00000" pt_clust_6="13000.00000" pt_clust_7="13000.00000" pt_clust_8="13000.00000" pt_clust_9="32.06743"></scales>
<clustering>
<clus scale="   32.067">  1  9  2 -1</clus>
<clus scale="   80.767">  5  6 -1 -1</clus>
<clus scale="  103.561">  7  8 -1 -1</clus>
<clus scale="  126.697">  1  5  2 -1</clus>
<clus scale="   32.067">  1  5  2 -1</clus>
</clustering>
</event>
<event>
 9    2  0.1654290E-004  0.1441692E+03  0.7546771E-02  0.1222395E+00
         21   -1    0    0  501  502  0.00000000000E+00  0.00000000000E+00  0.26203373340E+02  0.26203373340E+02  0.00000000000E+00 0. -1.
          2   -1    0    0  502    0 -0.00000000000E+00 -0.00000000000E+00 -0.13670062628E+04  0.13670062628E+04  0.00000000000E+00 0. -1.
         23    2    1    2    0    0  0.54608096024E+02  0.26839732882E+02 -0.32418195951E+03  0.34104267314E+03  0.86681870174E+02 0.  0.
         24    2    1    2    0    0 -0.50470837993E+02 -0.13289559386E+03 -0.55121851821E+03  0.57481555428E+03  0.79765420291E+02 0.  0.
        -13    1    4    4    0    0  0.15821762783E+02 -0.24222797375E+02 -0.50813162682E+02  0.58472639687E+02  0.00000000000E+00 0.  1.
         14    1    4    4    0    0 -0.66292600776E+02 -0.10867279649E+03 -0.50040535553E+03  0.51634291460E+03  0.00000000000E+00 0. -1.
        -11    1    3    3    0    0  0.27071898854E+02  0.50448467943E+02 -0.11202563333E+03  0.12580810049E+03  0.00000000000E+00 0.  1.
         11    1    3    3    0    0  0.27536197170E+02 -0.23608735062E+02 -0.21215632618E+03  0.21523457265E+03  0.00000000000E+00 0. -1.
          1    1    1    2  501    0 -0.41372580311E+01  0.10605586098E+03 -0.46540241173E+03  0.47735140871E+03  0.00000000000E+00 0. -1.
<scales pt_clust_5="13000.00000" pt_clust_6="13000.00000" pt_clust_7="13000.00000" pt_clust_8="13000.00000" pt_clust_9="120.09271"></scales>
<clustering>
<clus scale="   79.765">  5  6 -1 -1</clus>
<clus scale="   86.682">  7  8 -1 -1</clus>
<clus scale="  105.906">  2  7  1 -1</clus>
<clus scale="  120.093">  1  9  2 -1</clus>
<clus scale="  120.093">  1  5  2 -1</clus>
</clustering>
</event>
<event>
 9    2  0.1654290E-004  0.1547079E+03  0.7546771E-02  0.1212354E+00
         21   -1    0    0  501  502  0.00000000000E+00  0.00000000000E+00  0.27724284037E+03  0.27724284037E+03  0.00000000000E+00 0. -1.
          2   -1    0    0  502    0 -0.00000000000E+00 -0.00000000000E+00 -0.21130020425E+03  0.21130020425E+03  0.00000000000E+00 0. -1.
         24    2    1    2    0    0 -0.69198885423E+02  0.15401697288E+01 -0.80788626962E+01  0.10622702396E+03  0.80175150334E+02 0.  0.
         23    2    1    2    0    0  0.35254257135E+02 -0.12335160215E+03  0.16378437538E+03  0.22724301569E+03  0.91408895425E+02 0.  0.
        -13    1    3    3    0    0 -0.14357013084E+01  0.20670240186E+02  0.21496045566E+02  0.29856323327E+02  0.00000000000E+00 0.  1.
         14    1    3    3    0    0 -0.67763184115E+02 -0.19130070458E+02 -0.29574908262E+02  0.76370700637E+02  0.00000000000E+00 0. -1.
        -11    1    4    4    0    0  0.28296918554E+02 -0.74155819936E+02  0.15851879834E+03  0.17727947049E+03  0.00000000000E+00 0. -1.
         11    1    4    4    0    0  0.69573385809E+01 -0.49195782214E+02  0.52655770438E+01  0.49963545204E+02  0.00000000000E+00 0.  1.
          1    1    1    2  501    0  0.33944628288E+02  0.12181143242E+03 -0.89762876567E+02  0.15507300496E+03  0.00000000000E+00 0. -1.
<scales pt_clust_5="13000.00000" pt_clust_6="13000.00000" pt_clust_7="13000.00000" pt_clust_8="13000.00000" pt_clust_9="124.81572"></scales>
<clustering>
<clus scale="   80.175">  5  6 -1 -1</clus>
<clus scale="   91.409">  7  8 -1 -1</clus>
<clus scale="  105.919">  2  5  1 -1</clus>
<clus scale="  124.816">  1  9  2 -1</clus>
<clus scale="  124.816">  1  5  2 -1</clus>
</clustering>
</event>
<event>
 9    2  0.1654290E-004  0.1466967E+03  0.7546771E-02  0.1221363E+00
         21   -1    0    0  501  502  0.00000000000E+00  0.00000000000E+00  0.10739960755E+03  0.10739960755E+03  0.00000000000E+00 0.  1.
          2   -1    0    0  502    0 -0.00000000000E+00 -0.00000000000E+00 -0.47921689518E+03  0.47921689518E+03  0.00000000000E+00 0. -1.
         23    2    1    2    0    0  0.41740656719E+02  0.21213521872E+02 -0.62307792375E+02  0.12014243507E+03  0.91431109481E+02 0.  0.
         24    2    1    2    0    0 -0.10368868100E+03  0.87625006577E+02 -0.30371714465E+03  0.34110686975E+03  0.75367819990E+02 0.  0.
        -13    1    4    4    0    0 -0.91522713964E+02  0.95212351918E+02 -0.22338043384E+03  0.25950070781E+03  0.00000000000E+00 0.  1.
         14    1    4    4    0    0 -0.12165967034E+02 -0.75873453406E+01 -0.80336710808E+02  0.81606161941E+02  0.00000000000E+00 0. -1.
        -11    1    3    3    0    0  0.67807574534E+02  0.26882062926E+02 -0.57847683944E+02  0.93096009630E+02  0.00000000000E+00 0. -1.
         11    1    3    3    0    0 -0.26066917815E+02 -0.56685410536E+01 -0.44601084307E+01  0.27046425443E+02  0.00000000000E+00 0.  1.
          1    1    1    2  501    0  0.61948024278E+02 -0.10883852845E+03 -0.57923506064E+01  0.12536719791E+03  0.00000000000E+00 0. -1.
<scales pt_clust_5="13000.00000" pt_clust_6="13000.00000" pt_clust_7="13000.00000" pt_clust_8="13000.00000" pt_clust_9="125.85556"></scales>
<clustering>
<clus scale="   75.368">  5  6 -1 -1</clus>
<clus scale="   91.431">  7  8 -1 -1</clus>
<clus scale="  102.723">  2  7  1 -1</clus>
<clus scale="  125.856">  1  9  2 -1</clus>
<clus scale="  125.856">  1  5  2 -1</clus>
</clustering>
</event>
<event>
 9    2  0.1654290E-004  0.4038231E+03  0.7546771E-02  0.1066442E+00
         21   -1    0    0  501  502  0.00000000000E+00  0.00000000000E+00  0.29518988721E+03  0.29518988721E+03  0.00000000000E+00 0. -1.
          2   -1    0    0  502    0 -0.00000000000E+00 -0.00000000000E+00 -0.21423579672E+04  0.21423579672E+04  0.00000000000E+00 0. -1.
         24    2    1    2    0    0  0.13163488436E+03 -0.13415190768E+03 -0.84065997273E+03  0.86527523878E+03  0.81655201720E+02 0.  0.
         23    2    1    2    0    0 -0.36894135723E+03  0.41828969782E+03 -0.10571313289E+04  0.11986265848E+04  0.89972477891E+02 0.  0.
        -11    1    3    3    0    0  0.12203560416E+03 -0.72384499839E+02 -0.55426508021E+03  0.57213808092E+03  0.00000000000E+00 0.  1.
         12    1    3    3    0    0  0.95992801989E+01 -0.61767407841E+02 -0.28639489252E+03  0.29313715785E+03  0.00000000000E+00 0. -1.
        -13    1    4    4    0    0 -0.33385598484E+03  0.36685689585E+03 -0.98843403063E+03  0.11059139359E+04  0.00000000000E+00 0. -1.
         13    1    4    4    0    0 -0.35085372390E+02  0.51432801972E+02 -0.68697298257E+02  0.92712648880E+02  0.00000000000E+00 0.  1.
          1    1    1    2  501    0  0.23730647287E+03 -0.28413779014E+03  0.50623221596E+02  0.37364603091E+03  0.00000000000E+00 0. -1.
<scales pt_clust_5="13000.00000" pt_clust_6="13000.00000" pt_clust_7="13000.00000" pt_clust_8="13000.00000" pt_clust_9="393.67256"></scales>
<clustering>
<clus scale="   81.655">  5  6 -1 -1</clus>
<clus scale="   89.972">  7  8 -1 -1</clus>
<clus scale="  204.920">  2  5  1 -1</clus>
<clus scale="  393.673">  1  9  2 -1</clus>
<clus scale="  393.673">  1  5  2 -1</clus>
</clustering>
</event>
<event>
 9    2  0.1654290E-004  0.1234910E+03  0.7546771E-02  0.1240665E+00
          2   -1    0    0  502    0 -0.00000000000E+00  0.00000000000E+00  0.14821932099E+03  0.14821932099E+03  0.00000000000E+00 0. -1.
         21   -1    0    0  501  502  0.00000000000E+00 -0.00000000000E+00 -0.57187198315E+03  0.57187198315E+03  0.00000000000E+00 0. -1.
         24    2    1    2    0    0  0.38960825243E+01  0.87448982849E+02  0.10641398782E+03  0.15967075286E+03  0.80674087866E+02 0.  0.
         23    2    1    2    0    0  0.23503173896E+02 -0.47236034958E+02 -0.19450694385E+03  0.22135106458E+03  0.91540703536E+02 0.  0.
        -11    1    3    3    0    0 -0.19798645877E+02 -0.74317219298E+01  0.21469043627E+02  0.30135306596E+02  0.00000000000E+00 0.  1.
         12    1    3    3    0    0  0.23694728401E+02  0.94880704779E+02  0.84944944194E+02  0.12953544626E+03  0.00000000000E+00 0. -1.
        -13    1    4    4    0    0  0.48216392148E+02 -0.49217582132E+02 -0.86769186318E+02  0.11079748443E+03  0.00000000000E+00 0.  1.
         13    1    4    4    0    0 -0.24713218251E+02  0.19815471739E+01 -0.10773775753E+03  0.11055358014E+03  0.00000000000E+00 0. -1.
          1    1    1    2  501    0 -0.27399256421E+02 -0.40212947891E+02 -0.33555970613E+03  0.33906948670E+03  0.00000000000E+00 0. -1.
<scales pt_clust_5="13000.00000" pt_clust_6="13000.00000" pt_clust_7="13000.00000" pt_clust_8="13000.00000" pt_clust_9="48.66005"></scales>
<clustering>
<clus scale="   48.660">  2  9  1 -1</clus>
<clus scale="   80.674">  5  6 -1 -1</clus>
<clus scale="   91.541">  7  8 -1 -1</clus>
<clus scale="  115.666">  1  5  2 -1</clus>
<clus scale="   48.660">  2  5  1 -1</clus>
</clustering>
</event>
<event>
 9    2  0.1654290E-004  0.3374874E+03  0.7546771E-02  0.1068140E+00
         21   -1    0    0  501  502  0.00000000000E+00  0.00000000000E+00  0.17303290995E+03  0.17303290995E+03  0.00000000000E+00 0.  1.
          2   -1    0    0  502    0 -0.00000000000E+00 -0.00000000000E+00 -0.19498629823E+04  0.19498629823E+04  0.00000000000E+00 0. -1.
         24    2    1    2    0    0 -0.18479357124E+03 -0.26242867502E+03 -0.15526948941E+04  0.15875062939E+04  0.79355690172E+02 0.  0.
         23    2    1    2    0    0  0.12607120812E+03  0.34001543965E+03 -0.22878660355E+03  0.43797472413E+03  0.89297817996E+02 0.  0.
        -13    1    3    3    0    0 -0.13057704645E+03 -0.11687495645E+03 -0.80782010510E+03  0.82660960720E+03  0.00000000000E+00 0.  1.
         14    1    3    3    0    0 -0.54216524794E+02 -0.14555371856E+03 -0.74487478896E+03  0.76089668666E+03  0.00000000000E+00 0. -1.
        -13    1    4    4    0    0  0.19600903580E+02  0.94159754178E+02 -0.10639542879E+03  0.14342329656E+03  0.00000000000E+00 0. -1.
         13    1    4    4    0    0  0.10647030454E+03  0.24585568547E+03 -0.12239117476E+03  0.29455142757E+03  0.00000000000E+00 0.  1.
          1    1    1    2  501    0  0.58722363123E+02 -0.77586764628E+02  0.46514252317E+01  0.97414874289E+02  0.00000000000E+00 0. -1.
<scales pt_clust_5="13000.00000" pt_clust_6="13000.00000" pt_clust_7="13000.00000" pt_clust_8="13000.00000" pt_clust_9="97.30376"></scales>
<clustering>
<clus scale="   79.356">  5  6 -1 -1</clus>
<clus scale="   89.298">  7  8 -1 -1</clus>
<clus scale="   97.304">  1  9  2 -1</clus>
<clus scale="  334.994">  2  5  1 -1</clus>
<clus scale="   97.304">  1  5  2 -1</clus>
</clustering>
</event>
<event>
 9    2  0.1654290E-004  0.2590421E+03  0.7546771E-02  0.1109035E+00
          2   -1    0    0  502    0 -0.00000000000E+00  0.00000000000E+00  0.11834027053E+04  0.11834027053E+04  0.00000000000E+00 0. -1.
         21   -1    0    0  501  502  0.00000000000E+00 -0.00000000000E+00 -0.95611409400E+02  0.95611409400E+02  0.00000000000E+00 0. -1.
         24    2    1    2    0    0 -0.80702958667E+02 -0.24484834752E+03  0.68822997023E+03  0.73928362768E+03  0.80100620548E+02 0.  0.
         23    2    1    2    0    0  0.72878282033E+02  0.19989731005E+03  0.42573298615E+03  0.48713032410E+03  0.10381328724E+03 0.  0.
        -11    1    3    3    0    0 -0.87559885128E+02 -0.16676858090E+03  0.43060219317E+03  0.46999653384E+03  0.00000000000E+00 0.  1.
         12    1    3    3    0    0  0.68569264605E+01 -0.78079766620E+02  0.25762777706E+03  0.26928709384E+03  0.00000000000E+00 0. -1.
        -11    1    4    4    0    0  0.97558913924E+02  0.17628093246E+03  0.34595669232E+03  0.40034827563E+03  0.00000000000E+00 0.  1.
         11    1    4    4    0    0 -0.24680631891E+02  0.23616377598E+02  0.79776293823E+02  0.86782048475E+02  0.00000000000E+00 0. -1.
          1    1    1    2  501    0  0.78246766339E+01  0.44951037463E+02 -0.26171660437E+02  0.52600162960E+02  0.00000000000E+00 0. -1.
<scales pt_clust_5="13000.00000" pt_clust_6="13000.00000" pt_clust_7="13000.00000" pt_clust_8="13000.00000" pt_clust_9="45.62698"></scales>
<clustering>
<clus scale="   45.627">  2  9  1 -1</clus>
<clus scale="   80.101">  5  6 -1 -1</clus>
<clus scale="  103.813">  7  8 -1 -1</clus>
<clus scale="  250.483">  1  5  2 -1</clus>
<clus scale="   45.627">  2  5  1 -1</clus>
</clustering>
</event>
<event>
 9    2  0.1654290E-004  0.9689891E+02  0.7546771E-02  0.1300435E+00
          2   -1    0    0  502    0 -0.00000000000E+00  0.00000000000E+00  0.28807782884E+03  0.28807782884E+03  0.00000000000E+00 0. -1.
         21   -1    0    0  501  502  0.00000000000E+00 -0.00000000000E+00 -0.40581695326E+02  0.40581695326E+02  0.00000000000E+00 0.  1.
         24    2    1    2    0    0 -0.41596434311E+02 -0.30326976275E+02  0.10344988014E+03  0.13183375586E+03  0.63468674523E+02 0.  0.
         23    2    1    2    0    0  0.25153453297E+01  0.35127767373E+02  0.10340501869E+03  0.14023876390E+03  0.87943311329E+02 0.  0.
        -11    1    3    3    0    0 -0.42393518632E+02 -0.46841467613E+02  0.92451900504E+02  0.11197628060E+03  0.00000000000E+00 0.  1.
         12    1    3    3    0    0  0.79708432101E+00  0.16514491339E+02  0.10997979632E+02  0.19857475257E+02  0.00000000000E+00 0. -1.
        -13    1    4    4    0    0 -0.38569411356E+02  0.25528262827E+02  0.28672296045E+02  0.54418675616E+02  0.00000000000E+00 0. -1.
         13    1    4    4    0    0  0.41084756685E+02  0.95995045455E+01  0.74732722643E+02  0.85820088284E+02  0.00000000000E+00 0.  1.
          1    1    1    2  501    0  0.39081088981E+02 -0.48007910980E+01  0.40641234694E+02  0.56587004414E+02  0.00000000000E+00 0. -1.
<scales pt_clust_5="13000.00000" pt_clust_6="13000.00000" pt_clust_7="13000.00000" pt_clust_8="13000.00000" pt_clust_9="39.37485"></scales>
<clustering>
<clus scale="   39.375">  2  9  1 -1</clus>
<clus scale="   63.469">  5  6 -1 -1</clus>
<clus scale="   75.390">  1  5  2 -1</clus>
<clus scale="   87.943">  7  8 -1 -1</clus>
<clus scale="   39.375">  2  5  1 -1</clus>
</clustering>
</event>
<event>
 9    2  0.1654290E-004  0.1225991E+03  0.7546771E-02  0.1241737E+00
          4   -1    0    0  502    0 -0.00000000000E+00  0.00000000000E+00  0.47037230925E+02  0.47037230925E+02  0.00000000000E+00 0. -1.
         21   -1    0    0  501  502  0.00000000000E+00 -0.00000000000E+00 -0.69575268233E+03  0.69575268233E+03  0.00000000000E+00 0. -1.
         24    2    1    2    0    0 -0.10127064972E+02  0.98352689862E+02 -0.23671940443E+03  0.26912048312E+03  0.81326188627E+02 0.  0.
         23    2    1    2    0    0 -0.14620167177E+01 -0.54846821337E+02 -0.41516995973E+03  0.42853473026E+03  0.90915390731E+02 0.  0.
        -13    1    3    3    0    0  0.24570040839E+02  0.24664049284E+01 -0.32088247101E+02  0.40489821711E+02  0.00000000000E+00 0.  1.
         14    1    3    3    0    0 -0.34697105811E+02  0.95886284933E+02 -0.20463115733E+03  0.22863066141E+03  0.00000000000E+00 0. -1.
        -13    1    4    4    0    0 -0.37595435949E+02 -0.23351952143E+01 -0.97302692177E+02  0.10433927279E+03  0.00000000000E+00 0.  1.
         13    1    4    4    0    0  0.36133419231E+02 -0.52511626122E+02 -0.31786726755E+03  0.32419545747E+03  0.00000000000E+00 0. -1.
          3    1    1    2  501    0  0.11589081689E+02 -0.43505868525E+02  0.31739127513E+01  0.45134699874E+02  0.00000000000E+00 0. -1.
<scales pt_clust_5="13000.00000" pt_clust_6="13000.00000" pt_clust_7="13000.00000" pt_clust_8="13000.00000" pt_clust_9="45.02299"></scales>
<clustering>
<clus scale="   45.023">  2  9  1 -1</clus>
<clus scale="   81.326">  5  6 -1 -1</clus>
<clus scale="   90.915">  7  8 -1 -1</clus>
<clus scale="  115.667">  1  5  2 -1</clus>
<clus scale="   45.023">  2  5  1 -1</clus>
</clustering>
</event>
<event>
 9    2  0.1654290E-004  0.9296908E+02  0.7546771E-02  0.1305437E+00
         21   -1    0    0  501  502  0.00000000000E+00  0.00000000000E+00  0.55912874888E+02  0.55912874888E+02  0.00000000000E+00 0. -1.
          2   -1    0    0  502    0 -0.00000000000E+00 -0.00000000000E+00 -0.57477613833E+03  0.57477613833E+03  0.00000000000E+00 0. -1.
         24    2    1    2    0    0 -0.16197986225E+02 -0.12439003554E+02 -0.45545219198E+03  0.46218474970E+03  0.75900857120E+02 0.  0.
         23    2    1    2    0    0  0.10667457296E+02 -0.17733240931E+02 -0.88525268899E+02  0.12885991966E+03  0.91323015623E+02 0.  0.
        -11    1    3    3    0    0  0.81807424160E+01  0.28558427093E+02 -0.13731041135E+03  0.14048721426E+03  0.00000000000E+00 0.  1.
         12    1    3    3    0    0 -0.24378728641E+02 -0.40997430647E+02 -0.31814178063E+03  0.32169753544E+03  0.00000000000E+00 0. -1.
        -11    1    4    4    0    0  0.15467476539E+01 -0.55029680614E+02 -0.48066396648E+02  0.73082396399E+02  0.00000000000E+00 0. -1.
         11    1    4    4    0    0  0.91207096423E+01  0.37296439683E+02 -0.40458872252E+02  0.55777523262E+02  0.00000000000E+00 0.  1.
          1    1    1    2  501    0  0.55305289286E+01  0.30172244485E+02  0.25114197430E+02  0.39644343860E+02  0.00000000000E+00 0. -1.
<scales pt_clust_5="13000.00000" pt_clust_6="13000.00000" pt_clust_7="13000.00000" pt_clust_8="13000.00000" pt_clust_9="30.67493"></scales>
<clustering>
<clus scale="   30.675">  1  9  2 -1</clus>
<clus scale="   75.901">  5  6 -1 -1</clus>
<clus scale="   77.874">  2  5  1 -1</clus>
<clus scale="   91.323">  7  8 -1 -1</clus>
<clus scale="   30.675">  1  5  2 -1</clus>
</clustering>
</event>
<event>
 9    2  0.1654290E-004  0.1490546E+03  0.7546771E-02  0.1203862E+00
         21   -1    0    0  501  502  0.00000000000E+00  0.00000000000E+00  0.78069221819E+03  0.78069221819E+03  0.00000000000E+00 0. -1.
         -3   -1    0    0    0  501 -0.00000000000E+00 -0.00000000000E+00 -0.25186877937E+03  0.25186877937E+03  0.00000000000E+00 0.  1.
         23    2    1    2    0    0  0.40502139120E+02  0.10723727303E+03 -0.17764237936E+03  0.23050722817E+03  0.91850483362E+02 0.  0.
         24    2    1    2    0    0  0.72082767056E+02 -0.17711837371E+03  0.23995978927E+03  0.31709335417E+03  0.80004069743E+02 0.  0.
        -13    1    4    4    0    0 -0.79510237747E+01 -0.82140429044E+02  0.84519463456E+02  0.11812623995E+03  0.00000000000E+00 0.  1.
         14    1    4    4    0    0  0.80033790830E+02 -0.94977944669E+02  0.15544032582E+03  0.19896711421E+03  0.00000000000E+00 0. -1.
        -11    1    3    3    0    0  0.53171234684E+02  0.75952685525E+02 -0.17321263450E+03  0.19646528290E+03  0.00000000000E+00 0.  1.
         11    1    3    3    0    0 -0.12669095563E+02  0.31284587508E+02 -0.44297448569E+01  0.34041945265E+02  0.00000000000E+00 0. -1.
         -4    1    1    2    0  502 -0.11258490618E+03  0.69881100680E+02  0.46650602891E+03  0.48496041523E+03  0.00000000000E+00 0.  1.
<scales pt_clust_5="13000.00000" pt_clust_6="13000.00000" pt_clust_7="13000.00000" pt_clust_8="13000.00000" pt_clust_9="132.50936"></scales>
<clustering>
<clus scale="   80.004">  5  6 -1 -1</clus>
<clus scale="   91.850">  7  8 -1 -1</clus>
<clus scale="  132.509">  1  9  2 -1</clus>
<clus scale="  142.061">  1  5  2 -1</clus>
<clus scale="  132.509">  1  5  2 -1</clus>
</clustering>
</event>
<event>
 9    2  0.1654290E-004  0.1092241E+03  0.7546771E-02  0.1269526E+00
         21   -1    0    0  501  502  0.00000000000E+00  0.00000000000E+00  0.22413734832E+03  0.22413734832E+03  0.00000000000E+00 0. -1.
          4   -1    0    0  502    0 -0.00000000000E+00 -0.00000000000E+00 -0.14640768978E+03  0.14640768978E+03  0.00000000000E+00 0. -1.
         23    2    1    2    0    0  0.64203657696E+02  0.12379674233E+02 -0.89767921808E+02  0.14335414956E+03  0.90646381148E+02 0.  0.
         24    2    1    2    0    0 -0.25122806287E+02 -0.54927042846E+02  0.11971609657E+03  0.15221981602E+03  0.72047159416E+02 0.  0.
        -13    1    4    4    0    0 -0.39612923392E+02 -0.55594872107E+02  0.60377721348E+02  0.91134201810E+02  0.00000000000E+00 0.  1.
         14    1    4    4    0    0  0.14490117105E+02  0.66782926159E+00  0.59338375218E+02  0.61085614208E+02  0.00000000000E+00 0. -1.
        -13    1    3    3    0    0  0.33523232321E+02 -0.38988064925E+02 -0.34653898367E+02  0.62006201172E+02  0.00000000000E+00 0.  1.
         13    1    3    3    0    0  0.30680425375E+02  0.51367739157E+02 -0.55114023442E+02  0.81347948390E+02  0.00000000000E+00 0. -1.
          3    1    1    2  501    0 -0.39080851410E+02  0.42547368613E+02  0.47781483781E+02  0.74971072522E+02  0.00000000000E+00 0. -1.
<scales pt_clust_5="13000.00000" pt_clust_6="13000.00000" pt_clust_7="13000.00000" pt_clust_8="13000.00000" pt_clust_9="57.77189"></scales>
<clustering>
<clus scale="   57.772">  1  9  2 -1</clus>
<clus scale="   72.047">  5  6 -1 -1</clus>
<clus scale="   90.646">  7  8 -1 -1</clus>
<clus scale="   94.361">  1  5  2 -1</clus>
<clus scale="   57.772">  1  5  2 -1</clus>
</clustering>
</event>
<event>
 9    2  0.1654290E-004  0.3739152E+03  0.7546771E-02  0.1053550E+00
         21   -1    0    0  501  502  0.00000000000E+00  0.00000000000E+00  0.28094763500E+03  0.28094763500E+03  0.00000000000E+00 0. -1.
          2   -1    0    0  502    0 -0.00000000000E+00 -0.00000000000E+00 -0.99699879097E+03  0.99699879097E+03  0.00000000000E+00 0. -1.
         23    2    1    2    0    0  0.25778310405E+03  0.31547694523E+02 -0.12184702496E+03  0.30114072849E+03  0.91605977414E+02 0.  0.
         24    2    1    2    0    0 -0.49854335564E+03 -0.12054031668E+03 -0.38751887117E+03  0.64725451454E+03  0.75445912355E+02 0.  0.
        -11    1    4    4    0    0 -0.16870248815E+03 -0.76690765617E+02 -0.15040564317E+03  0.23867102995E+03  0.00000000000E+00 0.  1.
         12    1    4    4    0    0 -0.32984086749E+03 -0.43849551058E+02 -0.23711322800E+03  0.40858348460E+03  0.00000000000E+00 0. -1.
        -13    1    3    3    0    0  0.10879835996E+03 -0.18860231063E+02 -0.85657071280E+02  0.13974950914E+03  0.00000000000E+00 0.  1.
         13    1    3    3    0    0  0.14898474409E+03  0.50407925586E+02 -0.36189953684E+02  0.16139121934E+03  0.00000000000E+00 0. -1.
          1    1    1    2  501    0  0.24076025159E+03  0.88992622153E+02 -0.20668525984E+03  0.32955118294E+03  0.00000000000E+00 0. -1.
<scales pt_clust_5="13000.00000" pt_clust_6="13000.00000" pt_clust_7="13000.00000" pt_clust_8="13000.00000" pt_clust_9="256.68123"></scales>
<clustering>
<clus scale="   75.446">  5  6 -1 -1</clus>
<clus scale="   91.606">  7  8 -1 -1</clus>
<clus scale="  256.681">  1  9  2 -1</clus>
<clus scale="  370.288">  1  5  2 -1</clus>
<clus scale="  256.681">  1  5  2 -1</clus>
</clustering>
</event>
<event>
 9    2  0.1654290E-004  0.9096477E+02  0.7546771E-02  0.1308678E+00
         -3   -1    0    0    0  501 -0.00000000000E+00  0.00000000000E+00  0.19205644566E+03  0.19205644566E+03  0.00000000000E+00 0.  1.
         21   -1    0    0  501  502  0.00000000000E+00 -0.00000000000E+00 -0.87764267299E+02  0.87764267299E+02  0.00000000000E+00 0. -1.
         23    2    1    2    0    0  0.22649542206E+02 -0.16048540254E+02  0.10742263022E+03  0.14311391481E+03  0.90395872262E+02 0.  0.
         24    2    1    2    0    0  0.18816350614E+02 -0.15024352358E+02  0.13123225313E+02  0.82400933416E+02  0.77703980406E+02 0.  0.
        -11    1    4    4    0    0 -0.19761730990E+02 -0.15822203320E+02  0.30875377074E+02  0.39926896186E+02  0.00000000000E+00 0.  1.
         12    1    4    4    0    0  0.38578081604E+02  0.79785096157E+00 -0.17752151761E+02  0.42474037229E+02  0.00000000000E+00 0. -1.
        -11    1    3    3    0    0 -0.22398971385E+01 -0.34762566205E+02  0.10639993983E+03  0.11195713619E+03  0.00000000000E+00 0. -1.
         11    1    3    3    0    0  0.24889439344E+02  0.18714025951E+02  0.10226903908E+01  0.31156778617E+02  0.00000000000E+00 0.  1.
         -4    1    1    2    0  502 -0.41465892820E+02  0.31072892612E+02 -0.16253677175E+02  0.54305864732E+02  0.00000000000E+00 0.  1.
<scales pt_clust_5="13000.00000" pt_clust_6="13000.00000" pt_clust_7="13000.00000" pt_clust_8="13000.00000" pt_clust_9="51.81645"></scales>
<clustering>
<clus scale="   51.816">  2  9  1 -1</clus>
<clus scale="   77.704">  5  6 -1 -1</clus>
<clus scale="   78.365">  2  5  1 -1</clus>
<clus scale="   90.396">  7  8 -1 -1</clus>
<clus scale="   51.816">  2  5  1 -1</clus>
</clustering>
</event>
<event>
 9    2  0.2551451E-004  0.1114530E+03  0.7546771E-02  0.1262444E+00
         21   -1    0    0  501  502  0.00000000000E+00  0.00000000000E+00  0.37496322301E+03  0.37496322301E+03  0.00000000000E+00 0. -1.
          2   -1    0    0  502    0 -0.00000000000E+00 -0.00000000000E+00 -0.31171797074E+03  0.31171797074E+03  0.00000000000E+00 0. -1.
         24    2    1    2    0    0 -0.24754044622E+01  0.65719931569E+02 -0.28661582907E+03  0.30455608321E+03  0.79249841088E+02 0.  0.
         23    2    1    2    0    0  0.17552897862E+02 -0.32564389171E+02  0.15285760368E+03  0.18178292575E+03  0.91164913350E+02 0.  0.
        -13    1    3    3    0    0 -0.30946696059E+02  0.50954634661E+01 -0.53561971709E+02  0.62068885589E+02  0.00000000000E+00 0.  1.
         14    1    3    3    0    0  0.28471291597E+02  0.60624468103E+02 -0.23305385736E+03  0.24248719762E+03  0.00000000000E+00 0. -1.
        -11    1    4    4    0    0  0.52945151552E+01  0.32068468542E+02  0.46797723353E+02  0.56977587492E+02  0.00000000000E+00 0. -1.
         11    1    4    4    0    0  0.12258382707E+02 -0.64632857713E+02  0.10605988033E+03  0.12480533826E+03  0.00000000000E+00 0.  1.
          1    1    1    2  501    0 -0.15077493400E+02 -0.33155542398E+02  0.19700347765E+03  0.20034218479E+03  0.00000000000E+00 0. -1.
<scales pt_clust_5="13000.00000" pt_clust_6="13000.00000" pt_clust_7="13000.00000" pt_clust_8="13000.00000" pt_clust_9="36.42281"></scales>
<clustering>
<clus scale="   36.423">  1  9  2 -1</clus>
<clus scale="   79.250">  5  6 -1 -1</clus>
<clus scale="   91.165">  7  8 -1 -1</clus>
<clus scale="  101.938">  2  5  1 -1</clus>
<clus scale="   36.423">  1  5  2 -1</clus>
</clustering>
</event>
<event>
 9    2  0.1654290E-004  0.1256485E+03  0.7546771E-02  0.1235749E+00
          2   -1    0    0  502    0 -0.00000000000E+00  0.00000000000E+00  0.12372699300E+04  0.12372699300E+04  0.00000000000E+00 0. -1.
         21   -1    0    0  501  502  0.00000000000E+00 -0.00000000000E+00 -0.75758247541E+02  0.75758247541E+02  0.00000000000E+00 0.  1.
         24    2    1    2    0    0  0.60231448746E+02 -0.64098670776E+02  0.99550506561E+03  0.10026179600E+04  0.80473418280E+02 0.  0.
         23    2    1    2    0    0 -0.23239247867E+02  0.13968435061E+03  0.15192415589E+03  0.22508769044E+03  0.86785590965E+02 0.  0.
        -13    1    3    3    0    0  0.12709063232E+02 -0.45997391831E+02  0.20509054191E+03  0.21056925398E+03  0.00000000000E+00 0.  1.
         14    1    3    3    0    0  0.47522385513E+02 -0.18101278945E+02  0.79041452370E+03  0.79204870602E+03  0.00000000000E+00 0. -1.
        -13    1    4    4    0    0 -0.53203348632E+02  0.56335537193E+02  0.72811728026E+02  0.10632890856E+03  0.00000000000E+00 0.  1.
         13    1    4    4    0    0  0.29964100765E+02  0.83348813416E+02  0.79112427861E+02  0.11875878188E+03  0.00000000000E+00 0. -1.
          1    1    1    2  501    0 -0.36992200879E+02 -0.75585679833E+02  0.14082460946E+02  0.85322527084E+02  0.00000000000E+00 0. -1.
<scales pt_clust_5="13000.00000" pt_clust_6="13000.00000" pt_clust_7="13000.00000" pt_clust_8="13000.00000" pt_clust_9="84.15235"></scales>
<clustering>
<clus scale="   80.473">  5  6 -1 -1</clus>
<clus scale="   84.152">  2  9  1 -1</clus>
<clus scale="   86.786">  7  8 -1 -1</clus>
<clus scale="  121.374">  1  5  2 -1</clus>
<clus scale="   84.152">  2  5  1 -1</clus>
</clustering>
</event>
<event>
 9    2  0.1700081E-004  0.1035312E+03  0.7546771E-02  0.1275639E+00
         -3   -1    0    0    0  501 -0.00000000000E+00  0.00000000000E+00  0.32808323620E+03  0.32808323620E+03  0.00000000000E+00 0.  1.
         21   -1    0    0  501  502  0.00000000000E+00 -0.00000000000E+00 -0.13838774300E+03  0.13838774300E+03  0.00000000000E+00 0.  1.
         23    2    1    2    0    0  0.24556677386E+02  0.40242280603E+02  0.27779711937E+03  0.29603325382E+03  0.90785330792E+02 0.  0.
         24    2    1    2    0    0 -0.40892906520E+02 -0.63712110038E+02 -0.54143082351E+02  0.12604304130E+03  0.84993600494E+02 0.  0.
        -11    1    4    4    0    0  0.17969877541E+02 -0.32490854594E+02  0.43467589941E+01  0.37382702482E+02  0.00000000000E+00 0.  1.
         12    1    4    4    0    0 -0.58862784061E+02 -0.31221255443E+02 -0.58489841345E+02  0.88660338819E+02  0.00000000000E+00 0. -1.
        -13    1    3    3    0    0  0.15588234682E+02 -0.25695650003E+02  0.46609604335E+02  0.55459126443E+02  0.00000000000E+00 0. -1.
         13    1    3    3    0    0  0.89684427041E+01  0.65937930606E+02  0.23118751503E+03  0.24057412738E+03  0.00000000000E+00 0.  1.
         -4    1    1    2    0  502  0.16336229133E+02  0.23469829434E+02 -0.33958543822E+02  0.44394684079E+02  0.00000000000E+00 0.  1.
<scales pt_clust_5="13000.00000" pt_clust_6="13000.00000" pt_clust_7="13000.00000" pt_clust_8="13000.00000" pt_clust_9="28.59555"></scales>
<clustering>
<clus scale="   28.596">  2  9  1 -1</clus>
<clus scale="   84.994">  5  6 -1 -1</clus>
<clus scale="   90.785">  7  8 -1 -1</clus>
<clus scale="   98.492">  2  5  1 -1</clus>
<clus scale="   28.596">  2  5  1 -1</clus>
</clustering>
</event>
<event>
 9    2  0.1654290E-004  0.2860759E+03  0.7546771E-02  0.1092869E+00
         21   -1    0    0  501  502  0.00000000000E+00  0.00000000000E+00  0.22714950241E+03  0.22714950241E+03  0.00000000000E+00 0. -1.
          2   -1    0    0  502    0 -0.00000000000E+00 -0.00000000000E+00 -0.49421774895E+03  0.49421774895E+03  0.00000000000E+00 0. -1.
         23    2    1    2    0    0 -0.11229356691E+03 -0.26720210574E+03 -0.22504840196E+03  0.37773399838E+03  0.89606806781E+02 0.  0.
         24    2    1    2    0    0  0.71900460917E+02  0.22777399715E+03  0.28935543897E+02  0.25296437237E+03  0.78121942689E+02 0.  0.
        -11    1    4    4    0    0  0.69200546723E+02  0.95494444127E+02  0.25257472702E+02  0.12060615429E+03  0.00000000000E+00 0.  1.
         12    1    4    4    0    0  0.26999141943E+01  0.13227955302E+03  0.36780711954E+01  0.13235821808E+03  0.00000000000E+00 0. -1.
        -13    1    3    3    0    0  0.15368760712E+02 -0.37774065377E+02 -0.32350088070E+02  0.52053885725E+02  0.00000000000E+00 0.  1.
         13    1    3    3    0    0 -0.12766232763E+03 -0.22942804036E+03 -0.19269831389E+03  0.32568011265E+03  0.00000000000E+00 0. -1.
          1    1    1    2  501    0  0.40393105997E+02  0.39428108591E+02 -0.70955388476E+02  0.90668880620E+02  0.00000000000E+00 0. -1.
<scales pt_clust_5="13000.00000" pt_clust_6="13000.00000" pt_clust_7="13000.00000" pt_clust_8="13000.00000" pt_clust_9="56.44627"></scales>
<clustering>
<clus scale="   56.446">  1  9  2 -1</clus>
<clus scale="   78.122">  5  6 -1 -1</clus>
<clus scale="   89.607">  7  8 -1 -1</clus>
<clus scale="  282.689">  1  5  2 -1</clus>
<clus scale="   56.446">  1  5  2 -1</clus>
</clustering>
</event>
<event>
 9    2  0.1654290E-004  0.1782023E+03  0.7546771E-02  0.1202233E+00
         21   -1    0    0  501  502  0.00000000000E+00  0.00000000000E+00  0.10742895734E+03  0.10742895734E+03  0.00000000000E+00 0. -1.
          2   -1    0    0  502    0 -0.00000000000E+00 -0.00000000000E+00 -0.66887577093E+03  0.66887577093E+03  0.00000000000E+00 0. -1.
         24    2    1    2    0    0  0.17238367221E+02 -0.12768641552E+02 -0.26593015811E+02  0.90125221197E+02  0.83397646816E+02 0.  0.
         23    2    1    2    0    0  0.65142297479E+02  0.13862050684E+03 -0.60967559276E+02  0.18899399547E+03  0.92425771301E+02 0.  0.
        -13    1    3    3    0    0  0.11092095355E+02  0.29205221414E+02  0.11322422297E+02  0.33229155630E+02  0.00000000000E+00 0.  1.
         14    1    3    3    0    0  0.61462718662E+01 -0.41973862966E+02 -0.37915438108E+02  0.56896065568E+02  0.00000000000E+00 0. -1.
        -13    1    4    4    0    0  0.58425493019E+02  0.32670148330E+02 -0.47278505095E+02  0.81952021759E+02  0.00000000000E+00 0. -1.
         13    1    4    4    0    0  0.67168044603E+01  0.10595035851E+03 -0.13689054181E+02  0.10704197371E+03  0.00000000000E+00 0.  1.
          1    1    1    2  501    0 -0.82380664700E+02 -0.12585186529E+03 -0.47388623850E+03  0.49718551160E+03  0.00000000000E+00 0. -1.
<scales pt_clust_5="13000.00000" pt_clust_6="13000.00000" pt_clust_7="13000.00000" pt_clust_8="13000.00000" pt_clust_9="152.35995"></scales>
<clustering>
<clus scale="   83.398">  5  6 -1 -1</clus>
<clus scale="   86.113">  2  5  1 -1</clus>
<clus scale="   92.426">  7  8 -1 -1</clus>
<clus scale="  152.360">  1  9  2 -1</clus>
<clus scale="  152.360">  1  5  2 -1</clus>
</clustering>
</event>
<event>
 9    2  0.1654290E-004  0.3557063E+03  0.7546771E-02  0.1092433E+00
          4   -1    0    0  502    0 -0.00000000000E+00  0.00000000000E+00  0.16174313798E+03  0.16174313798E+03  0.00000000000E+00 0. -1.
         21   -1    0    0  501  502  0.00000000000E+00 -0.00000000000E+00 -0.11717529659E+04  0.11717529659E+04  0.00000000000E+00 0. -1.
         23    2    1    2    0    0 -0.88528742378E+02 -0.76855685229E+02 -0.23955224211E+03  0.28197823521E+03  0.91554977205E+02 0.  0.
         24    2    1    2    0    0  0.37589182222E+03  0.15895686793E+03 -0.47481797505E+03  0.63113599074E+03  0.79489505609E+02 0.  0.
        -13    1    4    4    0    0  0.12516958652E+03  0.83367630443E+02 -0.21382030063E+03  0.26141290740E+03  0.00000000000E+00 0.  1.
         14    1    4    4    0    0  0.25072223570E+03  0.75589237483E+02 -0.26099767442E+03  0.36972308334E+03  0.00000000000E+00 0. -1.
        -11    1    3    3    0    0 -0.52707238690E+02 -0.14632808316E+02 -0.34383191423E+02  0.64609410630E+02  0.00000000000E+00 0.  1.
         11    1    3    3    0    0 -0.35821503688E+02 -0.62222876914E+02 -0.20516905069E+03  0.21736882458E+03  0.00000000000E+00 0. -1.
          3    1    1    2  501    0 -0.28736307984E+03 -0.82101182697E+02 -0.29563961077E+03  0.42038187796E+03  0.00000000000E+00 0. -1.
<scales pt_clust_5="13000.00000" pt_clust_6="13000.00000" pt_clust_7="13000.00000" pt_clust_8="13000.00000" pt_clust_9="346.71083"></scales>
<clustering>
<clus scale="   79.490">  5  6 -1 -1</clus>
<clus scale="   91.555">  7  8 -1 -1</clus>
<clus scale="  148.750">  1  7  2 -1</clus>
<clus scale="  346.711">  2  9  1 -1</clus>
<clus scale="  346.711">  2  5  1 -1</clus>
</clustering>
</event>
<event>
 9    2  0.1654290E-004  0.1504907E+03  0.7546771E-02  0.1213257E+00
         21   -1    0    0  501  502  0.00000000000E+00  0.00000000000E+00  0.22599156755E+02  0.22599156755E+02  0.00000000000E+00 0. -1.
          2   -1    0    0  502    0 -0.00000000000E+00 -0.00000000000E+00 -0.21093630284E+04  0.21093630284E+04  0.00000000000E+00 0. -1.
         23    2    1    2    0    0 -0.55393236099E+02 -0.65119876565E+01 -0.30744399553E+03  0.32751389915E+03  0.98146457699E+02 0.  0.
         24    2    1    2    0    0 -0.59769791622E+02 -0.96505189169E+02 -0.65609054988E+03  0.67064090334E+03  0.80116989868E+02 0.  0.
        -13    1    4    4    0    0 -0.19903088812E+02  0.11134882187E+02 -0.78053522847E+02  0.81317101366E+02  0.00000000000E+00 0.  1.
         14    1    4    4    0    0 -0.39866702810E+02 -0.10764007136E+03 -0.57803702703E+03  0.58932380197E+03  0.00000000000E+00 0. -1.
        -13    1    3    3    0    0 -0.80943937385E+02 -0.90778022249E+01 -0.27068129197E+03  0.28267063752E+03  0.00000000000E+00 0. -1.
         13    1    3    3    0    0  0.25550701285E+02  0.25658145684E+01 -0.36762703565E+02  0.44843261634E+02  0.00000000000E+00 0.  1.
          1    1    1    2  501    0  0.11516302772E+03  0.10301717683E+03 -0.11232293263E+04  0.11338073827E+04  0.00000000000E+00 0. -1.
<scales pt_clust_5="13000.00000" pt_clust_6="13000.00000" pt_clust_7="13000.00000" pt_clust_8="13000.00000" pt_clust_9="127.39203"></scales>
<clustering>
<clus scale="   80.117">  5  6 -1 -1</clus>
<clus scale="   98.146">  7  8 -1 -1</clus>
<clus scale="  112.887">  2  7  1 -1</clus>
<clus scale="  127.392">  1  9  2 -1</clus>
<clus scale="  127.392">  1  5  2 -1</clus>
</clustering>
</event>
<event>
 9    2  0.1654290E-004  0.3228480E+03  0.7546771E-02  0.1116326E+00
          2   -1    0    0  502    0 -0.00000000000E+00  0.00000000000E+00  0.11126744138E+04  0.11126744138E+04  0.00000000000E+00 0. -1.
         21   -1    0    0  501  502  0.00000000000E+00 -0.00000000000E+00 -0.15710663206E+03  0.15710663206E+03  0.00000000000E+00 0. -1.
         24    2    1    2    0    0  0.68792971981E+02 -0.20744694962E+02  0.16988499137E+02  0.10889157031E+03  0.80037176484E+02 0.  0.
         23    2    1    2    0    0 -0.16801549181E+03  0.29948464137E+03  0.68280027608E+03  0.76978339489E+03  0.91815043062E+02 0.  0.
        -11    1    3    3    0    0  0.41904238108E+02 -0.44621475385E+02  0.32984763320E+02  0.69534422038E+02  0.00000000000E+00 0.  1.
         12    1    3    3    0    0  0.26888733873E+02  0.23876780423E+02 -0.15996264183E+02  0.39357148276E+02  0.00000000000E+00 0. -1.
        -11    1    4    4    0    0 -0.88534291701E+02  0.24104785402E+03  0.49024266085E+03  0.55342592572E+03  0.00000000000E+00 0. -1.
         11    1    4    4    0    0 -0.79481200107E+02  0.58436787349E+02  0.19255761523E+03  0.21635746918E+03  0.00000000000E+00 0.  1.
          1    1    1    2  501    0  0.99222519826E+02 -0.27873994640E+03  0.25577900656E+03  0.39110608070E+03  0.00000000000E+00 0. -1.
<scales pt_clust_5="13000.00000" pt_clust_6="13000.00000" pt_clust_7="13000.00000" pt_clust_8="13000.00000" pt_clust_9="309.51711"></scales>
<clustering>
<clus scale="   80.037">  5  6 -1 -1</clus>
<clus scale="   91.815">  7  8 -1 -1</clus>
<clus scale="  107.558">  1  5  2 -1</clus>
<clus scale="  309.517">  2  9  1 -1</clus>
<clus scale="  309.517">  2  5  1 -1</clus>
</clustering>
</event>
<event>
 9    2  0.1654290E-004  0.1181094E+03  0.7546771E-02  0.1258375E+00
          4   -1    0    0  502    0 -0.00000000000E+00  0.00000000000E+00  0.86098766129E+03  0.86098766129E+03  0.00000000000E+00 0. -1.
         21   -1    0    0  501  502  0.00000000000E+00 -0.00000000000E+00 -0.50349852581E+02  0.50349852581E+02  0.00000000000E+00 0.  1.
         24    2    1    2    0    0 -0.20051756421E+02  0.37473438335E+02  0.74567456213E+03  0.75138560833E+03  0.82118501487E+02 0.  0.
         23    2    1    2    0    0  0.98819647540E+01 -0.55231395861E+02  0.45015450989E+02  0.13137421727E+03  0.10993013153E+03 0.  0.
        -11    1    3    3    0    0 -0.43552258686E+02  0.17358354660E+02  0.22708830585E+03  0.23187757625E+03  0.00000000000E+00 0.  1.
         12    1    3    3    0    0  0.23500502265E+02  0.20115083675E+02  0.51858625628E+03  0.51950803208E+03  0.00000000000E+00 0. -1.
        -13    1    4    4    0    0  0.52881538090E+02 -0.13745280160E+02 -0.30016118442E+01  0.54721106267E+02  0.00000000000E+00 0.  1.
         13    1    4    4    0    0 -0.42999573336E+02 -0.41486115701E+02  0.48017062834E+02  0.76653111001E+02  0.00000000000E+00 0. -1.
          3    1    1    2  501    0  0.10169791667E+02  0.17757957526E+02  0.19947795597E+02  0.28577688276E+02  0.00000000000E+00 0. -1.
<scales pt_clust_5="13000.00000" pt_clust_6="13000.00000" pt_clust_7="13000.00000" pt_clust_8="13000.00000" pt_clust_9="20.46386"></scales>
<clustering>
<clus scale="   20.464">  2  9  1 -1</clus>
<clus scale="   82.119">  5  6 -1 -1</clus>
<clus scale="   92.783">  1  5  2 -1</clus>
<clus scale="  109.930">  7  8 -1 -1</clus>
<clus scale="   20.464">  2  5  1 -1</clus>
</clustering>
</event>
<event>
 9    2  0.1654290E-004  0.1013288E+03  0.7546771E-02  0.1279639E+00
          4   -1    0    0  502    0 -0.00000000000E+00  0.00000000000E+00  0.16067748447E+03  0.16067748447E+03  0.00000000000E+00 0. -1.
         21   -1    0    0  501  502  0.00000000000E+00 -0.00000000000E+00 -0.36567147619E+03  0.36567147619E+03  0.00000000000E+00 0.  1.
         23    2    1    2    0    0  0.43063803309E+02 -0.18108743002E+02  0.11564461563E+03  0.15305825932E+03  0.88717167983E+02 0.  0.
         24    2    1    2    0    0 -0.92683429706E+02 -0.12681700511E+02 -0.26145532794E+03  0.29014733543E+03  0.84116253339E+02 0.  0.
        -13    1    4    4    0    0 -0.89968109934E+02 -0.66174575850E+01 -0.26678826295E+03  0.28162746457E+03  0.00000000000E+00 0.  1.
         14    1    4    4    0    0 -0.27153197720E+01 -0.60642429259E+01  0.53329350061E+01  0.85198708621E+01  0.00000000000E+00 0. -1.
        -13    1    3    3    0    0  0.17503309141E+02 -0.16733986720E+02  0.12383654512E+03  0.12618194027E+03  0.00000000000E+00 0. -1.
         13    1    3    3    0    0  0.25560494168E+02 -0.13747562815E+01 -0.81919294964E+01  0.26876319053E+02  0.00000000000E+00 0.  1.
          3    1    1    2  501    0  0.49619626397E+02  0.30790443513E+02 -0.59183279395E+02  0.83143365914E+02  0.00000000000E+00 0. -1.
<scales pt_clust_5="13000.00000" pt_clust_6="13000.00000" pt_clust_7="13000.00000" pt_clust_8="13000.00000" pt_clust_9="58.39656"></scales>
<clustering>
<clus scale="   58.397">  2  9  1 -1</clus>
<clus scale="   84.116">  5  6 -1 -1</clus>
<clus scale="   88.717">  7  8 -1 -1</clus>
<clus scale="   97.326">  2  5  1 -1</clus>
<clus scale="   58.397">  2  5  1 -1</clus>
</clustering>
</event>
<event>
 9    2  0.1654290E-004  0.1356795E+03  0.7546771E-02  0.1221582E+00
         21   -1    0    0  501  502  0.00000000000E+00  0.00000000000E+00  0.75234369996E+02  0.75234369996E+02  0.00000000000E+00 0. -1.
          2   -1    0    0  502    0 -0.00000000000E+00 -0.00000000000E+00 -0.59649143811E+03  0.59649143811E+03  0.00000000000E+00 0. -1.
         23    2    1    2    0    0  0.12451926136E+03 -0.24046415158E+02 -0.40999820579E+03  0.43857875655E+03  0.90385399362E+02 0.  0.
         24    2    1    2    0    0 -0.29127633299E+02  0.58149499875E+02 -0.51347305400E+02  0.11545262626E+03  0.80392659990E+02 0.  0.
        -13    1    4    4    0    0 -0.48848830911E+02  0.80960448035E+01 -0.27045808767E+02  0.56420120478E+02  0.00000000000E+00 0.  1.
         14    1    4    4    0    0  0.19721197612E+02  0.50053455072E+02 -0.24301496633E+02  0.59032505779E+02  0.00000000000E+00 0. -1.
        -13    1    3    3    0    0  0.34825873160E+02  0.34075295018E+02 -0.12016531179E+03  0.12966753383E+03  0.00000000000E+00 0.  1.
         13    1    3    3    0    0  0.89693388204E+02 -0.58121710176E+02 -0.28983289400E+03  0.30891122273E+03  0.00000000000E+00 0. -1.
          1    1    1    2  501    0 -0.95391628064E+02 -0.34103084717E+02 -0.59911556921E+02  0.11769442529E+03  0.00000000000E+00 0. -1.
<scales pt_clust_5="13000.00000" pt_clust_6="13000.00000" pt_clust_7="13000.00000" pt_clust_8="13000.00000" pt_clust_9="101.30441"></scales>
<clustering>
<clus scale="   80.393">  5  6 -1 -1</clus>
<clus scale="   90.385">  7  8 -1 -1</clus>
<clus scale="  101.304">  1  9  2 -1</clus>
<clus scale="  129.238">  1  5  2 -1</clus>
<clus scale="  101.304">  1  5  2 -1</clus>
</clustering>
</event>
<event>
 9    2  0.1654290E-004  0.1855732E+03  0.7546771E-02  0.1190976E+00
         -3   -1    0    0    0  501 -0.00000000000E+00  0.00000000000E+00  0.46419125158E+02  0.46419125158E+02  0.00000000000E+00 0.  1.
         21   -1    0    0  501  502  0.00000000000E+00 -0.00000000000E+00 -0.15005199035E+04  0.15005199035E+04  0.00000000000E+00 0.  1.
         23    2    1    2    0    0 -0.21497446883E+02 -0.29625168428E+02 -0.41534584763E+03  0.42663895449E+03  0.90381599452E+02 0.  0.
         24    2    1    2    0    0 -0.14910750995E+03  0.73457076386E+02 -0.81516172861E+03  0.83565782946E+03  0.78780534025E+02 0.  0.
        -11    1    4    4    0    0 -0.12013993083E+03  0.49489119032E+02 -0.74313479217E+03  0.75440844058E+03  0.00000000000E+00 0.  1.
         12    1    4    4    0    0 -0.28967579117E+02  0.23967957354E+02 -0.72026936448E+02  0.81249388882E+02  0.00000000000E+00 0. -1.
        -11    1    3    3    0    0 -0.30575990422E+02 -0.59168164170E+02 -0.28184653207E+03  0.28960875415E+03  0.00000000000E+00 0.  1.
         11    1    3    3    0    0  0.90785435393E+01  0.29542995742E+02 -0.13349931556E+03  0.13703020034E+03  0.00000000000E+00 0. -1.
         -4    1    1    2    0  502  0.17060495683E+03 -0.43831907957E+02 -0.22359320211E+03  0.28464224472E+03  0.00000000000E+00 0.  1.
<scales pt_clust_5="13000.00000" pt_clust_6="13000.00000" pt_clust_7="13000.00000" pt_clust_8="13000.00000" pt_clust_9="168.02101"></scales>
<clustering>
<clus scale="   78.781">  5  6 -1 -1</clus>
<clus scale="   90.382">  7  8 -1 -1</clus>
<clus scale="   97.512">  1  7  2 -1</clus>
<clus scale="  168.021">  2  9  1 -1</clus>
<clus scale="  168.021">  2  5  1 -1</clus>
</clustering>
</event>
<event>
 9    2  0.1654290E-004  0.1178913E+03  0.7546771E-02  0.1248673E+00
         21   -1    0    0  501  502  0.00000000000E+00  0.00000000000E+00  0.35403687932E+02  0.35403687932E+02  0.00000000000E+00 0. -1.
          2   -1    0    0  502    0 -0.00000000000E+00 -0.00000000000E+00 -0.70498265949E+03  0.70498265949E+03  0.00000000000E+00 0. -1.
         24    2    1    2    0    0 -0.41664272794E+02 -0.82392247950E+02 -0.47797312582E+03  0.49335627398E+03  0.80110610567E+02 0.  0.
         23    2    1    2    0    0  0.16839540128E+02  0.40195096325E+02 -0.82227165402E+02  0.12719450831E+03  0.86705941744E+02 0.  0.
        -13    1    3    3    0    0 -0.12814918141E+01 -0.51909411364E+02 -0.10683591770E+03  0.11878612090E+03  0.00000000000E+00 0.  1.
         14    1    3    3    0    0 -0.40382780980E+02 -0.30482836586E+02 -0.37113720812E+03  0.37457015308E+03  0.00000000000E+00 0. -1.
        -11    1    4    4    0    0  0.15098499668E+02  0.65405538340E+02 -0.75538091195E+02  0.10105371027E+03  0.00000000000E+00 0.  1.
         11    1    4    4    0    0  0.17410404599E+01 -0.25210442014E+02 -0.66890742075E+01  0.26140798041E+02  0.00000000000E+00 0. -1.
          1    1    1    2  501    0  0.24824732667E+02  0.42197151625E+02 -0.10937868034E+03  0.11983556513E+03  0.00000000000E+00 0. -1.
<scales pt_clust_5="13000.00000" pt_clust_6="13000.00000" pt_clust_7="13000.00000" pt_clust_8="13000.00000" pt_clust_9="48.95783"></scales>
<clustering>
<clus scale="   48.958">  1  9  2 -1</clus>
<clus scale="   80.111">  5  6 -1 -1</clus>
<clus scale="   86.706">  7  8 -1 -1</clus>
<clus scale="  113.129">  2  5  1 -1</clus>
<clus scale="   48.958">  1  5  2 -1</clus>
</clustering>
</event>
<event>
 9    2  0.1654290E-004  0.1142234E+03  0.7546771E-02  0.1256416E+00
         21   -1    0    0  501  502  0.00000000000E+00  0.00000000000E+00  0.20460504532E+03  0.20460504532E+03  0.00000000000E+00 0. -1.
          2   -1    0    0  502    0 -0.00000000000E+00 -0.00000000000E+00 -0.20444025043E+03  0.20444025043E+03  0.00000000000E+00 0. -1.
         23    2    1    2    0    0 -0.73258480984E+02 -0.19081774635E+02 -0.15546022972E+03  0.19520473876E+03  0.90587459681E+02 0.  0.
         24    2    1    2    0    0  0.45971544708E+02 -0.30708587047E+01  0.56865537246E+02  0.10901330673E+03  0.80792317834E+02 0.  0.
        -13    1    4    4    0    0  0.12947427875E+02 -0.34597116019E+02  0.11201024697E+01  0.36957420837E+02  0.00000000000E+00 0.  1.
         14    1    4    4    0    0  0.33024116833E+02  0.31526257314E+02  0.55745434776E+02  0.72055885888E+02  0.00000000000E+00 0. -1.
        -11    1    3    3    0    0 -0.23528233385E+02 -0.24574286546E+02 -0.23223715710E+01  0.34100831883E+02  0.00000000000E+00 0.  1.
         11    1    3    3    0    0 -0.49730247599E+02  0.54925119109E+01 -0.15313785815E+03  0.16110390688E+03  0.00000000000E+00 0. -1.
          1    1    1    2  501    0  0.27286936276E+02  0.22152633339E+02  0.98759487357E+02  0.10482725027E+03  0.00000000000E+00 0. -1.
<scales pt_clust_5="13000.00000" pt_clust_6="13000.00000" pt_clust_7="13000.00000" pt_clust_8="13000.00000" pt_clust_9="35.14706"></scales>
<clustering>
<clus scale="   35.147">  1  9  2 -1</clus>
<clus scale="   80.792">  5  6 -1 -1</clus>
<clus scale="   90.587">  7  8 -1 -1</clus>
<clus scale="  106.622">  1  5  2 -1</clus>
<clus scale="   35.147">  1  5  2 -1</clus>
</clustering>
</event>
<event>
 9    2  0.1654290E-004  0.1168045E+03  0.7546771E-02  0.1251900E+00
         21   -1    0    0  501  502  0.00000000000E+00  0.00000000000E+00  0.43755983034E+03  0.43755983034E+03  0.00000000000E+00 0.  1.
          4   -1    0    0  502    0 -0.00000000000E+00 -0.00000000000E+00 -0.17990452494E+03  0.17990452494E+03  0.00000000000E+00 0. -1.
         24    2    1    2    0    0  0.78139477155E+02 -0.10546148444E+02 -0.14281590002E+03  0.18197860005E+03  0.80640129201E+02 0.  0.
         23    2    1    2    0    0 -0.28773773041E+02  0.16064207872E+02  0.13871176712E+03  0.16905485377E+03  0.90843824524E+02 0.  0.
        -13    1    3    3    0    0  0.27148202578E+02  0.30005994904E+02 -0.25626600193E+02  0.47896839884E+02  0.00000000000E+00 0.  1.
         14    1    3    3    0    0  0.50991274577E+02 -0.40552143348E+02 -0.11718929983E+03  0.13408176016E+03  0.00000000000E+00 0. -1.
        -11    1    4    4    0    0  0.45091352963E+01 -0.29555765705E+02  0.15855891374E+02  0.33842057839E+02  0.00000000000E+00 0. -1.
         11    1    4    4    0    0 -0.33282908338E+02  0.45619973577E+02  0.12285587575E+03  0.13521279593E+03  0.00000000000E+00 0.  1.
          3    1    1    2  501    0 -0.49365704113E+02 -0.55180594278E+01  0.26175943830E+03  0.26643090147E+03  0.00000000000E+00 0. -1.
<scales pt_clust_5="13000.00000" pt_clust_6="13000.00000" pt_clust_7="13000.00000" pt_clust_8="13000.00000" pt_clust_9="49.67315"></scales>
<clustering>
<clus scale="   49.673">  1  9  2 -1</clus>
<clus scale="   80.640">  5  6 -1 -1</clus>
<clus scale="   90.844">  7  8 -1 -1</clus>
<clus scale="  109.057">  2  5  1 -1</clus>
<clus scale="   49.673">  1  5  2 -1</clus>
</clustering>
</event>
<event>
 9    2  0.1654290E-004  0.1227994E+03  0.7546771E-02  0.1241738E+00
          2   -1    0    0  502    0 -0.00000000000E+00  0.00000000000E+00  0.22907309778E+03  0.22907309778E+03  0.00000000000E+00 0. -1.
         21   -1    0    0  501  502  0.00000000000E+00 -0.00000000000E+00 -0.10353781769E+03  0.10353781769E+03  0.00000000000E+00 0. -1.
         23    2    1    2    0    0  0.64361604884E+02  0.36560863915E+02  0.44652129748E+02  0.12560906165E+03  0.91130185578E+02 0.  0.
         24    2    1    2    0    0 -0.43471236965E+02 -0.91026537396E+02  0.37706407601E+02  0.13442673293E+03  0.80456164445E+02 0.  0.
        -13    1    4    4    0    0  0.15325338443E+02 -0.52618611790E+02  0.33146909621E+02  0.64049214847E+02  0.00000000000E+00 0.  1.
         14    1    4    4    0    0 -0.58796575408E+02 -0.38407925607E+02  0.45594979806E+01  0.70377518079E+02  0.00000000000E+00 0. -1.
        -13    1    3    3    0    0  0.87804957402E+02  0.25364114661E+02  0.33592235075E+02  0.97372928036E+02  0.00000000000E+00 0. -1.
         13    1    3    3    0    0 -0.23443352518E+02  0.11196749254E+02  0.11059894673E+02  0.28236133612E+02  0.00000000000E+00 0.  1.
          1    1    1    2  501    0 -0.20890367919E+02  0.54465673481E+02  0.43176742739E+02  0.72575120896E+02  0.00000000000E+00 0. -1.
<scales pt_clust_5="13000.00000" pt_clust_6="13000.00000" pt_clust_7="13000.00000" pt_clust_8="13000.00000" pt_clust_9="58.33456"></scales>
<clustering>
<clus scale="   58.335">  2  9  1 -1</clus>
<clus scale="   80.456">  5  6 -1 -1</clus>
<clus scale="   91.130">  7  8 -1 -1</clus>
<clus scale="  115.101">  2  5  1 -1</clus>
<clus scale="   58.335">  2  5  1 -1</clus>
</clustering>
</event>
<event>
 9    2  0.1654290E-004  0.1459297E+03  0.7546771E-02  0.1221742E+00
          4   -1    0    0  502    0 -0.00000000000E+00  0.00000000000E+00  0.67876586036E+02  0.67876586036E+02  0.00000000000E+00 0. -1.
         21   -1    0    0  501  502  0.00000000000E+00 -0.00000000000E+00 -0.10412272519E+04  0.10412272519E+04  0.00000000000E+00 0. -1.
         24    2    1    2    0    0 -0.49954662234E+02 -0.41417357918E+02 -0.44908188610E+01  0.10362171946E+03  0.80662429137E+02 0.  0.
         23    2    1    2    0    0 -0.73868864672E+02 -0.25896580263E+02 -0.32209242859E+03  0.34353685970E+03  0.90259622108E+02 0.  0.
        -13    1    3    3    0    0  0.63493158738E+01 -0.46553772513E+02 -0.23442002124E+01  0.47043201654E+02  0.00000000000E+00 0.  1.
         14    1    3    3    0    0 -0.56303978107E+02  0.51364145954E+01 -0.21466186486E+01  0.56578517807E+02  0.00000000000E+00 0. -1.
        -13    1    4    4    0    0 -0.48164991602E+02  0.21564971553E+02 -0.82458677770E+02  0.97899683113E+02  0.00000000000E+00 0.  1.
         13    1    4    4    0    0 -0.25703873070E+02 -0.47461551815E+02 -0.23963375082E+03  0.24563717659E+03  0.00000000000E+00 0. -1.
          3    1    1    2  501    0  0.12382352691E+03  0.67313938180E+02 -0.64676741846E+03  0.66194525881E+03  0.00000000000E+00 0. -1.
<scales pt_clust_5="13000.00000" pt_clust_6="13000.00000" pt_clust_7="13000.00000" pt_clust_8="13000.00000" pt_clust_9="114.66766"></scales>
<clustering>
<clus scale="   80.662">  5  6 -1 -1</clus>
<clus scale="   90.260">  7  8 -1 -1</clus>
<clus scale="  103.524">  1  5  2 -1</clus>
<clus scale="  114.668">  2  9  1 -1</clus>
<clus scale="  114.668">  2  5  1 -1</clus>
</clustering>
</event>
<event>
 9    2  0.1654290E-004  0.1008050E+03  0.7546771E-02  0.1283775E+00
         21   -1    0    0  501  502  0.00000000000E+00  0.00000000000E+00  0.95217249584E+02  0.95217249584E+02  0.00000000000E+00 0. -1.
          2   -1    0    0  502    0 -0.00000000000E+00 -0.00000000000E+00 -0.98824012796E+03  0.98824012796E+03  0.00000000000E+00 0. -1.
         24    2    1    2    0    0  0.43889909784E+02 -0.10569622073E+02 -0.72950656821E+03  0.73548085405E+03  0.81940298477E+02 0.  0.
         23    2    1    2    0    0 -0.22086486123E+02  0.17859083037E+02 -0.24497740884E+03  0.26333353134E+03  0.92324743024E+02 0.  0.
        -13    1    3    3    0    0  0.34986381718E+02  0.28728520720E+02 -0.23400915622E+03  0.23834777113E+03  0.00000000000E+00 0.  1.
         14    1    3    3    0    0  0.89035280652E+01 -0.39298142793E+02 -0.49549741199E+03  0.49713308292E+03  0.00000000000E+00 0. -1.
        -13    1    4    4    0    0 -0.35876997789E+02  0.50045666884E+02 -0.15690384986E+03  0.16855428160E+03  0.00000000000E+00 0.  1.
         13    1    4    4    0    0  0.13790511666E+02 -0.32186583847E+02 -0.88073558976E+02  0.94779249746E+02  0.00000000000E+00 0. -1.
          1    1    1    2  501    0 -0.21803423661E+02 -0.72894609642E+01  0.81461098669E+02  0.84642992155E+02  0.00000000000E+00 0. -1.
<scales pt_clust_5="13000.00000" pt_clust_6="13000.00000" pt_clust_7="13000.00000" pt_clust_8="13000.00000" pt_clust_9="22.98968"></scales>
<clustering>
<clus scale="   22.990">  1  9  2 -1</clus>
<clus scale="   81.940">  5  6 -1 -1</clus>
<clus scale="   91.389">  2  5  1 -1</clus>
<clus scale="   92.325">  7  8 -1 -1</clus>
<clus scale="   22.990">  1  5  2 -1</clus>
</clustering>
</event>
<event>
 9    2  0.1654290E-004  0.1584136E+03  0.7546771E-02  0.1202584E+00
         21   -1    0    0  501  502  0.00000000000E+00  0.00000000000E+00  0.28291542245E+02  0.28291542245E+02  0.00000000000E+00 0. -1.
          2   -1    0    0  502    0 -0.00000000000E+00 -0.00000000000E+00 -0.21629880503E+04  0.21629880503E+04  0.00000000000E+00 0. -1.
         23    2    1    2    0    0 -0.65579319085E+02 -0.43326270107E+02 -0.25143583030E+03  0.27931973488E+03  0.92853243140E+02 0.  0.
         24    2    1    2    0    0  0.85992260854E+02 -0.99828754324E+02 -0.13724775092E+04  0.13811025374E+04  0.79932824372E+02 0.  0.
        -13    1    4    4    0    0  0.22536895572E+02 -0.33919976739E+01 -0.72226361499E+02  0.75736811430E+02  0.00000000000E+00 0.  1.
         14    1    4    4    0    0  0.63455365282E+02 -0.96436756650E+02 -0.13002511477E+04  0.13053657259E+04  0.00000000000E+00 0. -1.
        -13    1    3    3    0    0 -0.14760616382E+02 -0.51361045273E+02 -0.19822796990E+03  0.20530504333E+03  0.00000000000E+00 0.  1.
         13    1    3    3    0    0 -0.50818702703E+02  0.80347751669E+01 -0.53207860402E+02  0.74014691548E+02  0.00000000000E+00 0. -1.
          1    1    1    2  501    0 -0.20412941769E+02  0.14315502443E+03 -0.51078316860E+03  0.53085732032E+03  0.00000000000E+00 0. -1.
<scales pt_clust_5="13000.00000" pt_clust_6="13000.00000" pt_clust_7="13000.00000" pt_clust_8="13000.00000" pt_clust_9="136.76849"></scales>
<clustering>
<clus scale="   79.933">  5  6 -1 -1</clus>
<clus scale="   92.853">  7  8 -1 -1</clus>
<clus scale="  121.653">  2  7  1 -1</clus>
<clus scale="  136.768">  1  9  2 -1</clus>
<clus scale="  136.768">  1  5  2 -1</clus>
</clustering>
</event>
<event>
 9    2  0.1654290E-004  0.9878706E+02  0.7546771E-02  0.1289012E+00
          2   -1    0    0  502    0 -0.00000000000E+00  0.00000000000E+00  0.43277425615E+03  0.43277425615E+03  0.00000000000E+00 0. -1.
         21   -1    0    0  501  502  0.00000000000E+00 -0.00000000000E+00 -0.59231514792E+02  0.59231514792E+02  0.00000000000E+00 0.  1.
         24    2    1    2    0    0 -0.13549852671E+01  0.69577725352E+01  0.38063161824E+02  0.89159060111E+02  0.80313679583E+02 0.  0.
         23    2    1    2    0    0 -0.44422509701E+01 -0.69690517793E+02  0.82023169736E+02  0.14167788240E+03  0.92023475940E+02 0.  0.
        -11    1    3    3    0    0  0.34995703212E+02  0.13610292278E+02  0.21219130454E+01  0.37609065585E+02  0.00000000000E+00 0.  1.
         12    1    3    3    0    0 -0.36350688479E+02 -0.66525197429E+01  0.35941248778E+02  0.51549994526E+02  0.00000000000E+00 0. -1.
        -11    1    4    4    0    0  0.20877982700E+02 -0.67612609912E+02  0.18320069670E+02  0.73095691620E+02  0.00000000000E+00 0.  1.
         11    1    4    4    0    0 -0.25320233670E+02 -0.20779078816E+01  0.63703100065E+02  0.68582190780E+02  0.00000000000E+00 0. -1.
          1    1    1    2  501    0  0.57972362373E+01  0.62732745258E+02  0.25345640979E+03  0.26116882843E+03  0.00000000000E+00 0. -1.
<scales pt_clust_5="13000.00000" pt_clust_6="13000.00000" pt_clust_7="13000.00000" pt_clust_8="13000.00000" pt_clust_9="63.00007"></scales>
<clustering>
<clus scale="   63.000">  2  9  1 -1</clus>
<clus scale="   80.314">  5  6 -1 -1</clus>
<clus scale="   87.982">  1  5  2 -1</clus>
<clus scale="   92.023">  7  8 -1 -1</clus>
<clus scale="   63.000">  2  5  1 -1</clus>
</clustering>
</event>
<event>
 9    2  0.1654290E-004  0.1865289E+03  0.7546771E-02  0.1187834E+00
          2   -1    0    0  502    0 -0.00000000000E+00  0.00000000000E+00  0.31919701450E+03  0.31919701450E+03  0.00000000000E+00 0. -1.
         21   -1    0    0  501  502  0.00000000000E+00 -0.00000000000E+00 -0.17770540706E+03  0.17770540706E+03  0.00000000000E+00 0. -1.
         23    2    1    2    0    0  0.26688697914E+02 -0.56701474392E+02 -0.10669253594E+01  0.10293656352E+03  0.81654479269E+02 0.  0.
         24    2    1    2    0    0 -0.14154222930E+03  0.14791975637E+03  0.95259601994E+02  0.23985778722E+03  0.80888252035E+02 0.  0.
        -13    1    4    4    0    0  0.50478368241E+01  0.28160652500E+02  0.15759351991E+01  0.28652863340E+02  0.00000000000E+00 0.  1.
         14    1    4    4    0    0 -0.14659006613E+03  0.11975910387E+03  0.93683666795E+02  0.21120492388E+03  0.00000000000E+00 0. -1.
        -13    1    3    3    0    0  0.42081266198E+02 -0.18705731861E+02 -0.27990615914E+02  0.53890740842E+02  0.00000000000E+00 0. -1.
         13    1    3    3    0    0 -0.15392568284E+02 -0.37995742531E+02  0.26923690555E+02  0.49045822676E+02  0.00000000000E+00 0.  1.
          1    1    1    2  501    0  0.11485353139E+03 -0.91218281977E+02  0.47298930800E+02  0.15410807083E+03  0.00000000000E+00 0. -1.
<scales pt_clust_5="13000.00000" pt_clust_6="13000.00000" pt_clust_7="13000.00000" pt_clust_8="13000.00000" pt_clust_9="168.07776"></scales>
<clustering>
<clus scale="   80.888">  5  6 -1 -1</clus>
<clus scale="   81.654">  7  8 -1 -1</clus>
<clus scale="  102.931">  1  7  2 -1</clus>
<clus scale="  168.078">  2  9  1 -1</clus>
<clus scale="  168.078">  2  5  1 -1</clus>
</clustering>
</event>
<event>
 9    2  0.1654290E-004  0.1300729E+03  0.7546771E-02  0.1233504E+00
         21   -1    0    0  501  502  0.00000000000E+00  0.00000000000E+00  0.10892535889E+03  0.10892535889E+03  0.00000000000E+00 0. -1.
          2   -1    0    0  502    0 -0.00000000000E+00 -0.00000000000E+00 -0.52855002856E+03  0.52855002856E+03  0.00000000000E+00 0. -1.
         23    2    1    2    0    0  0.49831772770E+02  0.87432737010E+02 -0.45458536179E+03  0.47423778796E+03  0.90143991981E+02 0.  0.
         24    2    1    2    0    0  0.23012926662E+01 -0.70328290053E+02 -0.32205712915E+01  0.96392797956E+02  0.65801482420E+02 0.  0.
        -13    1    4    4    0    0 -0.24664612768E+02 -0.22009821285E+02 -0.19918586605E+02  0.38594370682E+02  0.00000000000E+00 0.  1.
         14    1    4    4    0    0  0.26965905434E+02 -0.48318468767E+02  0.16698015313E+02  0.57798427274E+02  0.00000000000E+00 0. -1.
        -13    1    3    3    0    0  0.66721829546E+02  0.43084469357E+02 -0.19863224398E+03  0.21392251491E+03  0.00000000000E+00 0.  1.
         13    1    3    3    0    0 -0.16890056776E+02  0.44348267653E+02 -0.25595311781E+03  0.26031527304E+03  0.00000000000E+00 0. -1.
          1    1    1    2  501    0 -0.52133065436E+02 -0.17104446958E+02  0.38181263411E+02  0.66844801541E+02  0.00000000000E+00 0. -1.
<scales pt_clust_5="13000.00000" pt_clust_6="13000.00000" pt_clust_7="13000.00000" pt_clust_8="13000.00000" pt_clust_9="54.86728"></scales>
<clustering>
<clus scale="   54.867">  1  9  2 -1</clus>
<clus scale="   65.801">  5  6 -1 -1</clus>
<clus scale="   90.144">  7  8 -1 -1</clus>
<clus scale="  114.555">  1  5  2 -1</clus>
<clus scale="   54.867">  1  5  2 -1</clus>
</clustering>
</event>
<event>
 9    2  0.1654290E-004  0.1699115E+03  0.7546771E-02  0.1179351E+00
         21   -1    0    0  501  502  0.00000000000E+00  0.00000000000E+00  0.41597201118E+03  0.41597201118E+03  0.00000000000E+00 0.  1.
         -3   -1    0    0    0  501 -0.00000000000E+00 -0.00000000000E+00 -0.78120375520E+02  0.78120375520E+02  0.00000000000E+00 0.  1.
         23    2    1    2    0    0  0.91545746417E+01 -0.13371860058E+03  0.14437771174E+03  0.21684528937E+03  0.90622764783E+02 0.  0.
         24    2    1    2    0    0 -0.78063284578E+01  0.15526484106E+03  0.18330603927E+03  0.25338406892E+03  0.80213918456E+02 0.  0.
        -11    1    4    4    0    0  0.21003129767E+02  0.13208865669E+03  0.16415632573E+03  0.21174476135E+03  0.00000000000E+00 0.  1.
         12    1    4    4    0    0 -0.28809458225E+02  0.23176184378E+02  0.19149713543E+02  0.41639307563E+02  0.00000000000E+00 0. -1.
        -11    1    3    3    0    0  0.37752007455E+02 -0.91097583219E+02  0.13070221067E+03  0.16372859130E+03  0.00000000000E+00 0.  1.
         11    1    3    3    0    0 -0.28597432814E+02 -0.42621017363E+02  0.13675501072E+02  0.53116698073E+02  0.00000000000E+00 0. -1.
         -4    1    1    2    0  502 -0.13482461839E+01 -0.21546240482E+02  0.10167884651E+02  0.23863028411E+02  0.00000000000E+00 0.  1.
<scales pt_clust_5="13000.00000" pt_clust_6="13000.00000" pt_clust_7="13000.00000" pt_clust_8="13000.00000" pt_clust_9="21.58839"></scales>
<clustering>
<clus scale="   21.588">  1  9  2 -1</clus>
<clus scale="   80.214">  5  6 -1 -1</clus>
<clus scale="   90.623">  7  8 -1 -1</clus>
<clus scale="  164.596">  1  5  2 -1</clus>
<clus scale="   21.588">  1  5  2 -1</clus>
</clustering>
</event>
<event>
 9    2  0.1654290E-004  0.1193179E+03  0.7546771E-02  0.1246068E+00
         -1   -1    0    0    0  501 -0.00000000000E+00  0.00000000000E+00  0.59311253659E+03  0.59311253659E+03  0.00000000000E+00 0.  1.
         21   -1    0    0  501  502  0.00000000000E+00 -0.00000000000E+00 -0.76527102192E+02  0.76527102192E+02  0.00000000000E+00 0.  1.
         24    2    1    2    0    0 -0.42677469132E+02  0.71451084561E+02  0.30451955786E+03  0.32601387737E+03  0.81401862781E+02 0.  0.
         23    2    1    2    0    0  0.90275182488E+02 -0.24710205251E+02  0.23941992368E+03  0.27152516494E+03  0.87428899802E+02 0.  0.
        -13    1    3    3    0    0 -0.82523196519E+01  0.55565376215E+02  0.26636949826E+03  0.27222843609E+03  0.00000000000E+00 0.  1.
         14    1    3    3    0    0 -0.34425149480E+02  0.15885708346E+02  0.38150059601E+02  0.53785441282E+02  0.00000000000E+00 0. -1.
        -11    1    4    4    0    0  0.84584409624E+02  0.10047203460E+02  0.20623925962E+03  0.22313695539E+03  0.00000000000E+00 0.  1.
         11    1    4    4    0    0  0.56907728646E+01 -0.34757408711E+02  0.33180664060E+02  0.48388209551E+02  0.00000000000E+00 0. -1.
         -2    1    1    2    0  502 -0.47597713356E+02 -0.46740879310E+02 -0.27354047151E+02  0.72100596467E+02  0.00000000000E+00 0.  1.
<scales pt_clust_5="13000.00000" pt_clust_6="13000.00000" pt_clust_7="13000.00000" pt_clust_8="13000.00000" pt_clust_9="66.71021"></scales>
<clustering>
<clus scale="   66.710">  2  9  1 -1</clus>
<clus scale="   81.402">  5  6 -1 -1</clus>
<clus scale="   87.429">  7  8 -1 -1</clus>
<clus scale="  114.975">  1  5  2 -1</clus>
<clus scale="   66.710">  2  5  1 -1</clus>
</clustering>
</event>
<event>
 9    2  0.1654290E-004  0.1275601E+03  0.7546771E-02  0.1232372E+00
         21   -1    0    0  501  502  0.00000000000E+00  0.00000000000E+00  0.13559344297E+03  0.13559344297E+03  0.00000000000E+00 0. -1.
          2   -1    0    0  502    0 -0.00000000000E+00 -0.00000000000E+00 -0.75167937911E+03  0.75167937911E+03  0.00000000000E+00 0. -1.
         23    2    1    2    0    0 -0.69479523761E+02 -0.77430000129E+02 -0.67483796540E+03  0.68863009628E+03  0.89343834780E+02 0.  0.
         24    2    1    2    0    0  0.12384701781E+02  0.16908474490E+02 -0.13748999386E+02  0.88283888745E+02  0.84650650795E+02 0.  0.
        -11    1    4    4    0    0  0.20403021005E+02  0.41673083580E+02 -0.32112327482E+02  0.56428102374E+02  0.00000000000E+00 0.  1.
         12    1    4    4    0    0 -0.80183192243E+01 -0.24764609090E+02  0.18363328096E+02  0.31855786371E+02  0.00000000000E+00 0. -1.
        -13    1    3    3    0    0  0.17341923487E+02 -0.23440827809E+02 -0.81749783304E+02  0.86794249746E+02  0.00000000000E+00 0.  1.
         13    1    3    3    0    0 -0.86821447249E+02 -0.53989172320E+02 -0.59308818209E+03  0.60183584653E+03  0.00000000000E+00 0. -1.
          1    1    1    2  501    0  0.57094821980E+02  0.60521525640E+02  0.72501028649E+02  0.11035883706E+03  0.00000000000E+00 0. -1.
<scales pt_clust_5="13000.00000" pt_clust_6="13000.00000" pt_clust_7="13000.00000" pt_clust_8="13000.00000" pt_clust_9="83.20261"></scales>
<clustering>
<clus scale="   83.203">  1  9  2 -1</clus>
<clus scale="   84.651">  5  6 -1 -1</clus>
<clus scale="   89.344">  7  8 -1 -1</clus>
<clus scale="  124.318">  1  5  2 -1</clus>
<clus scale="   83.203">  1  5  2 -1</clus>
</clustering>
</event>
<event>
 9    2  0.1654290E-004  0.4947527E+03  0.7546771E-02  0.1039657E+00
         21   -1    0    0  501  502  0.00000000000E+00  0.00000000000E+00  0.13859303821E+03  0.13859303821E+03  0.00000000000E+00 0. -1.
          2   -1    0    0  502    0 -0.00000000000E+00 -0.00000000000E+00 -0.37941041408E+04  0.37941041408E+04  0.00000000000E+00 0. -1.
         23    2    1    2    0    0 -0.89678463423E+02 -0.20019205961E+03 -0.65394703917E+03  0.69598807940E+03  0.92917108779E+02 0.  0.
         24    2    1    2    0    0  0.48656754186E+03 -0.97332700509E+02 -0.24227963446E+04  0.24744663588E+04  0.82583329732E+02 0.  0.
        -13    1    4    4    0    0  0.19453024115E+03 -0.28441250214E+02 -0.77317800039E+03  0.79778138592E+03  0.00000000000E+00 0.  1.
         14    1    4    4    0    0  0.29203730071E+03 -0.68891450295E+02 -0.16496183442E+04  0.16766849729E+04  0.00000000000E+00 0. -1.
        -13    1    3    3    0    0 -0.10825538562E+02 -0.10143357937E+03 -0.19643811688E+03  0.22134565067E+03  0.00000000000E+00 0.  1.
         13    1    3    3    0    0 -0.78852924861E+02 -0.98758480240E+02 -0.45750892229E+03  0.47464242873E+03  0.00000000000E+00 0. -1.
          1    1    1    2  501    0 -0.39688907844E+03  0.29752476012E+03 -0.57876771886E+03  0.76224274077E+03  0.00000000000E+00 0. -1.
<scales pt_clust_5="13000.00000" pt_clust_6="13000.00000" pt_clust_7="13000.00000" pt_clust_8="13000.00000" pt_clust_9="487.81166"></scales>
<clustering>
<clus scale="   82.583">  5  6 -1 -1</clus>
<clus scale="   92.917">  7  8 -1 -1</clus>
<clus scale="  238.228">  2  7  1 -1</clus>
<clus scale="  487.812">  1  9  2 -1</clus>
<clus scale="  487.812">  1  5  2 -1</clus>
</clustering>
</event>
<event>
 9    2  0.1654290E-004  0.2044385E+03  0.7546771E-02  0.1146888E+00
          2   -1    0    0  502    0 -0.00000000000E+00  0.00000000000E+00  0.29133108020E+04  0.29133108020E+04  0.00000000000E+00 0. -1.
         21   -1    0    0  501  502  0.00000000000E+00 -0.00000000000E+00 -0.31496641808E+02  0.31496641808E+02  0.00000000000E+00 0. -1.
         24    2    1    2    0    0 -0.20372713781E+03  0.11406360685E+03  0.19503406737E+04  0.19659363989E+04  0.81005727677E+02 0.  0.
         23    2    1    2    0    0  0.62175388097E+02 -0.11136371906E+03  0.55614237285E+03  0.57772564471E+03  0.90581040283E+02 0.  0.
        -13    1    3    3    0    0 -0.96508813454E+02  0.50671795403E+02  0.59646404447E+03  0.60634226166E+03  0.00000000000E+00 0.  1.
         14    1    3    3    0    0 -0.10721832436E+03  0.63391811444E+02  0.13538766293E+04  0.13595941373E+04  0.00000000000E+00 0. -1.
        -11    1    4    4    0    0  0.23677559507E+02 -0.20604759774E+02  0.33660432474E+02  0.46023990091E+02  0.00000000000E+00 0.  1.
         11    1    4    4    0    0  0.38497828591E+02 -0.90758959289E+02  0.52248194038E+03  0.53170165461E+03  0.00000000000E+00 0. -1.
          1    1    1    2  501    0  0.14155174972E+03 -0.26998877830E+01  0.37533111358E+03  0.40114540015E+03  0.00000000000E+00 0. -1.
<scales pt_clust_5="13000.00000" pt_clust_6="13000.00000" pt_clust_7="13000.00000" pt_clust_8="13000.00000" pt_clust_9="141.57750"></scales>
<clustering>
<clus scale="   81.006">  5  6 -1 -1</clus>
<clus scale="   90.581">  7  8 -1 -1</clus>
<clus scale="  141.577">  2  9  1 -1</clus>
<clus scale="  200.380">  1  5  2 -1</clus>
<clus scale="  141.577">  2  5  1 -1</clus>
</clustering>
</event>
<event>
 9    2  0.1654290E-004  0.1235578E+03  0.7546771E-02  0.1237500E+00
         21   -1    0    0  501  502  0.00000000000E+00  0.00000000000E+00  0.15880395799E+03  0.15880395799E+03  0.00000000000E+00 0.  1.
          2   -1    0    0  502    0 -0.00000000000E+00 -0.00000000000E+00 -0.30410278997E+03  0.30410278997E+03  0.00000000000E+00 0. -1.
         24    2    1    2    0    0 -0.57139968875E+02  0.73321198290E+02 -0.23352475319E+03  0.26415466360E+03  0.81258241337E+02 0.  0.
         23    2    1    2    0    0  0.39947227664E+02 -0.87041317534E+02  0.19653022846E+02  0.12673768015E+03  0.80648783666E+02 0.  0.
        -11    1    3    3    0    0 -0.47235647286E+02  0.84548726018E+02 -0.14497816143E+03  0.17435125677E+03  0.00000000000E+00 0.  1.
         12    1    3    3    0    0 -0.99043215892E+01 -0.11227527727E+02 -0.88546591766E+02  0.89803406831E+02  0.00000000000E+00 0. -1.
        -11    1    4    4    0    0  0.16636459657E+02 -0.91546396141E+02  0.33923417169E+02  0.99036925784E+02  0.00000000000E+00 0.  1.
         11    1    4    4    0    0  0.23310768007E+02  0.45050786072E+01 -0.14270394323E+02  0.27700754367E+02  0.00000000000E+00 0. -1.
          1    1    1    2  501    0  0.17192741211E+02  0.13720119243E+02  0.68572898367E+02  0.72014404204E+02  0.00000000000E+00 0. -1.
<scales pt_clust_5="13000.00000" pt_clust_6="13000.00000" pt_clust_7="13000.00000" pt_clust_8="13000.00000" pt_clust_9="21.99618"></scales>
<clustering>
<clus scale="   21.996">  1  9  2 -1</clus>
<clus scale="   80.649">  7  8 -1 -1</clus>
<clus scale="   81.258">  5  6 -1 -1</clus>
<clus scale="  123.158">  1  7  2 -1</clus>
<clus scale="   21.996">  1  5  2 -1</clus>
</clustering>
</event>
<event>
 9    2  0.1654290E-004  0.2135785E+03  0.7546771E-02  0.1139603E+00
          2   -1    0    0  502    0 -0.00000000000E+00  0.00000000000E+00  0.83649592781E+03  0.83649592781E+03  0.00000000000E+00 0. -1.
         21   -1    0    0  501  502  0.00000000000E+00 -0.00000000000E+00 -0.13960436862E+03  0.13960436862E+03  0.00000000000E+00 0.  1.
         23    2    1    2    0    0 -0.29605610196E+02 -0.16862351764E+03  0.33653647501E+03  0.38859614801E+03  0.91868299108E+02 0.  0.
         24    2    1    2    0    0  0.11601914232E+03  0.25605320065E+03  0.11760975268E+03  0.31540757737E+03  0.81401492535E+02 0.  0.
        -11    1    4    4    0    0  0.11413153856E+03  0.21229439958E+03  0.12414772253E+03  0.27112280833E+03  0.00000000000E+00 0.  1.
         12    1    4    4    0    0  0.18876037655E+01  0.43758801075E+02 -0.65379698488E+01  0.44284769043E+02  0.00000000000E+00 0. -1.
        -11    1    3    3    0    0 -0.16483723801E+02 -0.15008156161E+02  0.48288074451E+01  0.22809543683E+02  0.00000000000E+00 0.  1.
         11    1    3    3    0    0 -0.13121886395E+02 -0.15361536148E+03  0.33170766756E+03  0.36578660433E+03  0.00000000000E+00 0. -1.
          1    1    1    2  501    0 -0.86413532128E+02 -0.87429683012E+02  0.24274533151E+03  0.27209657104E+03  0.00000000000E+00 0. -1.
<scales pt_clust_5="13000.00000" pt_clust_6="13000.00000" pt_clust_7="13000.00000" pt_clust_8="13000.00000" pt_clust_9="122.92788"></scales>
<clustering>
<clus scale="   81.401">  5  6 -1 -1</clus>
<clus scale="   91.868">  7  8 -1 -1</clus>
<clus scale="  122.928">  2  9  1 -1</clus>
<clus scale="  209.290">  2  5  1 -1</clus>
<clus scale="  122.928">  2  5  1 -1</clus>
</clustering>
</event>
<event>
 9    2  0.1654290E-004  0.1183289E+03  0.7546771E-02  0.1249030E+00
         21   -1    0    0  501  502  0.00000000000E+00  0.00000000000E+00  0.72531220942E+02  0.72531220942E+02  0.00000000000E+00 0.  1.
         -1   -1    0    0    0  501 -0.00000000000E+00 -0.00000000000E+00 -0.32510000229E+03  0.32510000229E+03  0.00000000000E+00 0.  1.
         24    2    1    2    0    0 -0.52422474499E+02 -0.57614332595E+02 -0.69239431867E+02  0.13273780154E+03  0.82205218075E+02 0.  0.
         23    2    1    2    0    0  0.78717092089E+02  0.14189431373E+02 -0.69298764220E+02  0.14007313754E+03  0.91762980497E+02 0.  0.
        -11    1    3    3    0    0 -0.68787386946E+02 -0.58702685513E+02 -0.72634367514E+02  0.11598905652E+03  0.00000000000E+00 0.  1.
         12    1    3    3    0    0  0.16364912447E+02  0.10883529180E+01  0.33949356470E+01  0.16748745013E+02  0.00000000000E+00 0. -1.
        -13    1    4    4    0    0  0.66504570034E+01  0.32669485021E+02  0.63847196757E+01  0.33945374872E+02  0.00000000000E+00 0.  1.
         13    1    4    4    0    0  0.72066635086E+02 -0.18480053648E+02 -0.75683483895E+02  0.10612776267E+03  0.00000000000E+00 0. -1.
         -2    1    1    2    0  502 -0.26294617590E+02  0.43424901222E+02 -0.11403058526E+03  0.12482028415E+03  0.00000000000E+00 0.  1.
<scales pt_clust_5="13000.00000" pt_clust_6="13000.00000" pt_clust_7="13000.00000" pt_clust_8="13000.00000" pt_clust_9="50.76546"></scales>
<clustering>
<clus scale="   50.765">  1  9  2 -1</clus>
<clus scale="   82.205">  5  6 -1 -1</clus>
<clus scale="   91.763">  7  8 -1 -1</clus>
<clus scale="  111.081">  2  5  1 -1</clus>
<clus scale="   50.765">  1  5  2 -1</clus>
</clustering>
</event>
<event>
 9    2  0.1654290E-004  0.1361222E+03  0.7546771E-02  0.1221517E+00
          2   -1    0    0  502    0 -0.00000000000E+00  0.00000000000E+00  0.20134843962E+03  0.20134843962E+03  0.00000000000E+00 0. -1.
         21   -1    0    0  501  502  0.00000000000E+00 -0.00000000000E+00 -0.16423602013E+03  0.16423602013E+03  0.00000000000E+00 0.  1.
         24    2    1    2    0    0 -0.57921485202E+01  0.98181562059E+02  0.11983328185E+03  0.17539995963E+03  0.82048536169E+02 0.  0.
         23    2    1    2    0    0 -0.16555236465E+02 -0.99330665382E+02 -0.42516557234E+02  0.14417241253E+03  0.94007286718E+02 0.  0.
        -11    1    3    3    0    0  0.25532357440E+02  0.48654724483E+02  0.17840834433E+02  0.57770917114E+02  0.00000000000E+00 0.  1.
         12    1    3    3    0    0 -0.31324505960E+02  0.49526837576E+02  0.10199244741E+03  0.11762904252E+03  0.00000000000E+00 0. -1.
        -11    1    4    4    0    0  0.11905253242E+02 -0.60721649096E+02 -0.66253383011E+02  0.90655195572E+02  0.00000000000E+00 0.  1.
         11    1    4    4    0    0 -0.28460489708E+02 -0.38609016286E+02  0.23736825777E+02  0.53517216958E+02  0.00000000000E+00 0. -1.
          1    1    1    2  501    0  0.22347384985E+02  0.11491033224E+01 -0.40204305125E+02  0.46012087594E+02  0.00000000000E+00 0. -1.
<scales pt_clust_5="13000.00000" pt_clust_6="13000.00000" pt_clust_7="13000.00000" pt_clust_8="13000.00000" pt_clust_9="22.37691"></scales>
<clustering>
<clus scale="   22.377">  2  9  1 -1</clus>
<clus scale="   82.049">  5  6 -1 -1</clus>
<clus scale="   94.007">  7  8 -1 -1</clus>
<clus scale="  128.156">  1  5  2 -1</clus>
<clus scale="   22.377">  2  5  1 -1</clus>
</clustering>
</event>
<event>
 9    2  0.1654290E-004  0.1231536E+03  0.7546771E-02  0.1240971E+00
         21   -1    0    0  501  502  0.00000000000E+00  0.00000000000E+00  0.75192365486E+02  0.75192365486E+02  0.00000000000E+00 0.  1.
          2   -1    0    0  502    0 -0.00000000000E+00 -0.00000000000E+00 -0.24634243034E+03  0.24634243034E+03  0.00000000000E+00 0. -1.
         23    2    1    2    0    0 -0.70109390453E+02  0.30428193544E+02 -0.79400738592E+02  0.14113491758E+03  0.88166808271E+02 0.  0.
         24    2    1    2    0    0  0.81388925852E+02 -0.56016138182E+02 -0.64203483512E+02  0.14114756261E+03  0.77708314534E+02 0.  0.
        -13    1    4    4    0    0  0.21584661574E+02 -0.14040964688E+02  0.17809557081E+02  0.31308571160E+02  0.00000000000E+00 0.  1.
         14    1    4    4    0    0  0.59804264277E+02 -0.41975173495E+02 -0.82013040593E+02  0.10983899145E+03  0.00000000000E+00 0. -1.
        -13    1    3    3    0    0 -0.13376438650E+02 -0.28098087226E+02 -0.39776873076E+02  0.50503774596E+02  0.00000000000E+00 0.  1.
         13    1    3    3    0    0 -0.56732951802E+02  0.58526280771E+02 -0.39623865516E+02  0.90631142989E+02  0.00000000000E+00 0. -1.
          1    1    1    2  501    0 -0.11279535399E+02  0.25587944638E+02 -0.27545842749E+02  0.39252315630E+02  0.00000000000E+00 0. -1.
<scales pt_clust_5="13000.00000" pt_clust_6="13000.00000" pt_clust_7="13000.00000" pt_clust_8="13000.00000" pt_clust_9="27.96376"></scales>
<clustering>
<clus scale="   27.964">  1  9  2 -1</clus>
<clus scale="   77.708">  5  6 -1 -1</clus>
<clus scale="   88.167">  7  8 -1 -1</clus>
<clus scale="  115.897">  1  5  2 -1</clus>
<clus scale="   27.964">  1  5  2 -1</clus>
</clustering>
</event>
<event>
 9    2  0.1654290E-004  0.3065731E+03  0.7546771E-02  0.1103562E+00
          2   -1    0    0  502    0 -0.00000000000E+00  0.00000000000E+00  0.58543337977E+03  0.58543337977E+03  0.00000000000E+00 0. -1.
         21   -1    0    0  501  502  0.00000000000E+00 -0.00000000000E+00 -0.33663923381E+03  0.33663923381E+03  0.00000000000E+00 0. -1.
         24    2    1    2    0    0  0.13507541487E+03 -0.67790042595E+02  0.73158895031E+02  0.18864487102E+03  0.85987242450E+02 0.  0.
         23    2    1    2    0    0 -0.39629532218E+03  0.47930585725E+02  0.22519714986E+03  0.46680700100E+03  0.88587225111E+02 0.  0.
        -13    1    3    3    0    0  0.34060226983E+02 -0.42135551677E+01  0.59261224047E+02  0.68481718617E+02  0.00000000000E+00 0.  1.
         14    1    3    3    0    0  0.10101518789E+03 -0.63576487428E+02  0.13897670984E+02  0.12016315241E+03  0.00000000000E+00 0. -1.
        -11    1    4    4    0    0 -0.10328530625E+03  0.26894816826E+02  0.20295211004E+02  0.10864198658E+03  0.00000000000E+00 0.  1.
         11    1    4    4    0    0 -0.29301001593E+03  0.21035768899E+02  0.20490193886E+03  0.35816501443E+03  0.00000000000E+00 0. -1.
          1    1    1    2  501    0  0.26121990731E+03  0.19859456871E+02 -0.49561898930E+02  0.26662074155E+03  0.00000000000E+00 0. -1.
<scales pt_clust_5="13000.00000" pt_clust_6="13000.00000" pt_clust_7="13000.00000" pt_clust_8="13000.00000" pt_clust_9="293.49513"></scales>
<clustering>
<clus scale="   85.987">  5  6 -1 -1</clus>
<clus scale="   88.587">  7  8 -1 -1</clus>
<clus scale="  173.881">  1  5  2 -1</clus>
<clus scale="  293.495">  2  9  1 -1</clus>
<clus scale="  293.495">  2  5  1 -1</clus>
</clustering>
</event>
<event>
 9    2  0.1654290E-004  0.1171911E+03  0.7546771E-02  0.1259650E+00
          2   -1    0    0  502    0 -0.00000000000E+00  0.00000000000E+00  0.13155485790E+04  0.13155485790E+04  0.00000000000E+00 0. -1.
         21   -1    0    0  501  502  0.00000000000E+00 -0.00000000000E+00 -0.13375385877E+02  0.13375385877E+02  0.00000000000E+00 0.  1.
         24    2    1    2    0    0 -0.29596730942E+02 -0.27829974167E+02  0.87570846463E+03  0.88077064266E+03  0.85094864719E+02 0.  0.
         23    2    1    2    0    0  0.84053157729E+01  0.24355693813E+02  0.38280772114E+03  0.39950066564E+03  0.11133364868E+03 0.  0.
        -11    1    3    3    0    0 -0.46022799001E+02 -0.32830760432E+02  0.33110213555E+03  0.33589370495E+03  0.00000000000E+00 0.  1.
         12    1    3    3    0    0  0.16426068059E+02  0.50007862650E+01  0.54460632908E+03  0.54487693771E+03  0.00000000000E+00 0. -1.
        -11    1    4    4    0    0  0.21091833552E+02  0.66103946329E+02  0.26283477228E+03  0.27183950170E+03  0.00000000000E+00 0.  1.
         11    1    4    4    0    0 -0.12686517779E+02 -0.41748252516E+02  0.11997294886E+03  0.12766116395E+03  0.00000000000E+00 0. -1.
          1    1    1    2  501    0  0.21191415169E+02  0.34742803542E+01  0.43657007340E+02  0.48652656564E+02  0.00000000000E+00 0. -1.
<scales pt_clust_5="13000.00000" pt_clust_6="13000.00000" pt_clust_7="13000.00000" pt_clust_8="13000.00000" pt_clust_9="21.47433"></scales>
<clustering>
<clus scale="   21.474">  2  9  1 -1</clus>
<clus scale="   85.095">  5  6 -1 -1</clus>
<clus scale="   92.627">  1  5  2 -1</clus>
<clus scale="  111.334">  7  8 -1 -1</clus>
<clus scale="   21.474">  2  5  1 -1</clus>
</clustering>
</event>
<event>
 9    2  0.1654290E-004  0.9174475E+02  0.7546771E-02  0.1302469E+00
          4   -1    0    0  502    0 -0.00000000000E+00  0.00000000000E+00  0.43623499219E+02  0.43623499219E+02  0.00000000000E+00 0. -1.
         21   -1    0    0  501  502  0.00000000000E+00 -0.00000000000E+00 -0.54953821701E+03  0.54953821701E+03  0.00000000000E+00 0. -1.
         24    2    1    2    0    0  0.25459669984E+01 -0.32908953508E+01 -0.49836251914E+02  0.98826973502E+02  0.85239701704E+02 0.  0.
         23    2    1    2    0    0 -0.31934498721E+02  0.33689939960E+01 -0.45469933079E+03  0.46491376535E+03  0.91444876618E+02 0.  0.
        -13    1    3    3    0    0 -0.35692545485E+02  0.16808582603E+02 -0.11562687322E+02  0.41111823000E+02  0.00000000000E+00 0.  1.
         14    1    3    3    0    0  0.38238512483E+02 -0.20099477953E+02 -0.38273564591E+02  0.57715150502E+02  0.00000000000E+00 0. -1.
        -13    1    4    4    0    0 -0.58124469817E+02  0.23972489499E+02 -0.32313064085E+03  0.32919074304E+03  0.00000000000E+00 0. -1.
         13    1    4    4    0    0  0.26189971096E+02 -0.20603495503E+02 -0.13156868994E+03  0.13572302231E+03  0.00000000000E+00 0.  1.
          3    1    1    2  501    0  0.29388531723E+02 -0.78098645219E-01 -0.13791350842E+01  0.29420977377E+02  0.00000000000E+00 0. -1.
<scales pt_clust_5="13000.00000" pt_clust_6="13000.00000" pt_clust_7="13000.00000" pt_clust_8="13000.00000" pt_clust_9="29.38865"></scales>
<clustering>
<clus scale="   29.389">  2  9  1 -1</clus>
<clus scale="   85.240">  5  6 -1 -1</clus>
<clus scale="   85.561">  1  5  2 -1</clus>
<clus scale="   91.445">  7  8 -1 -1</clus>
<clus scale="   29.389">  2  5  1 -1</clus>
</clustering>
</event>
<event>
 9    2  0.1654290E-004  0.9910775E+02  0.7546771E-02  0.1287537E+00
          2   -1    0    0  502    0 -0.00000000000E+00  0.00000000000E+00  0.18926355660E+03  0.18926355660E+03  0.00000000000E+00 0. -1.
         21   -1    0    0  501  502  0.00000000000E+00 -0.00000000000E+00 -0.75392663185E+02  0.75392663185E+02  0.00000000000E+00 0.  1.
         23    2    1    2    0    0  0.43484123233E+02 -0.11119792139E+02  0.11477881861E+03  0.15356991837E+03  0.91624362902E+02 0.  0.
         24    2    1    2    0    0 -0.23218033991E+02  0.81641632417E+01  0.13649193085E+02  0.85959427203E+02  0.81221868910E+02 0.  0.
        -13    1    4    4    0    0 -0.28804311400E+02  0.39712089399E+02 -0.42805899461E+01  0.49244916997E+02  0.00000000000E+00 0.  1.
         14    1    4    4    0    0  0.55862774092E+01 -0.31547926157E+02  0.17929783031E+02  0.36714510206E+02  0.00000000000E+00 0. -1.
        -11    1    3    3    0    0  0.48236227567E+00  0.36869416339E+02  0.33240369082E+02  0.49643818056E+02  0.00000000000E+00 0.  1.
         11    1    3    3    0    0  0.43001760957E+02 -0.47989208477E+02  0.81538449525E+02  0.10392610031E+03  0.00000000000E+00 0. -1.
          1    1    1    2  501    0 -0.20266089241E+02  0.29556288969E+01 -0.14557118274E+02  0.25126874214E+02  0.00000000000E+00 0. -1.
<scales pt_clust_5="13000.00000" pt_clust_6="13000.00000" pt_clust_7="13000.00000" pt_clust_8="13000.00000" pt_clust_9="20.48048"></scales>
<clustering>
<clus scale="   20.480">  2  9  1 -1</clus>
<clus scale="   81.222">  5  6 -1 -1</clus>
<clus scale="   89.579">  2  5  1 -1</clus>
<clus scale="   91.624">  7  8 -1 -1</clus>
<clus scale="   20.480">  2  5  1 -1</clus>
</clustering>
</event>
<event>
 9    2  0.1654290E-004  0.1044782E+03  0.7546771E-02  0.1274341E+00
         21   -1    0    0  501  502  0.00000000000E+00  0.00000000000E+00  0.20433711469E+02  0.20433711469E+02  0.00000000000E+00 0. -1.
          2   -1    0    0  502    0 -0.00000000000E+00 -0.00000000000E+00 -0.78109465578E+03  0.78109465578E+03  0.00000000000E+00 0. -1.
         24    2    1    2    0    0  0.10915351065E+02  0.59288262777E+02 -0.54739927322E+03  0.55673239007E+03  0.81674640135E+02 0.  0.
         23    2    1    2    0    0 -0.10244015242E+02 -0.36968950745E+02 -0.16077671968E+03  0.18775851137E+03  0.89064369041E+02 0.  0.
        -13    1    3    3    0    0 -0.34670472134E+02  0.14498501735E+02 -0.19665614886E+03  0.20021460754E+03  0.00000000000E+00 0.  1.
         14    1    3    3    0    0  0.45585823199E+02  0.44789761042E+02 -0.35074312436E+03  0.35651778253E+03  0.00000000000E+00 0. -1.
        -11    1    4    4    0    0  0.89669331233E+01  0.24159499785E+02 -0.83424125657E+02  0.87313641896E+02  0.00000000000E+00 0. -1.
         11    1    4    4    0    0 -0.19210948366E+02 -0.61128450529E+02 -0.77352594023E+02  0.10044486947E+03  0.00000000000E+00 0.  1.
          1    1    1    2  501    0 -0.67133582261E+00 -0.22319312032E+02 -0.52484951409E+02  0.57037465808E+02  0.00000000000E+00 0. -1.
<scales pt_clust_5="13000.00000" pt_clust_6="13000.00000" pt_clust_7="13000.00000" pt_clust_8="13000.00000" pt_clust_9="22.32941"></scales>
<clustering>
<clus scale="   22.329">  1  9  2 -1</clus>
<clus scale="   81.675">  5  6 -1 -1</clus>
<clus scale="   89.064">  7  8 -1 -1</clus>
<clus scale="   98.255">  2  5  1 -1</clus>
<clus scale="   22.329">  1  5  2 -1</clus>
</clustering>
</event>
<event>
 9    2  0.1654290E-004  0.9079973E+02  0.7546771E-02  0.1303532E+00
         21   -1    0    0  501  502  0.00000000000E+00  0.00000000000E+00  0.37411988600E+02  0.37411988600E+02  0.00000000000E+00 0.  1.
          2   -1    0    0  502    0 -0.00000000000E+00 -0.00000000000E+00 -0.39212940613E+03  0.39212940613E+03  0.00000000000E+00 0. -1.
         24    2    1    2    0    0  0.34125965827E+02  0.13914408006E+02 -0.28483808609E+03  0.29825116999E+03  0.80391745968E+02 0.  0.
         23    2    1    2    0    0 -0.16012960751E+02  0.21659682614E+01 -0.49486458144E+02  0.99627490571E+02  0.84944811538E+02 0.  0.
        -11    1    3    3    0    0 -0.93295413420E+01  0.34600255502E+02 -0.77254847086E+02  0.85161783805E+02  0.00000000000E+00 0.  1.
         12    1    3    3    0    0  0.43455507169E+02 -0.20685847496E+02 -0.20758323900E+03  0.21308938618E+03  0.00000000000E+00 0. -1.
        -13    1    4    4    0    0  0.11700303699E+01 -0.35341658116E+02 -0.21150858755E+00  0.35361653035E+02  0.00000000000E+00 0.  1.
         13    1    4    4    0    0 -0.17182991121E+02  0.37507626378E+02 -0.49274949557E+02  0.64265837536E+02  0.00000000000E+00 0. -1.
          1    1    1    2  501    0 -0.18113005076E+02 -0.16080376267E+02 -0.20392873298E+02  0.31662734171E+02  0.00000000000E+00 0. -1.
<scales pt_clust_5="13000.00000" pt_clust_6="13000.00000" pt_clust_7="13000.00000" pt_clust_8="13000.00000" pt_clust_9="24.22105"></scales>
<clustering>
<clus scale="   24.221">  1  9  2 -1</clus>
<clus scale="   80.392">  5  6 -1 -1</clus>
<clus scale="   84.945">  7  8 -1 -1</clus>
<clus scale="   86.555">  2  5  1 -1</clus>
<clus scale="   24.221">  1  5  2 -1</clus>
</clustering>
</event>
<event>
 9    2  0.1654290E-004  0.1786415E+03  0.7546771E-02  0.1171803E+00
          2   -1    0    0  502    0 -0.00000000000E+00  0.00000000000E+00  0.20844362728E+03  0.20844362728E+03  0.00000000000E+00 0. -1.
         21   -1    0    0  501  502  0.00000000000E+00 -0.00000000000E+00 -0.24435532551E+03  0.24435532551E+03  0.00000000000E+00 0.  1.
         24    2    1    2    0    0 -0.47315388388E+02 -0.12192334109E+03 -0.38173297043E+02  0.15526099214E+03  0.74462930336E+02 0.  0.
         23    2    1    2    0    0  0.12896311560E+03  0.12934137490E+03 -0.31736296404E+02  0.20878416939E+03  0.96036245407E+02 0.  0.
        -13    1    3    3    0    0 -0.66386539486E+02 -0.10746540155E+03 -0.35302921328E+02  0.13115746799E+03  0.00000000000E+00 0.  1.
         14    1    3    3    0    0  0.19071151098E+02 -0.14457939532E+02 -0.28703757145E+01  0.24103524150E+02  0.00000000000E+00 0. -1.
        -13    1    4    4    0    0  0.29925743063E+01  0.64669138316E+02 -0.86832572258E+01  0.65318082546E+02  0.00000000000E+00 0. -1.
         13    1    4    4    0    0  0.12597054129E+03  0.64672236584E+02 -0.23053039179E+02  0.14346608684E+03  0.00000000000E+00 0.  1.
          1    1    1    2  501    0 -0.81647727213E+02 -0.74180338146E+01  0.33997895214E+02  0.88753791264E+02  0.00000000000E+00 0. -1.
<scales pt_clust_5="13000.00000" pt_clust_6="13000.00000" pt_clust_7="13000.00000" pt_clust_8="13000.00000" pt_clust_9="81.98406"></scales>
<clustering>
<clus scale="   74.463">  5  6 -1 -1</clus>
<clus scale="   81.984">  2  9  1 -1</clus>
<clus scale="   96.036">  7  8 -1 -1</clus>
<clus scale="  168.031">  1  5  2 -1</clus>
<clus scale="   81.984">  2  5  1 -1</clus>
</clustering>
</event>
<event>
 9    2  0.1654290E-004  0.1482082E+03  0.7546771E-02  0.1205900E+00
         21   -1    0    0  501  502  0.00000000000E+00  0.00000000000E+00  0.64751144781E+02  0.64751144781E+02  0.00000000000E+00 0. -1.
         -3   -1    0    0    0  501 -0.00000000000E+00 -0.00000000000E+00 -0.55077756825E+03  0.55077756825E+03  0.00000000000E+00 0.  1.
         24    2    1    2    0    0 -0.36594088794E+02  0.11676198477E+03 -0.38830585656E+03  0.41437920154E+03  0.77176395412E+02 0.  0.
         23    2    1    2    0    0  0.35766718534E+02 -0.89277155331E+02 -0.10741485831E+03  0.17199338560E+03  0.93776885678E+02 0.  0.
        -13    1    3    3    0    0 -0.28374783997E+02  0.53456853697E+01 -0.12612852009E+03  0.12939129916E+03  0.00000000000E+00 0.  1.
         14    1    3    3    0    0 -0.82193047969E+01  0.11141629940E+03 -0.26217733647E+03  0.28498790238E+03  0.00000000000E+00 0. -1.
        -13    1    4    4    0    0  0.56056408959E+02 -0.78520896278E+02 -0.46910363498E+02  0.10727737106E+03  0.00000000000E+00 0. -1.
         13    1    4    4    0    0 -0.20289690425E+02 -0.10756259053E+02 -0.60504494810E+02  0.64716014545E+02  0.00000000000E+00 0.  1.
         -4    1    1    2    0  502  0.82737025929E+00 -0.27484829438E+02  0.96942914019E+01  0.29156125884E+02  0.00000000000E+00 0.  1.
<scales pt_clust_5="13000.00000" pt_clust_6="13000.00000" pt_clust_7="13000.00000" pt_clust_8="13000.00000" pt_clust_9="27.49728"></scales>
<clustering>
<clus scale="   27.497">  1  9  2 -1</clus>
<clus scale="   77.176">  5  6 -1 -1</clus>
<clus scale="   93.777">  7  8 -1 -1</clus>
<clus scale="  138.303">  2  5  1 -1</clus>
<clus scale="   27.497">  1  5  2 -1</clus>
</clustering>
</event>
<event>
 9    2  0.1654290E-004  0.1088075E+03  0.7546771E-02  0.1267182E+00
         21   -1    0    0  501  502  0.00000000000E+00  0.00000000000E+00  0.13181175235E+03  0.13181175235E+03  0.00000000000E+00 0.  1.
          2   -1    0    0  502    0 -0.00000000000E+00 -0.00000000000E+00 -0.19104577697E+03  0.19104577697E+03  0.00000000000E+00 0. -1.
         24    2    1    2    0    0  0.41691052786E+02  0.43894617906E+02 -0.98861878799E+02  0.14092143961E+03  0.80126772667E+02 0.  0.
         23    2    1    2    0    0 -0.22413596980E+02 -0.53799338353E+02  0.81118891497E+02  0.13512551433E+03  0.91004900573E+02 0.  0.
        -13    1    3    3    0    0  0.40725044912E+02 -0.13573725493E+02 -0.40846158978E+02  0.59255244579E+02  0.00000000000E+00 0.  1.
         14    1    3    3    0    0  0.96600787438E+00  0.57468343399E+02 -0.58015719822E+02  0.81666195030E+02  0.00000000000E+00 0. -1.
        -11    1    4    4    0    0 -0.36826650751E+02 -0.11696415451E+02  0.81964802523E+02  0.90615877155E+02  0.00000000000E+00 0.  1.
         11    1    4    4    0    0  0.14413053771E+02 -0.42102922902E+02 -0.84591102659E+00  0.44509637174E+02  0.00000000000E+00 0. -1.
          1    1    1    2  501    0 -0.19277455807E+02  0.99047204478E+01 -0.41491037319E+02  0.46810575379E+02  0.00000000000E+00 0. -1.
<scales pt_clust_5="13000.00000" pt_clust_6="13000.00000" pt_clust_7="13000.00000" pt_clust_8="13000.00000" pt_clust_9="21.67312"></scales>
<clustering>
<clus scale="   21.673">  1  9  2 -1</clus>
<clus scale="   80.127">  5  6 -1 -1</clus>
<clus scale="   91.005">  7  8 -1 -1</clus>
<clus scale="   99.887">  2  5  1 -1</clus>
<clus scale="   21.673">  1  5  2 -1</clus>
</clustering>
</event>
<event>
 9    2  0.1654290E-004  0.1075156E+03  0.7546771E-02  0.1269749E+00
         21   -1    0    0  501  502  0.00000000000E+00  0.00000000000E+00  0.80094380280E+02  0.80094380280E+02  0.00000000000E+00 0.  1.
         -1   -1    0    0    0  501 -0.00000000000E+00 -0.00000000000E+00 -0.22428331682E+03  0.22428331682E+03  0.00000000000E+00 0.  1.
         24    2    1    2    0    0  0.14079919673E+02 -0.30959542860E+02 -0.46332823024E+02  0.99043568728E+02  0.80660774760E+02 0.  0.
         23    2    1    2    0    0 -0.47940206179E+02  0.72168550095E+02 -0.79339168652E+02  0.14887548398E+03  0.91447487976E+02 0.  0.
        -13    1    3    3    0    0  0.41864622236E+02 -0.40086716670E+02 -0.26675650912E+02  0.63805813214E+02  0.00000000000E+00 0.  1.
         14    1    3    3    0    0 -0.27784702562E+02  0.91271738103E+01 -0.19657172113E+02  0.35237755514E+02  0.00000000000E+00 0. -1.
        -11    1    4    4    0    0  0.18054939246E+02  0.21103523615E+02 -0.55550381750E+02  0.62106235216E+02  0.00000000000E+00 0.  1.
         11    1    4    4    0    0 -0.65995145425E+02  0.51065026480E+02 -0.23788786903E+02  0.86769248766E+02  0.00000000000E+00 0. -1.
         -2    1    1    2    0  502  0.33860286506E+02 -0.41209007236E+02 -0.18516944868E+02  0.56458644394E+02  0.00000000000E+00 0.  1.
<scales pt_clust_5="13000.00000" pt_clust_6="13000.00000" pt_clust_7="13000.00000" pt_clust_8="13000.00000" pt_clust_9="53.33574"></scales>
<clustering>
<clus scale="   53.336">  1  9  2 -1</clus>
<clus scale="   80.661">  5  6 -1 -1</clus>
<clus scale="   91.447">  7  8 -1 -1</clus>
<clus scale="   98.504">  2  5  1 -1</clus>
<clus scale="   53.336">  1  5  2 -1</clus>
</clustering>
</event>
<event>
 9    2  0.1654290E-004  0.1066782E+03  0.7546771E-02  0.1270220E+00
         21   -1    0    0  501  502  0.00000000000E+00  0.00000000000E+00  0.10074177110E+03  0.10074177110E+03  0.00000000000E+00 0. -1.
          2   -1    0    0  502    0 -0.00000000000E+00 -0.00000000000E+00 -0.20985550990E+03  0.20985550990E+03  0.00000000000E+00 0. -1.
         23    2    1    2    0    0  0.39165526869E+02  0.94938514304E+01 -0.37143536361E+02  0.10458394733E+03  0.89073497945E+02 0.  0.
         24    2    1    2    0    0 -0.82919252567E+02 -0.37637629124E+02 -0.59110497920E+01  0.12192842191E+03  0.80866593774E+02 0.  0.
        -13    1    4    4    0    0 -0.14778027571E+02  0.25028001727E+02  0.11158621599E+01  0.29086700014E+02  0.00000000000E+00 0.  1.
         14    1    4    4    0    0 -0.68141224997E+02 -0.62665630851E+02 -0.70269119519E+01  0.92841721901E+02  0.00000000000E+00 0. -1.
        -11    1    3    3    0    0 -0.10824572037E+01  0.32373605117E+02 -0.47163328897E+02  0.57215396656E+02  0.00000000000E+00 0. -1.
         11    1    3    3    0    0  0.40247984072E+02 -0.22879753687E+02  0.10019792535E+02  0.47368550675E+02  0.00000000000E+00 0.  1.
          1    1    1    2  501    0  0.43753725699E+02  0.28143777694E+02 -0.66059152648E+02  0.84084911750E+02  0.00000000000E+00 0. -1.
<scales pt_clust_5="13000.00000" pt_clust_6="13000.00000" pt_clust_7="13000.00000" pt_clust_8="13000.00000" pt_clust_9="52.02368"></scales>
<clustering>
<clus scale="   52.024">  1  9  2 -1</clus>
<clus scale="   80.867">  5  6 -1 -1</clus>
<clus scale="   89.073">  7  8 -1 -1</clus>
<clus scale="   99.928">  1  5  2 -1</clus>
<clus scale="   52.024">  1  5  2 -1</clus>
</clustering>
</event>
<event>
 9    2  0.1654290E-004  0.3080859E+03  0.7546771E-02  0.1132294E+00
         21   -1    0    0  501  502  0.00000000000E+00  0.00000000000E+00  0.14165801170E+03  0.14165801170E+03  0.00000000000E+00 0. -1.
          2   -1    0    0  502    0 -0.00000000000E+00 -0.00000000000E+00 -0.13422599626E+04  0.13422599626E+04  0.00000000000E+00 0. -1.
         24    2    1    2    0    0  0.87368940319E+01  0.20832950384E+02 -0.16900310214E+03  0.18840756344E+03  0.80156199316E+02 0.  0.
         23    2    1    2    0    0 -0.29918736194E+03  0.16444629914E+02 -0.93653328032E+03  0.98763291152E+03  0.92415796112E+02 0.  0.
        -11    1    3    3    0    0 -0.12446806396E+02  0.19873815406E+02 -0.62357640428E+01  0.24264712680E+02  0.00000000000E+00 0.  1.
         12    1    3    3    0    0  0.21183700428E+02  0.95913497817E+00 -0.16276733810E+03  0.16414285076E+03  0.00000000000E+00 0. -1.
        -11    1    4    4    0    0 -0.26569202444E+03 -0.80131417301E+01 -0.86527710798E+03  0.90518558091E+03  0.00000000000E+00 0.  1.
         11    1    4    4    0    0 -0.33495337506E+02  0.24457771645E+02 -0.71256172339E+02  0.82447330611E+02  0.00000000000E+00 0. -1.
          1    1    1    2  501    0  0.29045046791E+03 -0.37277580298E+02 -0.95065568458E+02  0.30787749936E+03  0.00000000000E+00 0. -1.
<scales pt_clust_5="13000.00000" pt_clust_6="13000.00000" pt_clust_7="13000.00000" pt_clust_8="13000.00000" pt_clust_9="293.89836"></scales>
<clustering>
<clus scale="   80.156">  5  6 -1 -1</clus>
<clus scale="   83.279">  2  5  1 -1</clus>
<clus scale="   92.416">  7  8 -1 -1</clus>
<clus scale="  293.898">  1  9  2 -1</clus>
<clus scale="  293.898">  1  5  2 -1</clus>
</clustering>
</event>
<event>
 9    2  0.1654290E-004  0.2162576E+03  0.7546771E-02  0.1154476E+00
         21   -1    0    0  501  502  0.00000000000E+00  0.00000000000E+00  0.36030698610E+03  0.36030698610E+03  0.00000000000E+00 0. -1.
          2   -1    0    0  502    0 -0.00000000000E+00 -0.00000000000E+00 -0.29655878581E+03  0.29655878581E+03  0.00000000000E+00 0. -1.
         23    2    1    2    0    0  0.45471948050E+02 -0.98235554633E+02 -0.12554391410E+02  0.14201740695E+03  0.91068155136E+02 0.  0.
         24    2    1    2    0    0 -0.20360806803E+03  0.80204348353E+02  0.20480494078E+03  0.31028783465E+03  0.80277603988E+02 0.  0.
        -11    1    4    4    0    0 -0.22636389093E+02  0.40513753966E+02  0.28064401056E+02  0.54234499889E+02  0.00000000000E+00 0.  1.
         12    1    4    4    0    0 -0.18097167894E+03  0.39690594387E+02  0.17674053972E+03  0.25605333476E+03  0.00000000000E+00 0. -1.
        -11    1    3    3    0    0 -0.27980617389E+02 -0.31567493481E+02 -0.15376979521E+01  0.42211208335E+02  0.00000000000E+00 0. -1.
         11    1    3    3    0    0  0.73452565439E+02 -0.66668061153E+02 -0.11016693457E+02  0.99806198616E+02  0.00000000000E+00 0.  1.
          1    1    1    2  501    0  0.15813611998E+03  0.18031206280E+02 -0.12850234908E+03  0.20456053031E+03  0.00000000000E+00 0. -1.
<scales pt_clust_5="13000.00000" pt_clust_6="13000.00000" pt_clust_7="13000.00000" pt_clust_8="13000.00000" pt_clust_9="200.80560"></scales>
<clustering>
<clus scale="   80.278">  5  6 -1 -1</clus>
<clus scale="   91.068">  7  8 -1 -1</clus>
<clus scale="  141.461">  2  7  1 -1</clus>
<clus scale="  200.806">  1  9  2 -1</clus>
<clus scale="  200.806">  1  5  2 -1</clus>
</clustering>
</event>
<event>
 9    2  0.1654290E-004  0.9684990E+02  0.7546771E-02  0.1300159E+00
          2   -1    0    0  502    0 -0.00000000000E+00  0.00000000000E+00  0.21551091616E+03  0.21551091616E+03  0.00000000000E+00 0. -1.
         21   -1    0    0  501  502  0.00000000000E+00 -0.00000000000E+00 -0.58840651281E+02  0.58840651281E+02  0.00000000000E+00 0.  1.
         24    2    1    2    0    0  0.35995729829E+02  0.51112624756E+00  0.12844032607E+03  0.15026544391E+03  0.69186938475E+02 0.  0.
         23    2    1    2    0    0 -0.14196979432E+02 -0.15546079115E+02  0.25450547490E+02  0.97459814309E+02  0.91692149265E+02 0.  0.
        -13    1    3    3    0    0  0.43187058143E+02 -0.25873253468E+02  0.76781481916E+02  0.91814722138E+02  0.00000000000E+00 0.  1.
         14    1    3    3    0    0 -0.71913283148E+01  0.26384379716E+02  0.51658844159E+02  0.58450721773E+02  0.00000000000E+00 0. -1.
        -13    1    4    4    0    0 -0.52648179954E+02 -0.47660229030E+01  0.22388058721E+02  0.57408805945E+02  0.00000000000E+00 0.  1.
         13    1    4    4    0    0  0.38451200522E+02 -0.10780056212E+02  0.30624887683E+01  0.40051008364E+02  0.00000000000E+00 0. -1.
          1    1    1    2  501    0 -0.21798750397E+02  0.15034952868E+02  0.27793913122E+01  0.26626309220E+02  0.00000000000E+00 0. -1.
<scales pt_clust_5="13000.00000" pt_clust_6="13000.00000" pt_clust_7="13000.00000" pt_clust_8="13000.00000" pt_clust_9="26.48085"></scales>
<clustering>
<clus scale="   26.481">  2  9  1 -1</clus>
<clus scale="   69.187">  5  6 -1 -1</clus>
<clus scale="   75.890">  1  5  2 -1</clus>
<clus scale="   91.692">  7  8 -1 -1</clus>
<clus scale="   26.481">  2  5  1 -1</clus>
</clustering>
</event>
<event>
 9    2  0.1654290E-004  0.1157165E+03  0.7546771E-02  0.1251618E+00
         21   -1    0    0  501  502  0.00000000000E+00  0.00000000000E+00  0.84785158559E+02  0.84785158559E+02  0.00000000000E+00 0.  1.
         -3   -1    0    0    0  501 -0.00000000000E+00 -0.00000000000E+00 -0.29063929109E+03  0.29063929109E+03  0.00000000000E+00 0.  1.
         23    2    1    2    0    0 -0.26342411421E+02 -0.75596930137E+02 -0.15378965227E+03  0.19576335519E+03  0.90902231006E+02 0.  0.
         24    2    1    2    0    0  0.22560426568E+02  0.42260526255E+02  0.18840959657E+02  0.10121875486E+03  0.87151188449E+02 0.  0.
        -13    1    4    4    0    0  0.50732767842E+02  0.38581859134E+02 -0.52716795912E+01  0.63954391505E+02  0.00000000000E+00 0.  1.
         14    1    4    4    0    0 -0.28172341274E+02  0.36786671209E+01  0.24112639248E+02  0.37264363353E+02  0.00000000000E+00 0. -1.
        -13    1    3    3    0    0 -0.43331334936E+02 -0.11987181465E+02 -0.10373082738E+03  0.11305477282E+03  0.00000000000E+00 0.  1.
         13    1    3    3    0    0  0.16988923515E+02 -0.63609748672E+02 -0.50058824890E+02  0.82708582370E+02  0.00000000000E+00 0. -1.
         -4    1    1    2    0  502  0.37819848529E+01  0.33336403882E+02 -0.70905439909E+02  0.78442339600E+02  0.00000000000E+00 0.  1.
<scales pt_clust_5="13000.00000" pt_clust_6="13000.00000" pt_clust_7="13000.00000" pt_clust_8="13000.00000" pt_clust_9="33.55027"></scales>
<clustering>
<clus scale="   33.550">  1  9  2 -1</clus>
<clus scale="   87.151">  5  6 -1 -1</clus>
<clus scale="   90.902">  7  8 -1 -1</clus>
<clus scale="  112.794">  1  5  2 -1</clus>
<clus scale="   33.550">  1  5  2 -1</clus>
</clustering>
</event>
<event>
 9    2  0.1654290E-004  0.1401942E+03  0.7546771E-02  0.1227460E+00
          2   -1    0    0  502    0 -0.00000000000E+00  0.00000000000E+00  0.41302127995E+03  0.41302127995E+03  0.00000000000E+00 0. -1.
         21   -1    0    0  501  502  0.00000000000E+00 -0.00000000000E+00 -0.17201553373E+03  0.17201553373E+03  0.00000000000E+00 0. -1.
         24    2    1    2    0    0  0.50777290411E+02  0.44491572733E+02 -0.22203708012E+02  0.10599656664E+03  0.78641173846E+02 0.  0.
         23    2    1    2    0    0 -0.13695850323E+02 -0.14253689521E+03  0.31831917734E+03  0.36061305406E+03  0.90610889442E+02 0.  0.
        -13    1    3    3    0    0  0.21112064652E+02  0.64262994164E+02 -0.10362039915E+02  0.68431159306E+02  0.00000000000E+00 0.  1.
         14    1    3    3    0    0  0.29665225759E+02 -0.19771421431E+02 -0.11841668096E+02  0.37565407332E+02  0.00000000000E+00 0. -1.
        -13    1    4    4    0    0  0.29531809831E+02 -0.11147106205E+03  0.23447413994E+03  0.26129685755E+03  0.00000000000E+00 0. -1.
         13    1    4    4    0    0 -0.43227660154E+02 -0.31065833155E+02  0.83845037397E+02  0.99316196504E+02  0.00000000000E+00 0.  1.
          1    1    1    2  501    0 -0.37081440087E+02  0.98045322472E+02 -0.55109723105E+02  0.11842719298E+03  0.00000000000E+00 0. -1.
<scales pt_clust_5="13000.00000" pt_clust_6="13000.00000" pt_clust_7="13000.00000" pt_clust_8="13000.00000" pt_clust_9="106.97699"></scales>
<clustering>
<clus scale="   78.641">  5  6 -1 -1</clus>
<clus scale="   90.611">  7  8 -1 -1</clus>
<clus scale="  103.645">  1  5  2 -1</clus>
<clus scale="  106.977">  2  9  1 -1</clus>
<clus scale="  106.977">  2  5  1 -1</clus>
</clustering>
</event>
<event>
 9    2  0.1654290E-004  0.1103936E+03  0.7546771E-02  0.1263079E+00
         21   -1    0    0  501  502  0.00000000000E+00  0.00000000000E+00  0.88615746602E+03  0.88615746602E+03  0.00000000000E+00 0.  1.
         -3   -1    0    0    0  501 -0.00000000000E+00 -0.00000000000E+00 -0.39190514853E+02  0.39190514853E+02  0.00000000000E+00 0.  1.
         24    2    1    2    0    0 -0.65504234054E+01  0.58297479716E+02  0.13032439202E+03  0.16519791188E+03  0.82851667141E+02 0.  0.
         23    2    1    2    0    0  0.93555808289E+02 -0.54106404493E+02  0.58817814669E+03  0.60493857657E+03  0.91197351427E+02 0.  0.
        -13    1    3    3    0    0 -0.36249422079E+02  0.36323074248E+02  0.11358238210E+03  0.12463684787E+03  0.00000000000E+00 0.  1.
         14    1    3    3    0    0  0.29698998673E+02  0.21974405469E+02  0.16742009922E+02  0.40561064016E+02  0.00000000000E+00 0. -1.
        -13    1    4    4    0    0  0.26521651942E+02  0.17018318532E+02  0.59776136661E+02  0.67573720495E+02  0.00000000000E+00 0. -1.
         13    1    4    4    0    0  0.67034156347E+02 -0.71124723024E+02  0.52840201003E+03  0.53736485607E+03  0.00000000000E+00 0.  1.
         -4    1    1    2    0  502 -0.87005384883E+02 -0.41910752236E+01  0.12846441245E+03  0.15521149241E+03  0.00000000000E+00 0.  1.
<scales pt_clust_5="13000.00000" pt_clust_6="13000.00000" pt_clust_7="13000.00000" pt_clust_8="13000.00000" pt_clust_9="87.10631"></scales>
<clustering>
<clus scale="   82.852">  5  6 -1 -1</clus>
<clus scale="   87.106">  1  9  2 -1</clus>
<clus scale="   91.197">  7  8 -1 -1</clus>
<clus scale="  103.606">  2  5  1 -1</clus>
<clus scale="   87.106">  1  5  2 -1</clus>
</clustering>
</event>
<event>
 9    2  0.1683297E-004  0.1079722E+03  0.7546771E-02  0.1269243E+00
         21   -1    0    0  501  502  0.00000000000E+00  0.00000000000E+00  0.47347915165E+02  0.47347915165E+02  0.00000000000E+00 0. -1.
          2   -1    0    0  502    0 -0.00000000000E+00 -0.00000000000E+00 -0.85560275201E+03  0.85560275201E+03  0.00000000000E+00 0. -1.
         24    2    1    2    0    0  0.15802544414E+02  0.60969731812E+02 -0.62525725781E+03  0.63341641302E+03  0.79389452841E+02 0.  0.
         23    2    1    2    0    0  0.29040392080E+01 -0.96338604112E+01 -0.15097986785E+02  0.92968172931E+02  0.91180520195E+02 0.  0.
        -11    1    3    3    0    0 -0.30619001140E+02  0.37992929822E+02 -0.26505624953E+03  0.26951029918E+03  0.00000000000E+00 0.  1.
         12    1    3    3    0    0  0.46421545554E+02  0.22976801989E+02 -0.36020100828E+03  0.36390611384E+03  0.00000000000E+00 0. -1.
        -11    1    4    4    0    0 -0.22799084604E+02 -0.12636617275E+02  0.30755718897E+02  0.40316207657E+02  0.00000000000E+00 0. -1.
         11    1    4    4    0    0  0.25703123812E+02  0.30027568643E+01 -0.45853705683E+02  0.52651965275E+02  0.00000000000E+00 0.  1.
          1    1    1    2  501    0 -0.18706583622E+02 -0.51335871400E+02 -0.16789959224E+03  0.17656608122E+03  0.00000000000E+00 0. -1.
<scales pt_clust_5="13000.00000" pt_clust_6="13000.00000" pt_clust_7="13000.00000" pt_clust_8="13000.00000" pt_clust_9="54.63800"></scales>
<clustering>
<clus scale="   54.638">  1  9  2 -1</clus>
<clus scale="   79.389">  5  6 -1 -1</clus>
<clus scale="   91.181">  7  8 -1 -1</clus>
<clus scale="   98.218">  2  5  1 -1</clus>
<clus scale="   54.638">  1  5  2 -1</clus>
</clustering>
</event>
<event>
 9    2  0.1654290E-004  0.1493969E+03  0.7546771E-02  0.1223626E+00
         21   -1    0    0  501  502  0.00000000000E+00  0.00000000000E+00  0.30897733985E+03  0.30897733985E+03  0.00000000000E+00 0.  1.
          4   -1    0    0  502    0 -0.00000000000E+00 -0.00000000000E+00 -0.12211655734E+03  0.12211655734E+03  0.00000000000E+00 0. -1.
         24    2    1    2    0    0  0.13025821049E+02 -0.39378047519E+02  0.10822374499E+03  0.14253468363E+03  0.82966586142E+02 0.  0.
         23    2    1    2    0    0 -0.47198946841E+02  0.14052140525E+03  0.49522898848E+02  0.17790021297E+03  0.84982129589E+02 0.  0.
        -11    1    3    3    0    0  0.42232196805E+02  0.13709939891E+01  0.43220580660E+02  0.60443830653E+02  0.00000000000E+00 0.  1.
         12    1    3    3    0    0 -0.29206375756E+02 -0.40749041508E+02  0.65003164334E+02  0.82090852974E+02  0.00000000000E+00 0. -1.
        -11    1    4    4    0    0 -0.52457700935E+02  0.11863500123E+03  0.70063215295E+02  0.14742770446E+03  0.00000000000E+00 0.  1.
         11    1    4    4    0    0  0.52587540940E+01  0.21886404024E+02 -0.20540316447E+02  0.30472508520E+02  0.00000000000E+00 0. -1.
          3    1    1    2  501    0  0.34173125792E+02 -0.10114335773E+03  0.29114138669E+02  0.11065900058E+03  0.00000000000E+00 0. -1.
<scales pt_clust_5="13000.00000" pt_clust_6="13000.00000" pt_clust_7="13000.00000" pt_clust_8="13000.00000" pt_clust_9="122.87178"></scales>
<clustering>
<clus scale="   82.967">  5  6 -1 -1</clus>
<clus scale="   84.982">  7  8 -1 -1</clus>
<clus scale="   92.756">  2  5  1 -1</clus>
<clus scale="  122.872">  1  9  2 -1</clus>
<clus scale="  122.872">  1  5  2 -1</clus>
</clustering>
</event>
<event>
 9    2  0.1654290E-004  0.1093172E+03  0.7546771E-02  0.1265968E+00
         21   -1    0    0  501  502  0.00000000000E+00  0.00000000000E+00  0.94712912829E+02  0.94712912829E+02  0.00000000000E+00 0. -1.
          2   -1    0    0  502    0 -0.00000000000E+00 -0.00000000000E+00 -0.55228047809E+03  0.55228047809E+03  0.00000000000E+00 0. -1.
         24    2    1    2    0    0 -0.71161790449E+02  0.11437027735E+02 -0.24288121125E+03  0.26558154493E+03  0.79670999784E+02 0.  0.
         23    2    1    2    0    0 -0.35148489466E+01  0.29621230293E+02  0.47176417252E+02  0.10603121487E+03  0.90151166016E+02 0.  0.
        -13    1    3    3    0    0 -0.21507059702E+01  0.32834444270E+02 -0.52596596130E+02  0.62041342596E+02  0.00000000000E+00 0.  1.
         14    1    3    3    0    0 -0.69011084479E+02 -0.21397416534E+02 -0.19028461512E+03  0.20354020233E+03  0.00000000000E+00 0. -1.
        -11    1    4    4    0    0 -0.15503426536E+02  0.58152874629E+02  0.44731417914E+02  0.74986750900E+02  0.00000000000E+00 0. -1.
         11    1    4    4    0    0  0.11988577590E+02 -0.28531644336E+02  0.24449993380E+01  0.31044463965E+02  0.00000000000E+00 0.  1.
          1    1    1    2  501    0  0.74676639396E+02 -0.41058258028E+02 -0.26186277127E+03  0.27538063113E+03  0.00000000000E+00 0. -1.
<scales pt_clust_5="13000.00000" pt_clust_6="13000.00000" pt_clust_7="13000.00000" pt_clust_8="13000.00000" pt_clust_9="85.21965"></scales>
<clustering>
<clus scale="   79.671">  5  6 -1 -1</clus>
<clus scale="   85.220">  1  9  2 -1</clus>
<clus scale="   90.151">  7  8 -1 -1</clus>
<clus scale="  100.849">  2  5  1 -1</clus>
<clus scale="   85.220">  1  5  2 -1</clus>
</clustering>
</event>
<event>
 9    2  0.1654290E-004  0.8992446E+02  0.7546771E-02  0.1306932E+00
         21   -1    0    0  501  502  0.00000000000E+00  0.00000000000E+00  0.19980404864E+02  0.19980404864E+02  0.00000000000E+00 0.  1.
          2   -1    0    0  502    0 -0.00000000000E+00 -0.00000000000E+00 -0.14295490959E+04  0.14295490959E+04  0.00000000000E+00 0. -1.
         24    2    1    2    0    0  0.15999891626E+02 -0.23558778806E+02 -0.11910770417E+04  0.11939949334E+04  0.78411537045E+02 0.  0.
         23    2    1    2    0    0 -0.42977942323E+02  0.12707926792E+02 -0.19762683509E+03  0.21974495037E+03  0.84987542243E+02 0.  0.
        -11    1    3    3    0    0 -0.31294465716E+01 -0.21225042417E+02 -0.82301788883E+02  0.85052221105E+02  0.00000000000E+00 0.  1.
         12    1    3    3    0    0  0.19129338198E+02 -0.23337363885E+01 -0.11087752529E+04  0.11089427123E+04  0.00000000000E+00 0. -1.
        -13    1    4    4    0    0  0.72451200145E+01 -0.19500975860E+02 -0.10433151212E+02  0.23272955715E+02  0.00000000000E+00 0.  1.
         13    1    4    4    0    0 -0.50223062338E+02  0.32208902651E+02 -0.18719368388E+03  0.19647199466E+03  0.00000000000E+00 0. -1.
          1    1    1    2  501    0  0.26978050697E+02  0.10850852014E+02 -0.20864814189E+02  0.35789616930E+02  0.00000000000E+00 0. -1.
<scales pt_clust_5="13000.00000" pt_clust_6="13000.00000" pt_clust_7="13000.00000" pt_clust_8="13000.00000" pt_clust_9="29.07845"></scales>
<clustering>
<clus scale="   29.078">  1  9  2 -1</clus>
<clus scale="   78.412">  5  6 -1 -1</clus>
<clus scale="   83.737">  2  5  1 -1</clus>
<clus scale="   84.988">  7  8 -1 -1</clus>
<clus scale="   29.078">  1  5  2 -1</clus>
</clustering>
</event>
<event>
 9    2  0.1654290E-004  0.1339192E+03  0.7546771E-02  0.1222790E+00
         -1   -1    0    0    0  501 -0.00000000000E+00  0.00000000000E+00  0.42982062988E+02  0.42982062988E+02  0.00000000000E+00 0.  1.
         21   -1    0    0  501  502  0.00000000000E+00 -0.00000000000E+00 -0.67513724754E+03  0.67513724754E+03  0.00000000000E+00 0. -1.
         23    2    1    2    0    0  0.78872339646E+02  0.37201054759E+00 -0.18763372709E+03  0.22170096236E+03  0.87885816928E+02 0.  0.
         24    2    1    2    0    0 -0.13308998927E+03  0.23287331438E+02 -0.28459454029E+03  0.32590167206E+03  0.83442210180E+02 0.  0.
        -11    1    4    4    0    0 -0.12772543872E+03  0.25042038393E+02 -0.18528539702E+03  0.22643226301E+03  0.00000000000E+00 0.  1.
         12    1    4    4    0    0 -0.53645505454E+01 -0.17547069551E+01 -0.99309143278E+02  0.99469409054E+02  0.00000000000E+00 0. -1.
        -13    1    3    3    0    0  0.26856271698E+02 -0.37347917610E+02 -0.41053212213E+02  0.61656244715E+02  0.00000000000E+00 0. -1.
         13    1    3    3    0    0  0.52016067948E+02  0.37719928158E+02 -0.14658051487E+03  0.16004471764E+03  0.00000000000E+00 0.  1.
         -2    1    1    2    0  502  0.54217649624E+02 -0.23659341986E+02 -0.15992691717E+03  0.17051667610E+03  0.00000000000E+00 0.  1.
<scales pt_clust_5="13000.00000" pt_clust_6="13000.00000" pt_clust_7="13000.00000" pt_clust_8="13000.00000" pt_clust_9="59.15503"></scales>
<clustering>
<clus scale="   59.155">  2  9  1 -1</clus>
<clus scale="   83.442">  5  6 -1 -1</clus>
<clus scale="   87.886">  7  8 -1 -1</clus>
<clus scale="  131.046">  2  5  1 -1</clus>
<clus scale="   59.155">  2  5  1 -1</clus>
</clustering>
</event>
<event>
 9    2  0.1654290E-004  0.3354146E+03  0.7546771E-02  0.1094720E+00
         21   -1    0    0  501  502  0.00000000000E+00  0.00000000000E+00  0.67835921548E+03  0.67835921548E+03  0.00000000000E+00 0. -1.
          2   -1    0    0  502    0 -0.00000000000E+00 -0.00000000000E+00 -0.33455939041E+03  0.33455939041E+03  0.00000000000E+00 0. -1.
         23    2    1    2    0    0  0.62274476391E+02 -0.12285629104E+03 -0.85569461705E+02  0.18771170492E+03  0.94560947168E+02 0.  0.
         24    2    1    2    0    0 -0.25821964666E+03 -0.17990134978E+03  0.29909568466E+03  0.44176471467E+03  0.81584023971E+02 0.  0.
        -11    1    4    4    0    0 -0.10040180554E+03 -0.11736829837E+03  0.12609194049E+03  0.19938660305E+03  0.00000000000E+00 0.  1.
         12    1    4    4    0    0 -0.15781784112E+03 -0.62533051408E+02  0.17300374418E+03  0.24237811162E+03  0.00000000000E+00 0. -1.
        -13    1    3    3    0    0  0.27461928685E+01 -0.85259389972E+02 -0.80226133960E+02  0.11710225328E+03  0.00000000000E+00 0. -1.
         13    1    3    3    0    0  0.59528283522E+02 -0.37596901065E+02 -0.53433277448E+01  0.70609451635E+02  0.00000000000E+00 0.  1.
          1    1    1    2  501    0  0.19594517027E+03  0.30275764082E+03  0.13027360211E+03  0.38344218630E+03  0.00000000000E+00 0. -1.
<scales pt_clust_5="13000.00000" pt_clust_6="13000.00000" pt_clust_7="13000.00000" pt_clust_8="13000.00000" pt_clust_9="325.34152"></scales>
<clustering>
<clus scale="   81.584">  5  6 -1 -1</clus>
<clus scale="   94.561">  7  8 -1 -1</clus>
<clus scale="  167.073">  2  7  1 -1</clus>
<clus scale="  325.342">  1  9  2 -1</clus>
<clus scale="  325.342">  1  5  2 -1</clus>
</clustering>
</event>
<event>
 9    2  0.1654290E-004  0.1845192E+03  0.7546771E-02  0.1164866E+00
         21   -1    0    0  501  502  0.00000000000E+00  0.00000000000E+00  0.89428151426E+03  0.89428151426E+03  0.00000000000E+00 0. -1.
          2   -1    0    0  502    0 -0.00000000000E+00 -0.00000000000E+00 -0.58668868427E+02  0.58668868427E+02  0.00000000000E+00 0. -1.
         23    2    1    2    0    0  0.15063579471E+03 -0.75791102542E+02  0.23765630148E+03  0.30561934823E+03  0.92126187978E+02 0.  0.
         24    2    1    2    0    0 -0.14165388505E+03  0.29525168125E+02  0.56778095155E+03  0.59136885330E+03  0.80027201694E+02 0.  0.
        -13    1    4    4    0    0 -0.88194309325E+01  0.31184420937E+02  0.10332969720E+03  0.10829255189E+03  0.00000000000E+00 0.  1.
         14    1    4    4    0    0 -0.13283445412E+03 -0.16592528119E+01  0.46445125435E+03  0.48307630141E+03  0.00000000000E+00 0. -1.
        -11    1    3    3    0    0  0.84370673210E+02 -0.60091590992E+02  0.20588413795E+03  0.23047274908E+03  0.00000000000E+00 0. -1.
         11    1    3    3    0    0  0.66265121497E+02 -0.15699511550E+02  0.31772163523E+02  0.75146599157E+02  0.00000000000E+00 0.  1.
          1    1    1    2  501    0 -0.89819096566E+01  0.46265934417E+02  0.30175392812E+02  0.55962181158E+02  0.00000000000E+00 0. -1.
<scales pt_clust_5="13000.00000" pt_clust_6="13000.00000" pt_clust_7="13000.00000" pt_clust_8="13000.00000" pt_clust_9="47.12975"></scales>
<clustering>
<clus scale="   47.130">  1  9  2 -1</clus>
<clus scale="   80.027">  5  6 -1 -1</clus>
<clus scale="   92.126">  7  8 -1 -1</clus>
<clus scale="  178.786">  1  5  2 -1</clus>
<clus scale="   47.130">  1  5  2 -1</clus>
</clustering>
</event>
<event>
 9    2  0.1654290E-004  0.3147405E+03  0.7546771E-02  0.1078096E+00
         21   -1    0    0  501  502  0.00000000000E+00  0.00000000000E+00  0.16288500647E+03  0.16288500647E+03  0.00000000000E+00 0.  1.
          2   -1    0    0  502    0 -0.00000000000E+00 -0.00000000000E+00 -0.96084277221E+03  0.96084277221E+03  0.00000000000E+00 0. -1.
         24    2    1    2    0    0 -0.18172313075E+03  0.43252095004E+02  0.39469528135E+02  0.20801380278E+03  0.82570324707E+02 0.  0.
         23    2    1    2    0    0 -0.15615073916E+02 -0.86356237904E+01 -0.53987218320E+02  0.10706138110E+03  0.90714469906E+02 0.  0.
        -11    1    3    3    0    0 -0.36877836527E+02  0.29975371993E+02  0.40679100591E+02  0.62556270492E+02  0.00000000000E+00 0.  1.
         12    1    3    3    0    0 -0.14484529423E+03  0.13276723011E+02 -0.12095724555E+01  0.14545753229E+03  0.00000000000E+00 0. -1.
        -13    1    4    4    0    0 -0.12783373154E+02 -0.49551324188E+02 -0.25922040663E+02  0.57364628040E+02  0.00000000000E+00 0. -1.
         13    1    4    4    0    0 -0.28317007615E+01  0.40915700398E+02 -0.28065177657E+02  0.49696753065E+02  0.00000000000E+00 0.  1.
          1    1    1    2  501    0  0.19733820467E+03 -0.34616471214E+02 -0.78344007555E+03  0.80865259480E+03  0.00000000000E+00 0. -1.
<scales pt_clust_5="13000.00000" pt_clust_6="13000.00000" pt_clust_7="13000.00000" pt_clust_8="13000.00000" pt_clust_9="200.35146"></scales>
<clustering>
<clus scale="   82.570">  5  6 -1 -1</clus>
<clus scale="   90.714">  7  8 -1 -1</clus>
<clus scale="   91.679">  5  7 -1 -1</clus>
<clus scale="  200.351">  1  9  2 -1</clus>
<clus scale="  200.351">  1  5  2 -1</clus>
</clustering>
</event>
<event>
 9    2  0.1654290E-004  0.1140249E+03  0.7546771E-02  0.1257532E+00
         -3   -1    0    0    0  501 -0.00000000000E+00  0.00000000000E+00  0.21176284134E+03  0.21176284134E+03  0.00000000000E+00 0.  1.
         21   -1    0    0  501  502  0.00000000000E+00 -0.00000000000E+00 -0.12622911636E+03  0.12622911636E+03  0.00000000000E+00 0.  1.
         23    2    1    2    0    0  0.51387355842E+02  0.42815764150E+02  0.11575830178E+03  0.16122679813E+03  0.90112407606E+02 0.  0.
         24    2    1    2    0    0 -0.22730249993E+02 -0.86388545117E+02 -0.49349656398E+01  0.11880498886E+03  0.78170496346E+02 0.  0.
        -13    1    4    4    0    0  0.27922306974E+02 -0.40587046273E+02  0.60616488909E+01  0.49635744572E+02  0.00000000000E+00 0.  1.
         14    1    4    4    0    0 -0.50652556968E+02 -0.45801498844E+02 -0.10996614531E+02  0.69169244284E+02  0.00000000000E+00 0. -1.
        -13    1    3    3    0    0  0.76995133191E+02  0.30805455050E+02  0.95233782158E+02  0.12628024335E+03  0.00000000000E+00 0.  1.
         13    1    3    3    0    0 -0.25607777350E+02  0.12010309100E+02  0.20524519621E+02  0.34946554782E+02  0.00000000000E+00 0. -1.
         -4    1    1    2    0  502 -0.28657105848E+02  0.43572780967E+02 -0.25289611152E+02  0.57960170713E+02  0.00000000000E+00 0.  1.
<scales pt_clust_5="13000.00000" pt_clust_6="13000.00000" pt_clust_7="13000.00000" pt_clust_8="13000.00000" pt_clust_9="52.15186"></scales>
<clustering>
<clus scale="   52.152">  2  9  1 -1</clus>
<clus scale="   78.170">  5  6 -1 -1</clus>
<clus scale="   90.112">  7  8 -1 -1</clus>
<clus scale="  104.843">  2  5  1 -1</clus>
<clus scale="   52.152">  2  5  1 -1</clus>
</clustering>
</event>
<event>
 9    2  0.1654290E-004  0.9813515E+02  0.7546771E-02  0.1290473E+00
         21   -1    0    0  501  502  0.00000000000E+00  0.00000000000E+00  0.66875207197E+02  0.66875207197E+02  0.00000000000E+00 0.  1.
          2   -1    0    0  502    0 -0.00000000000E+00 -0.00000000000E+00 -0.23385804738E+03  0.23385804738E+03  0.00000000000E+00 0. -1.
         23    2    1    2    0    0  0.96580403735E+01  0.84653140567E+01 -0.75643943288E+02  0.12060845217E+03  0.93056183522E+02 0.  0.
         24    2    1    2    0    0  0.12455879230E+02 -0.55659938040E+02 -0.77639415833E+02  0.12623571488E+03  0.81574500866E+02 0.  0.
        -13    1    4    4    0    0 -0.11163936272E+02 -0.33737913749E+02  0.65086820336E+01  0.36128150230E+02  0.00000000000E+00 0.  1.
         14    1    4    4    0    0  0.23619815502E+02 -0.21922024291E+02 -0.84148097867E+02  0.90107564654E+02  0.00000000000E+00 0. -1.
        -11    1    3    3    0    0 -0.30166453808E+02  0.19737305664E+02 -0.19685369267E+01  0.36103342059E+02  0.00000000000E+00 0. -1.
         11    1    3    3    0    0  0.39824494181E+02 -0.11271991608E+02 -0.73675406361E+02  0.84505110106E+02  0.00000000000E+00 0.  1.
          1    1    1    2  501    0 -0.22113919603E+02  0.47194623983E+02 -0.13699481062E+02  0.53889087527E+02  0.00000000000E+00 0. -1.
<scales pt_clust_5="13000.00000" pt_clust_6="13000.00000" pt_clust_7="13000.00000" pt_clust_8="13000.00000" pt_clust_9="52.11869"></scales>
<clustering>
<clus scale="   52.119">  1  9  2 -1</clus>
<clus scale="   81.575">  5  6 -1 -1</clus>
<clus scale="   87.324">  1  5  2 -1</clus>
<clus scale="   93.056">  7  8 -1 -1</clus>
<clus scale="   52.119">  1  5  2 -1</clus>
</clustering>
</event>
<event>
 9    2  0.1654290E-004  0.1018309E+03  0.7546771E-02  0.1281298E+00
         21   -1    0    0  501  502  0.00000000000E+00  0.00000000000E+00  0.16775612464E+03  0.16775612464E+03  0.00000000000E+00 0.  1.
          2   -1    0    0  502    0 -0.00000000000E+00 -0.00000000000E+00 -0.19905223176E+03  0.19905223176E+03  0.00000000000E+00 0. -1.
         23    2    1    2    0    0 -0.45265391067E+02  0.31455784923E+02 -0.14543164409E+03  0.18049043003E+03  0.91586080802E+02 0.  0.
         24    2    1    2    0    0  0.66872318236E+01  0.18411332997E+02  0.58851838261E+02  0.10246513177E+03  0.81558985465E+02 0.  0.
        -13    1    4    4    0    0 -0.43862572782E+01  0.39611184212E+02  0.66350549940E+02  0.77399487369E+02  0.00000000000E+00 0.  1.
         14    1    4    4    0    0  0.11073489102E+02 -0.21199851216E+02 -0.74987116794E+01  0.25065644402E+02  0.00000000000E+00 0. -1.
        -13    1    3    3    0    0  0.23702209062E+02 -0.43087585479E+01 -0.14136456026E+02  0.27932051547E+02  0.00000000000E+00 0. -1.
         13    1    3    3    0    0 -0.68967600129E+02  0.35764543471E+02 -0.13129518806E+03  0.15255837848E+03  0.00000000000E+00 0.  1.
          1    1    1    2  501    0  0.38578159244E+02 -0.49867117920E+02  0.55283698707E+02  0.83852794605E+02  0.00000000000E+00 0. -1.
<scales pt_clust_5="13000.00000" pt_clust_6="13000.00000" pt_clust_7="13000.00000" pt_clust_8="13000.00000" pt_clust_9="63.04763"></scales>
<clustering>
<clus scale="   63.048">  1  9  2 -1</clus>
<clus scale="   81.559">  5  6 -1 -1</clus>
<clus scale="   91.586">  7  8 -1 -1</clus>
<clus scale="   92.916">  1  5  2 -1</clus>
<clus scale="   63.048">  1  5  2 -1</clus>
</clustering>
</event>
<event>
 9    2  0.1654290E-004  0.3108903E+03  0.7546771E-02  0.1110796E+00
         21   -1    0    0  501  502  0.00000000000E+00  0.00000000000E+00  0.74837091301E+02  0.74837091301E+02  0.00000000000E+00 0.  1.
         -1   -1    0    0    0  501 -0.00000000000E+00 -0.00000000000E+00 -0.20401456764E+04  0.20401456764E+04  0.00000000000E+00 0.  1.
         24    2    1    2    0    0 -0.89116128131E+02  0.68159407535E+02 -0.21444313824E+03  0.25530480298E+03  0.81285261643E+02 0.  0.
         23    2    1    2    0    0 -0.24641758802E+03 -0.34013778931E+01 -0.10255457829E+04  0.10578892819E+04  0.81562140318E+02 0.  0.
        -13    1    3    3    0    0 -0.85183601618E+02  0.52320996273E+02 -0.10624391970E+03  0.14588181212E+03  0.00000000000E+00 0.  1.
         14    1    3    3    0    0 -0.39325265130E+01  0.15838411262E+02 -0.10819921854E+03  0.10942299086E+03  0.00000000000E+00 0. -1.
        -13    1    4    4    0    0 -0.18545529661E+03 -0.32593246547E+02 -0.66904476357E+03  0.69503732448E+03  0.00000000000E+00 0.  1.
         13    1    4    4    0    0 -0.60962291408E+02  0.29191868654E+02 -0.35650101937E+03  0.36285195739E+03  0.00000000000E+00 0. -1.
         -2    1    1    2    0  502  0.33553371615E+03 -0.64758029642E+02 -0.72531966393E+03  0.80178868286E+03  0.00000000000E+00 0.  1.
<scales pt_clust_5="13000.00000" pt_clust_6="13000.00000" pt_clust_7="13000.00000" pt_clust_8="13000.00000" pt_clust_9="300.00064"></scales>
<clustering>
<clus scale="   81.285">  5  6 -1 -1</clus>
<clus scale="   81.562">  7  8 -1 -1</clus>
<clus scale="  138.545">  2  5  1 -1</clus>
<clus scale="  300.001">  1  9  2 -1</clus>
<clus scale="  300.001">  1  5  2 -1</clus>
</clustering>
</event>
<event>
 9    2  0.1654290E-004  0.1126975E+03  0.7546771E-02  0.1259851E+00
         21   -1    0    0  501  502  0.00000000000E+00  0.00000000000E+00  0.19111472044E+02  0.19111472044E+02  0.00000000000E+00 0. -1.
          2   -1    0    0  502    0 -0.00000000000E+00 -0.00000000000E+00 -0.10032372687E+04  0.10032372687E+04  0.00000000000E+00 0. -1.
         24    2    1    2    0    0  0.69339936310E+02  0.58747262783E+01 -0.61536426941E+03  0.62468826598E+03  0.81973815357E+02 0.  0.
         23    2    1    2    0    0 -0.48361601459E+02 -0.29198077102E+02 -0.33170284497E+03  0.34910725491E+03  0.93046901433E+02 0.  0.
        -13    1    3    3    0    0  0.71024142446E+02  0.25232622213E+02 -0.32294690358E+03  0.33162601913E+03  0.00000000000E+00 0.  1.
         14    1    3    3    0    0 -0.16842061357E+01 -0.19357895935E+02 -0.29241736583E+03  0.29306224685E+03  0.00000000000E+00 0. -1.
        -11    1    4    4    0    0  0.18108362143E+02 -0.25346247812E+02 -0.44705282162E+02  0.54487680359E+02  0.00000000000E+00 0. -1.
         11    1    4    4    0    0 -0.66469963602E+02 -0.38518292895E+01 -0.28699756281E+03  0.29461957455E+03  0.00000000000E+00 0.  1.
          1    1    1    2  501    0 -0.20978334851E+02  0.23323350824E+02 -0.37058682271E+02  0.48553219856E+02  0.00000000000E+00 0. -1.
<scales pt_clust_5="13000.00000" pt_clust_6="13000.00000" pt_clust_7="13000.00000" pt_clust_8="13000.00000" pt_clust_9="31.36988"></scales>
<clustering>
<clus scale="   31.370">  1  9  2 -1</clus>
<clus scale="   81.974">  5  6 -1 -1</clus>
<clus scale="   93.047">  7  8 -1 -1</clus>
<clus scale="  103.744">  2  5  1 -1</clus>
<clus scale="   31.370">  1  5  2 -1</clus>
</clustering>
</event>
<event>
 9    2  0.1654290E-004  0.9164934E+02  0.7546771E-02  0.1300599E+00
         21   -1    0    0  501  502  0.00000000000E+00  0.00000000000E+00  0.10392621868E+03  0.10392621868E+03  0.00000000000E+00 0. -1.
          2   -1    0    0  502    0 -0.00000000000E+00 -0.00000000000E+00 -0.39140815033E+03  0.39140815033E+03  0.00000000000E+00 0. -1.
         24    2    1    2    0    0  0.83119241988E+01 -0.35444150622E+02 -0.27608529454E+03  0.28955545259E+03  0.79334068150E+02 0.  0.
         23    2    1    2    0    0  0.42651099219E+01  0.53546343453E+02 -0.84314404654E+02  0.12960233210E+03  0.82476927650E+02 0.  0.
        -11    1    3    3    0    0 -0.15365336184E+02 -0.31431898021E+02 -0.43921691459E+02  0.56153118790E+02  0.00000000000E+00 0.  1.
         12    1    3    3    0    0  0.23677260383E+02 -0.40122526011E+01 -0.23216360308E+03  0.23340233380E+03  0.00000000000E+00 0. -1.
        -13    1    4    4    0    0 -0.22271679113E+02  0.63430804037E+02 -0.44036706592E+02  0.80366200102E+02  0.00000000000E+00 0.  1.
         13    1    4    4    0    0  0.26536789035E+02 -0.98844605843E+01 -0.40277698062E+02  0.49236132002E+02  0.00000000000E+00 0. -1.
          1    1    1    2  501    0 -0.12577034121E+02 -0.18102192831E+02  0.72917767547E+02  0.76176584306E+02  0.00000000000E+00 0. -1.
<scales pt_clust_5="13000.00000" pt_clust_6="13000.00000" pt_clust_7="13000.00000" pt_clust_8="13000.00000" pt_clust_9="22.04249"></scales>
<clustering>
<clus scale="   22.042">  1  9  2 -1</clus>
<clus scale="   79.334">  5  6 -1 -1</clus>
<clus scale="   82.477">  7  8 -1 -1</clus>
<clus scale="   88.832">  2  5  1 -1</clus>
<clus scale="   22.042">  1  5  2 -1</clus>
</clustering>
</event>
<event>
 9    2  0.1876540E-004  0.9793580E+02  0.7546771E-02  0.1289113E+00
          2   -1    0    0  502    0 -0.00000000000E+00  0.00000000000E+00  0.22485097350E+03  0.22485097350E+03  0.00000000000E+00 0. -1.
         21   -1    0    0  501  502  0.00000000000E+00 -0.00000000000E+00 -0.36954998699E+03  0.36954998699E+03  0.00000000000E+00 0. -1.
         23    2    1    2    0    0 -0.28642376797E+02  0.27978358449E+02  0.19360333902E+03  0.21724708295E+03  0.90060356878E+02 0.  0.
         24    2    1    2    0    0 -0.80809093737E+01 -0.39512478581E+02 -0.97610042719E+02  0.13340313668E+03  0.81499321319E+02 0.  0.
        -11    1    4    4    0    0  0.23591392990E+02  0.40658778800E+01 -0.67649461581E+02  0.71760259464E+02  0.00000000000E+00 0.  1.
         12    1    4    4    0    0 -0.31672302363E+02 -0.43578356461E+02 -0.29960581137E+02  0.61642877212E+02  0.00000000000E+00 0. -1.
        -11    1    3    3    0    0 -0.30615031469E+02 -0.16599645419E+02  0.15301172111E+03  0.15692487113E+03  0.00000000000E+00 0. -1.
         11    1    3    3    0    0  0.19726546725E+01  0.44578003868E+02  0.40591617910E+02  0.60322211828E+02  0.00000000000E+00 0.  1.
          1    1    1    2  501    0  0.36723286171E+02  0.11534120132E+02 -0.24069230980E+03  0.24375074086E+03  0.00000000000E+00 0. -1.
<scales pt_clust_5="13000.00000" pt_clust_6="13000.00000" pt_clust_7="13000.00000" pt_clust_8="13000.00000" pt_clust_9="38.49202"></scales>
<clustering>
<clus scale="   38.492">  2  9  1 -1</clus>
<clus scale="   81.499">  5  6 -1 -1</clus>
<clus scale="   90.060">  7  8 -1 -1</clus>
<clus scale="   90.126">  2  5  1 -1</clus>
<clus scale="   38.492">  2  5  1 -1</clus>
</clustering>
</event>
<event>
 9    2  0.1654290E-004  0.2167441E+03  0.7546771E-02  0.1149643E+00
         21   -1    0    0  501  502  0.00000000000E+00  0.00000000000E+00  0.85304591597E+03  0.85304591597E+03  0.00000000000E+00 0.  1.
          2   -1    0    0  502    0 -0.00000000000E+00 -0.00000000000E+00 -0.16268481980E+03  0.16268481980E+03  0.00000000000E+00 0. -1.
         24    2    1    2    0    0 -0.85200648566E+02 -0.10531420070E+03  0.51804411943E+03  0.54145558944E+03  0.80338124632E+02 0.  0.
         23    2    1    2    0    0  0.56374022305E+02 -0.13048378077E+03 -0.16922497653E+02  0.17055942215E+03  0.92736713993E+02 0.  0.
        -11    1    3    3    0    0 -0.77718389065E+02 -0.11389611505E+03  0.40477768143E+03  0.42761833965E+03  0.00000000000E+00 0.  1.
         12    1    3    3    0    0 -0.74822595004E+01  0.85819143478E+01  0.11326643801E+03  0.11383724979E+03  0.00000000000E+00 0. -1.
        -11    1    4    4    0    0  0.78613712058E+02 -0.71172919411E+02 -0.54514724002E+01  0.10618577462E+03  0.00000000000E+00 0.  1.
         11    1    4    4    0    0 -0.22239689752E+02 -0.59310861364E+02 -0.11471025253E+02  0.64373647530E+02  0.00000000000E+00 0. -1.
          1    1    1    2  501    0  0.28826626260E+02  0.23579798148E+03  0.18923947439E+03  0.30371572419E+03  0.00000000000E+00 0. -1.
<scales pt_clust_5="13000.00000" pt_clust_6="13000.00000" pt_clust_7="13000.00000" pt_clust_8="13000.00000" pt_clust_9="195.90281"></scales>
<clustering>
<clus scale="   80.338">  5  6 -1 -1</clus>
<clus scale="   92.737">  7  8 -1 -1</clus>
<clus scale="  157.494">  2  5  1 -1</clus>
<clus scale="  195.903">  1  9  2 -1</clus>
<clus scale="  195.903">  1  5  2 -1</clus>
</clustering>
</event>
<event>
 9    2  0.1654290E-004  0.1272272E+03  0.7546771E-02  0.1232110E+00
          2   -1    0    0  502    0 -0.00000000000E+00  0.00000000000E+00  0.72526675597E+02  0.72526675597E+02  0.00000000000E+00 0. -1.
         21   -1    0    0  501  502  0.00000000000E+00 -0.00000000000E+00 -0.47303981759E+03  0.47303981759E+03  0.00000000000E+00 0.  1.
         23    2    1    2    0    0  0.34009470287E+02 -0.60304892292E+02 -0.14037888948E+03  0.17703464964E+03  0.82714632681E+02 0.  0.
         24    2    1    2    0    0 -0.10451258655E+03  0.98717447013E+02 -0.22949527407E+03  0.28259604912E+03  0.80773950407E+02 0.  0.
        -11    1    4    4    0    0 -0.82135604290E+02  0.10095907730E+03 -0.14359271684E+03  0.19379850647E+03  0.00000000000E+00 0.  1.
         12    1    4    4    0    0 -0.22376982262E+02 -0.22416302848E+01 -0.85902557234E+02  0.88797542650E+02  0.00000000000E+00 0. -1.
        -13    1    3    3    0    0  0.28157597737E+02 -0.45725755560E+01 -0.10928649504E+03  0.11294820386E+03  0.00000000000E+00 0. -1.
         13    1    3    3    0    0  0.58518725500E+01 -0.55732316736E+02 -0.31092394440E+02  0.64086445783E+02  0.00000000000E+00 0.  1.
          1    1    1    2  501    0  0.70503116265E+02 -0.38412554721E+02 -0.30638978442E+02  0.85935794424E+02  0.00000000000E+00 0. -1.
<scales pt_clust_5="13000.00000" pt_clust_6="13000.00000" pt_clust_7="13000.00000" pt_clust_8="13000.00000" pt_clust_9="80.28836"></scales>
<clustering>
<clus scale="   80.288">  2  9  1 -1</clus>
<clus scale="   80.774">  5  6 -1 -1</clus>
<clus scale="   82.715">  7  8 -1 -1</clus>
<clus scale="  125.974">  2  5  1 -1</clus>
<clus scale="   80.288">  2  5  1 -1</clus>
</clustering>
</event>
<event>
 9    2  0.1654290E-004  0.1915429E+03  0.7546771E-02  0.1158179E+00
         21   -1    0    0  501  502  0.00000000000E+00  0.00000000000E+00  0.75155942749E+03  0.75155942749E+03  0.00000000000E+00 0. -1.
         -3   -1    0    0    0  501 -0.00000000000E+00 -0.00000000000E+00 -0.17290824899E+03  0.17290824899E+03  0.00000000000E+00 0.  1.
         23    2    1    2    0    0  0.15627178258E+03  0.52941271381E+02 -0.87441051226E+02  0.20777754563E+03  0.91114887817E+02 0.  0.
         24    2    1    2    0    0 -0.19927642175E+03 -0.36209758631E+02  0.53284742498E+03  0.57568119320E+03  0.80375487568E+02 0.  0.
        -13    1    4    4    0    0 -0.95559808360E+01 -0.20124846551E+02  0.25934868995E+02  0.34189817903E+02  0.00000000000E+00 0.  1.
         14    1    4    4    0    0 -0.18972044091E+03 -0.16084912080E+02  0.50691255599E+03  0.54149137529E+03  0.00000000000E+00 0. -1.
        -13    1    3    3    0    0  0.36443098550E+02  0.54718935614E+02 -0.48744447771E+02  0.81843035960E+02  0.00000000000E+00 0. -1.
         13    1    3    3    0    0  0.11982868403E+03 -0.17776642333E+01 -0.38696603455E+02  0.12593450967E+03  0.00000000000E+00 0.  1.
         -4    1    1    2    0  502  0.43004639165E+02 -0.16731512750E+02  0.13324480474E+03  0.14100893765E+03  0.00000000000E+00 0.  1.
<scales pt_clust_5="13000.00000" pt_clust_6="13000.00000" pt_clust_7="13000.00000" pt_clust_8="13000.00000" pt_clust_9="46.14480"></scales>
<clustering>
<clus scale="   46.145">  1  9  2 -1</clus>
<clus scale="   80.375">  5  6 -1 -1</clus>
<clus scale="   91.115">  7  8 -1 -1</clus>
<clus scale="  186.674">  1  5  2 -1</clus>
<clus scale="   46.145">  1  5  2 -1</clus>
</clustering>
</event>
<event>
 9    2  0.1654290E-004  0.1805059E+03  0.7546771E-02  0.1168162E+00
         21   -1    0    0  501  502  0.00000000000E+00  0.00000000000E+00  0.13232131802E+03  0.13232131802E+03  0.00000000000E+00 0. -1.
          2   -1    0    0  502    0 -0.00000000000E+00 -0.00000000000E+00 -0.49916678398E+03  0.49916678398E+03  0.00000000000E+00 0. -1.
         23    2    1    2    0    0 -0.83408186686E+02 -0.71922947756E+02 -0.11445306113E+03  0.18296215495E+03  0.90806447577E+02 0.  0.
         24    2    1    2    0    0  0.17385055926E+03  0.13531028683E+03 -0.24169306551E+03  0.33756535327E+03  0.83677590434E+02 0.  0.
        -11    1    4    4    0    0  0.63208061825E+01  0.44639466231E+02 -0.42824688291E+02  0.62181898197E+02  0.00000000000E+00 0.  1.
         12    1    4    4    0    0  0.16752975308E+03  0.90670820595E+02 -0.19886837722E+03  0.27538345508E+03  0.00000000000E+00 0. -1.
        -13    1    3    3    0    0 -0.33733288951E+02 -0.57644016241E+02 -0.11299175102E+03  0.13125510729E+03  0.00000000000E+00 0.  1.
         13    1    3    3    0    0 -0.49674897735E+02 -0.14278931515E+02 -0.14613101102E+01  0.51707047657E+02  0.00000000000E+00 0. -1.
          1    1    1    2  501    0 -0.90442372572E+02 -0.63387339069E+02 -0.10699339324E+02  0.11096059378E+03  0.00000000000E+00 0. -1.
<scales pt_clust_5="13000.00000" pt_clust_6="13000.00000" pt_clust_7="13000.00000" pt_clust_8="13000.00000" pt_clust_9="110.44355"></scales>
<clustering>
<clus scale="   83.678">  5  6 -1 -1</clus>
<clus scale="   90.806">  7  8 -1 -1</clus>
<clus scale="  110.444">  1  9  2 -1</clus>
<clus scale="  177.027">  1  5  2 -1</clus>
<clus scale="  110.444">  1  5  2 -1</clus>
</clustering>
</event>
<event>
 9    2  0.1654290E-004  0.9401402E+02  0.7546771E-02  0.1295598E+00
          2   -1    0    0  502    0 -0.00000000000E+00  0.00000000000E+00  0.46906875728E+03  0.46906875728E+03  0.00000000000E+00 0. -1.
         21   -1    0    0  501  502  0.00000000000E+00 -0.00000000000E+00 -0.46290696433E+02  0.46290696433E+02  0.00000000000E+00 0.  1.
         24    2    1    2    0    0  0.12977278007E+02 -0.37593116134E+02  0.36700541708E+03  0.37838967799E+03  0.83091035119E+02 0.  0.
         23    2    1    2    0    0 -0.22551073691E+02  0.39400924066E+01  0.39366029778E+02  0.98325752224E+02  0.87144672798E+02 0.  0.
        -11    1    3    3    0    0  0.26180733497E+02  0.17421264078E+02  0.82006511054E+02  0.87829374948E+02  0.00000000000E+00 0.  1.
         12    1    3    3    0    0 -0.13203455490E+02 -0.55014380211E+02  0.28499890603E+03  0.29056030304E+03  0.00000000000E+00 0. -1.
        -11    1    4    4    0    0  0.11126817228E+02  0.26848218672E+02  0.48539510960E+02  0.56574879865E+02  0.00000000000E+00 0. -1.
         11    1    4    4    0    0 -0.33677890919E+02 -0.22908126265E+02 -0.91734811822E+01  0.41750872359E+02  0.00000000000E+00 0.  1.
          1    1    1    2  501    0  0.95737956840E+01  0.33653023727E+02  0.16406613988E+02  0.38644023501E+02  0.00000000000E+00 0. -1.
<scales pt_clust_5="13000.00000" pt_clust_6="13000.00000" pt_clust_7="13000.00000" pt_clust_8="13000.00000" pt_clust_9="34.98833"></scales>
<clustering>
<clus scale="   34.988">  2  9  1 -1</clus>
<clus scale="   83.091">  5  6 -1 -1</clus>
<clus scale="   87.145">  7  8 -1 -1</clus>
<clus scale="   90.269">  1  5  2 -1</clus>
<clus scale="   34.988">  2  5  1 -1</clus>
</clustering>
</event>
<event>
 9    2  0.1654290E-004  0.1027983E+03  0.7546771E-02  0.1279749E+00
         21   -1    0    0  501  502  0.00000000000E+00  0.00000000000E+00  0.56276962282E+02  0.56276962282E+02  0.00000000000E+00 0. -1.
         -1   -1    0    0    0  501 -0.00000000000E+00 -0.00000000000E+00 -0.24099145552E+03  0.24099145552E+03  0.00000000000E+00 0.  1.
         24    2    1    2    0    0  0.53791485126E+02 -0.14670747016E+02 -0.10524238483E+03  0.14334433048E+03  0.79767680332E+02 0.  0.
         23    2    1    2    0    0 -0.26387945142E+02  0.31209798634E+02 -0.57992787984E+02  0.11537729189E+03  0.90985607909E+02 0.  0.
        -13    1    3    3    0    0  0.90461788514E+01 -0.30396937700E+02 -0.86876300127E+02  0.92484045635E+02  0.00000000000E+00 0.  1.
         14    1    3    3    0    0  0.44745306274E+02  0.15726190683E+02 -0.18366084703E+02  0.50860284843E+02  0.00000000000E+00 0. -1.
        -11    1    4    4    0    0  0.11845897170E+02 -0.27239567441E+02 -0.14042798756E+02  0.32856042231E+02  0.00000000000E+00 0.  1.
         11    1    4    4    0    0 -0.38233842312E+02  0.58449366075E+02 -0.43949989227E+02  0.82521249661E+02  0.00000000000E+00 0. -1.
         -2    1    1    2    0  502 -0.27403539984E+02 -0.16539051617E+02 -0.21479320420E+02  0.38546795428E+02  0.00000000000E+00 0.  1.
<scales pt_clust_5="13000.00000" pt_clust_6="13000.00000" pt_clust_7="13000.00000" pt_clust_8="13000.00000" pt_clust_9="32.00772"></scales>
<clustering>
<clus scale="   32.008">  1  9  2 -1</clus>
<clus scale="   79.768">  5  6 -1 -1</clus>
<clus scale="   90.986">  7  8 -1 -1</clus>
<clus scale="   93.016">  2  5  1 -1</clus>
<clus scale="   32.008">  1  5  2 -1</clus>
</clustering>
</event>
<event>
 9    2  0.1654290E-004  0.1862566E+03  0.7546771E-02  0.1196027E+00
          2   -1    0    0  502    0 -0.00000000000E+00  0.00000000000E+00  0.20283492146E+03  0.20283492146E+03  0.00000000000E+00 0. -1.
         21   -1    0    0  501  502  0.00000000000E+00 -0.00000000000E+00 -0.65839849348E+03  0.65839849348E+03  0.00000000000E+00 0. -1.
         24    2    1    2    0    0 -0.14041210127E+02  0.25080207137E+02 -0.11994588475E+03  0.14777482382E+03  0.81389255531E+02 0.  0.
         23    2    1    2    0    0  0.13783818719E+03 -0.12694881957E+03  0.11293738184E+03  0.23711359454E+03  0.91392756056E+02 0.  0.
        -11    1    3    3    0    0 -0.42982493237E+02 -0.63388049082E+01 -0.56109582307E+02  0.70964500979E+02  0.00000000000E+00 0.  1.
         12    1    3    3    0    0  0.28941283110E+02  0.31419012046E+02 -0.63836302440E+02  0.76810322843E+02  0.00000000000E+00 0. -1.
        -13    1    4    4    0    0  0.34730098715E+02  0.10468702851E+02  0.14138044864E+02  0.38931450124E+02  0.00000000000E+00 0.  1.
         13    1    4    4    0    0  0.10310808847E+03 -0.13741752242E+03  0.98799336978E+02  0.19818214442E+03  0.00000000000E+00 0. -1.
          1    1    1    2  501    0 -0.12379697706E+03  0.10186861244E+03 -0.44855506912E+03  0.47634499657E+03  0.00000000000E+00 0. -1.
<scales pt_clust_5="13000.00000" pt_clust_6="13000.00000" pt_clust_7="13000.00000" pt_clust_8="13000.00000" pt_clust_9="162.29261"></scales>
<clustering>
<clus scale="   81.389">  5  6 -1 -1</clus>
<clus scale="   86.316">  1  5  2 -1</clus>
<clus scale="   91.393">  7  8 -1 -1</clus>
<clus scale="  162.293">  2  9  1 -1</clus>
<clus scale="  162.293">  2  5  1 -1</clus>
</clustering>
</event>
<event>
 9    2  0.1654290E-004  0.1143052E+03  0.7546771E-02  0.1256609E+00
         -1   -1    0    0    0  501 -0.00000000000E+00  0.00000000000E+00  0.18855013685E+03  0.18855013685E+03  0.00000000000E+00 0.  1.
         21   -1    0    0  501  502  0.00000000000E+00 -0.00000000000E+00 -0.20392758120E+03  0.20392758120E+03  0.00000000000E+00 0. -1.
         23    2    1    2    0    0  0.16819181216E+02  0.74516175369E+02  0.14058700649E+03  0.18450302210E+03  0.91875532779E+02 0.  0.
         24    2    1    2    0    0  0.26675292532E+01 -0.31751035430E+02 -0.78757144918E+02  0.11758909329E+03  0.81297374017E+02 0.  0.
        -13    1    4    4    0    0 -0.34972517797E+02 -0.16156213413E+02 -0.63122212380E+02  0.73949401138E+02  0.00000000000E+00 0.  1.
         14    1    4    4    0    0  0.37640047050E+02 -0.15594822016E+02 -0.15634932538E+02  0.43639692152E+02  0.00000000000E+00 0. -1.
        -13    1    3    3    0    0 -0.10274018293E+02  0.59391745563E+02  0.14113782127E+03  0.15346927864E+03  0.00000000000E+00 0.  1.
         13    1    3    3    0    0  0.27093199509E+02  0.15124429806E+02 -0.55081478071E+00  0.31033743466E+02  0.00000000000E+00 0. -1.
         -2    1    1    2    0  502 -0.19486710469E+02 -0.42765139940E+02 -0.77207305927E+02  0.90385602656E+02  0.00000000000E+00 0.  1.
<scales pt_clust_5="13000.00000" pt_clust_6="13000.00000" pt_clust_7="13000.00000" pt_clust_8="13000.00000" pt_clust_9="46.99563"></scales>
<clustering>
<clus scale="   46.996">  2  9  1 -1</clus>
<clus scale="   81.297">  5  6 -1 -1</clus>
<clus scale="   91.876">  7  8 -1 -1</clus>
<clus scale="  105.990">  2  5  1 -1</clus>
<clus scale="   46.996">  2  5  1 -1</clus>
</clustering>
</event>
<event>
 9    2  0.1654290E-004  0.1478384E+03  0.7546771E-02  0.1230847E+00
          2   -1    0    0  502    0 -0.00000000000E+00  0.00000000000E+00  0.41282368485E+03  0.41282368485E+03  0.00000000000E+00 0. -1.
         21   -1    0    0  501  502  0.00000000000E+00 -0.00000000000E+00 -0.34186984182E+03  0.34186984182E+03  0.00000000000E+00 0. -1.
         24    2    1    2    0    0 -0.59124104220E+01 -0.14269954563E+02 -0.24487283948E+03  0.25836691986E+03  0.80945472778E+02 0.  0.
         23    2    1    2    0    0 -0.61735501161E+02 -0.94364396665E+02  0.33965578781E+03  0.36615176874E+03  0.77363764757E+02 0.  0.
        -13    1    3    3    0    0 -0.23511052404E+02 -0.15769234748E+02 -0.24947524770E+02  0.37733504235E+02  0.00000000000E+00 0.  1.
         14    1    3    3    0    0  0.17598641982E+02  0.14992801844E+01 -0.21992531471E+03  0.22063341562E+03  0.00000000000E+00 0. -1.
        -13    1    4    4    0    0 -0.49715564119E+02 -0.69441445653E+02  0.32245057564E+03  0.33356877165E+03  0.00000000000E+00 0. -1.
         13    1    4    4    0    0 -0.12019937042E+02 -0.24922951013E+02  0.17205212174E+02  0.32582997094E+02  0.00000000000E+00 0.  1.
          1    1    1    2  501    0  0.67647911583E+02  0.10863435123E+03 -0.23829105309E+02  0.13017483808E+03  0.00000000000E+00 0. -1.
<scales pt_clust_5="13000.00000" pt_clust_6="13000.00000" pt_clust_7="13000.00000" pt_clust_8="13000.00000" pt_clust_9="125.98028"></scales>
<clustering>
<clus scale="   77.364">  7  8 -1 -1</clus>
<clus scale="   80.945">  5  6 -1 -1</clus>
<clus scale="   82.406">  1  5  2 -1</clus>
<clus scale="  125.980">  2  9  1 -1</clus>
<clus scale="  125.980">  2  5  1 -1</clus>
</clustering>
</event>
<event>
 9    2  0.1654290E-004  0.1099087E+03  0.7546771E-02  0.1266266E+00
         21   -1    0    0  501  502  0.00000000000E+00  0.00000000000E+00  0.44528229982E+02  0.44528229982E+02  0.00000000000E+00 0. -1.
         -1   -1    0    0    0  501 -0.00000000000E+00 -0.00000000000E+00 -0.51774043976E+03  0.51774043976E+03  0.00000000000E+00 0.  1.
         23    2    1    2    0    0  0.49023786300E+02  0.89302375320E+00 -0.29087097805E+03  0.30937878651E+03  0.93301546390E+02 0.  0.
         24    2    1    2    0    0 -0.71287503267E+02 -0.18840380176E+01 -0.19841268915E+03  0.22541358534E+03  0.79738519682E+02 0.  0.
        -13    1    4    4    0    0 -0.64894701693E+02  0.26774834417E+02 -0.17255237990E+03  0.18628617199E+03  0.00000000000E+00 0.  1.
         14    1    4    4    0    0 -0.63928015739E+01 -0.28658872435E+02 -0.25860309246E+02  0.39127413350E+02  0.00000000000E+00 0. -1.
        -13    1    3    3    0    0 -0.17306235663E+02  0.22852917105E+02 -0.14282219520E+03  0.14567065955E+03  0.00000000000E+00 0.  1.
         13    1    3    3    0    0  0.66330021963E+02 -0.21959893351E+02 -0.14804878285E+03  0.16370812696E+03  0.00000000000E+00 0. -1.
         -2    1    1    2    0  502  0.22263716966E+02  0.99101426437E+00  0.16071457412E+02  0.27476297891E+02  0.00000000000E+00 0.  1.
<scales pt_clust_5="13000.00000" pt_clust_6="13000.00000" pt_clust_7="13000.00000" pt_clust_8="13000.00000" pt_clust_9="22.28576"></scales>
<clustering>
<clus scale="   22.286">  1  9  2 -1</clus>
<clus scale="   79.739">  5  6 -1 -1</clus>
<clus scale="   93.302">  7  8 -1 -1</clus>
<clus scale="   98.656">  1  5  2 -1</clus>
<clus scale="   22.286">  1  5  2 -1</clus>
</clustering>
</event>
<event>
 9    2  0.1654290E-004  0.9180475E+02  0.7546771E-02  0.1302133E+00
          2   -1    0    0  502    0 -0.00000000000E+00  0.00000000000E+00  0.82487155083E+03  0.82487155083E+03  0.00000000000E+00 0. -1.
         21   -1    0    0  501  502  0.00000000000E+00 -0.00000000000E+00 -0.32523735061E+02  0.32523735061E+02  0.00000000000E+00 0. -1.
         24    2    1    2    0    0 -0.13998066781E+02 -0.37722392363E+02  0.65338383350E+03  0.65944012673E+03  0.79573375561E+02 0.  0.
         23    2    1    2    0    0  0.10604210685E+02 -0.11426401716E+02  0.11131175336E+03  0.14145942497E+03  0.85892086570E+02 0.  0.
        -13    1    3    3    0    0  0.16760055040E+02 -0.49935297966E+02  0.30770144478E+03  0.31217721337E+03  0.00000000000E+00 0.  1.
         14    1    3    3    0    0 -0.30758121821E+02  0.12212905603E+02  0.34568238872E+03  0.34726291336E+03  0.00000000000E+00 0. -1.
        -13    1    4    4    0    0  0.44263404721E+02  0.94529119046E+01  0.75678651255E+02  0.88180864119E+02  0.00000000000E+00 0.  1.
         13    1    4    4    0    0 -0.33659194036E+02 -0.20879313621E+02  0.35633102103E+02  0.53278560846E+02  0.00000000000E+00 0. -1.
          1    1    1    2  501    0  0.33938560962E+01  0.49148794079E+02  0.27652228903E+02  0.56495734192E+02  0.00000000000E+00 0. -1.
<scales pt_clust_5="13000.00000" pt_clust_6="13000.00000" pt_clust_7="13000.00000" pt_clust_8="13000.00000" pt_clust_9="49.26583"></scales>
<clustering>
<clus scale="   49.266">  2  9  1 -1</clus>
<clus scale="   79.573">  5  6 -1 -1</clus>
<clus scale="   85.892">  7  8 -1 -1</clus>
<clus scale="   85.922">  1  5  2 -1</clus>
<clus scale="   49.266">  2  5  1 -1</clus>
</clustering>
</event>
<event>
 9    2  0.1654290E-004  0.1793952E+03  0.7546771E-02  0.1183950E+00
         21   -1    0    0  501  502  0.00000000000E+00  0.00000000000E+00  0.13569619081E+03  0.13569619081E+03  0.00000000000E+00 0.  1.
         -1   -1    0    0    0  501 -0.00000000000E+00 -0.00000000000E+00 -0.40231435844E+03  0.40231435844E+03  0.00000000000E+00 0.  1.
         23    2    1    2    0    0 -0.15174741883E+02 -0.51827971538E+02 -0.75549648896E+02  0.14704174078E+03  0.11400487998E+03 0.  0.
         24    2    1    2    0    0  0.12573646467E+03  0.12929375032E+03 -0.78268015658E+02  0.21504611260E+03  0.87134469922E+02 0.  0.
        -13    1    4    4    0    0  0.50301397462E+02  0.10525780846E+03 -0.68474646207E+02  0.13527089119E+03  0.00000000000E+00 0.  1.
         14    1    4    4    0    0  0.75435067210E+02  0.24035941852E+02 -0.97933694502E+01  0.79775221409E+02  0.00000000000E+00 0. -1.
        -11    1    3    3    0    0  0.45707304482E+02 -0.70113276907E+01 -0.47811217701E+02  0.66514877562E+02  0.00000000000E+00 0.  1.
         11    1    3    3    0    0 -0.60882046365E+02 -0.44816643847E+02 -0.27738431195E+02  0.80526863223E+02  0.00000000000E+00 0. -1.
         -2    1    1    2    0  502 -0.11056172279E+03 -0.77465778779E+02 -0.11280050307E+03  0.17592269587E+03  0.00000000000E+00 0.  1.
<scales pt_clust_5="13000.00000" pt_clust_6="13000.00000" pt_clust_7="13000.00000" pt_clust_8="13000.00000" pt_clust_9="156.81279"></scales>
<clustering>
<clus scale="   87.134">  5  6 -1 -1</clus>
<clus scale="  114.005">  7  8 -1 -1</clus>
<clus scale="  126.149">  2  7  1 -1</clus>
<clus scale="  156.813">  1  9  2 -1</clus>
<clus scale="  156.813">  1  5  2 -1</clus>
</clustering>
</event>
<event>
 9    2  0.1654290E-004  0.1409333E+03  0.7546771E-02  0.1215209E+00
         -1   -1    0    0    0  501 -0.00000000000E+00  0.00000000000E+00  0.17117155760E+03  0.17117155760E+03  0.00000000000E+00 0.  1.
         21   -1    0    0  501  502  0.00000000000E+00 -0.00000000000E+00 -0.15924002858E+03  0.15924002858E+03  0.00000000000E+00 0.  1.
         24    2    1    2    0    0 -0.11399700544E+03  0.77960550086E+01  0.71370433192E+02  0.15687206773E+03  0.80367973565E+02 0.  0.
         23    2    1    2    0    0  0.80987799075E+02 -0.82396504719E+01 -0.64042172464E+02  0.14020793341E+03  0.94498408976E+02 0.  0.
        -11    1    3    3    0    0 -0.89541110374E+02 -0.12312468008E+02  0.14161666875E+02  0.91486393110E+02  0.00000000000E+00 0.  1.
         12    1    3    3    0    0 -0.24455895068E+02  0.20108523016E+02  0.57208766317E+02  0.65385674616E+02  0.00000000000E+00 0. -1.
        -11    1    4    4    0    0  0.68146770481E+02  0.27177282857E+02 -0.95846257087E+01  0.73989540345E+02  0.00000000000E+00 0. -1.
         11    1    4    4    0    0  0.12841028594E+02 -0.35416933329E+02 -0.54457546756E+02  0.66218393068E+02  0.00000000000E+00 0.  1.
         -2    1    1    2    0  502  0.33009206367E+02  0.44359546338E+00  0.46032682913E+01  0.33331585034E+02  0.00000000000E+00 0.  1.
<scales pt_clust_5="13000.00000" pt_clust_6="13000.00000" pt_clust_7="13000.00000" pt_clust_8="13000.00000" pt_clust_9="33.01220"></scales>
<clustering>
<clus scale="   33.012">  2  9  1 -1</clus>
<clus scale="   80.368">  5  6 -1 -1</clus>
<clus scale="   94.498">  7  8 -1 -1</clus>
<clus scale="  131.876">  1  5  2 -1</clus>
<clus scale="   33.012">  2  5  1 -1</clus>
</clustering>
</event>
<event>
 9    2  0.1654290E-004  0.1289617E+03  0.7546771E-02  0.1232051E+00
          2   -1    0    0  502    0 -0.00000000000E+00  0.00000000000E+00  0.95634609498E+03  0.95634609498E+03  0.00000000000E+00 0. -1.
         21   -1    0    0  501  502  0.00000000000E+00 -0.00000000000E+00 -0.98305094813E+02  0.98305094813E+02  0.00000000000E+00 0.  1.
         24    2    1    2    0    0 -0.66808798041E+02 -0.56443899481E+02  0.82640745578E+03  0.83499435376E+03  0.81344689784E+02 0.  0.
         23    2    1    2    0    0  0.67632121823E+02  0.98548420067E+02  0.66295445376E+02  0.16511404645E+03  0.92637288703E+02 0.  0.
        -13    1    3    3    0    0 -0.14664148787E+00 -0.41355266820E+02  0.16659495167E+03  0.17165126717E+03  0.00000000000E+00 0.  1.
         14    1    3    3    0    0 -0.66662156553E+02 -0.15088632661E+02  0.65981250410E+03  0.66334308659E+03  0.00000000000E+00 0. -1.
        -13    1    4    4    0    0  0.90990088466E+01  0.87836035234E+02  0.22207183924E+02  0.91055587777E+02  0.00000000000E+00 0.  1.
         13    1    4    4    0    0  0.58533112976E+02  0.10712384833E+02  0.44088261452E+02  0.74058458675E+02  0.00000000000E+00 0. -1.
          1    1    1    2  501    0 -0.82332378199E+00 -0.42104520586E+02 -0.34661900986E+02  0.54542789585E+02  0.00000000000E+00 0. -1.
<scales pt_clust_5="13000.00000" pt_clust_6="13000.00000" pt_clust_7="13000.00000" pt_clust_8="13000.00000" pt_clust_9="42.11257"></scales>
<clustering>
<clus scale="   42.113">  2  9  1 -1</clus>
<clus scale="   81.345">  5  6 -1 -1</clus>
<clus scale="   92.637">  7  8 -1 -1</clus>
<clus scale="  121.105">  1  5  2 -1</clus>
<clus scale="   42.113">  2  5  1 -1</clus>
</clustering>
</event>
<event>
 9    2  0.1654290E-004  0.1122841E+03  0.7546771E-02  0.1259128E+00
          2   -1    0    0  502    0 -0.00000000000E+00  0.00000000000E+00  0.79307056692E+03  0.79307056692E+03  0.00000000000E+00 0. -1.
         21   -1    0    0  501  502  0.00000000000E+00 -0.00000000000E+00 -0.31551795978E+02  0.31551795978E+02  0.00000000000E+00 0.  1.
         24    2    1    2    0    0  0.54300796282E+02 -0.42973793523E+01  0.44323118375E+03  0.45437840083E+03  0.83897586098E+02 0.  0.
         23    2    1    2    0    0 -0.90311887333E+02  0.15917022592E+02  0.30294795715E+03  0.32941359300E+03  0.91248352914E+02 0.  0.
        -13    1    3    3    0    0  0.23372303856E+02  0.18513025080E+02  0.43112297906E+02  0.52418192604E+02  0.00000000000E+00 0.  1.
         14    1    3    3    0    0  0.30928492426E+02 -0.22810404432E+02  0.40011888584E+03  0.40196020823E+03  0.00000000000E+00 0. -1.
        -11    1    4    4    0    0 -0.89860614808E+02 -0.19666956077E+02  0.19200655977E+03  0.21290429363E+03  0.00000000000E+00 0.  1.
         11    1    4    4    0    0 -0.45127252486E+00  0.35583978669E+02  0.11094139739E+03  0.11650929937E+03  0.00000000000E+00 0. -1.
          1    1    1    2  501    0  0.36011091052E+02 -0.11619643240E+02  0.15339630039E+02  0.40830369059E+02  0.00000000000E+00 0. -1.
<scales pt_clust_5="13000.00000" pt_clust_6="13000.00000" pt_clust_7="13000.00000" pt_clust_8="13000.00000" pt_clust_9="37.83933"></scales>
<clustering>
<clus scale="   37.839">  2  9  1 -1</clus>
<clus scale="   83.898">  5  6 -1 -1</clus>
<clus scale="   91.248">  7  8 -1 -1</clus>
<clus scale="  106.397">  1  5  2 -1</clus>
<clus scale="   37.839">  2  5  1 -1</clus>
</clustering>
</event>
<event>
 9    2  0.1654290E-004  0.9926896E+02  0.7546771E-02  0.1284502E+00
         21   -1    0    0  501  502  0.00000000000E+00  0.00000000000E+00  0.16884591011E+03  0.16884591011E+03  0.00000000000E+00 0.  1.
         -1   -1    0    0    0  501 -0.00000000000E+00 -0.00000000000E+00 -0.30218402270E+03  0.30218402270E+03  0.00000000000E+00 0.  1.
         23    2    1    2    0    0 -0.16959726562E+02  0.49757737640E+02 -0.27370300969E+03  0.29148287009E+03  0.85354913516E+02 0.  0.
         24    2    1    2    0    0  0.13629267174E+02 -0.21683305782E+02  0.10700372554E+03  0.13581797113E+03  0.79629148739E+02 0.  0.
        -11    1    4    4    0    0 -0.33034180712E+02 -0.85187866719E+01  0.54975559694E+02  0.64700378557E+02  0.00000000000E+00 0.  1.
         12    1    4    4    0    0  0.46663447886E+02 -0.13164519110E+02  0.52028165849E+02  0.71117592575E+02  0.00000000000E+00 0. -1.
        -11    1    3    3    0    0 -0.39675460221E+01  0.69992450684E+02 -0.24034894329E+03  0.25036433275E+03  0.00000000000E+00 0.  1.
         11    1    3    3    0    0 -0.12992180540E+02 -0.20234713044E+02 -0.33354066399E+02  0.41118537334E+02  0.00000000000E+00 0. -1.
         -2    1    1    2    0  502  0.33304593880E+01 -0.28074431858E+02  0.33361171554E+02  0.43729091591E+02  0.00000000000E+00 0.  1.
<scales pt_clust_5="13000.00000" pt_clust_6="13000.00000" pt_clust_7="13000.00000" pt_clust_8="13000.00000" pt_clust_9="28.27129"></scales>
<clustering>
<clus scale="   28.271">  1  9  2 -1</clus>
<clus scale="   79.629">  5  6 -1 -1</clus>
<clus scale="   85.355">  7  8 -1 -1</clus>
<clus scale="   94.391">  1  5  2 -1</clus>
<clus scale="   28.271">  1  5  2 -1</clus>
</clustering>
</event>
<event>
 9    2  0.1654290E-004  0.2425284E+03  0.7546771E-02  0.1118730E+00
         -3   -1    0    0    0  501 -0.00000000000E+00  0.00000000000E+00  0.50620428568E+03  0.50620428568E+03  0.00000000000E+00 0.  1.
         21   -1    0    0  501  502  0.00000000000E+00 -0.00000000000E+00 -0.15498427610E+03  0.15498427610E+03  0.00000000000E+00 0. -1.
         23    2    1    2    0    0  0.95032234881E+02  0.20977145879E+03  0.32644922459E+03  0.40985219917E+03  0.91512503734E+02 0.  0.
         24    2    1    2    0    0 -0.83848583476E+02 -0.19236518467E+03  0.87914485917E+01  0.22519460235E+03  0.81242662051E+02 0.  0.
        -13    1    4    4    0    0 -0.45736738411E+02 -0.23005712899E+02  0.62906540958E+01  0.51581822335E+02  0.00000000000E+00 0.  1.
         14    1    4    4    0    0 -0.38111845065E+02 -0.16935947177E+03  0.25007944959E+01  0.17361278002E+03  0.00000000000E+00 0. -1.
        -11    1    3    3    0    0  0.18595661691E+02  0.16268125434E+02  0.24820514810E+01  0.24831655571E+02  0.00000000000E+00 0. -1.
         11    1    3    3    0    0  0.76436573190E+02  0.19350333335E+03  0.32396717311E+03  0.38502054360E+03  0.00000000000E+00 0.  1.
         -4    1    1    2    0  502 -0.11183651405E+02 -0.17406274118E+02  0.15979336405E+02  0.26141760258E+02  0.00000000000E+00 0.  1.
<scales pt_clust_5="13000.00000" pt_clust_6="13000.00000" pt_clust_7="13000.00000" pt_clust_8="13000.00000" pt_clust_9="20.68944"></scales>
<clustering>
<clus scale="   20.689">  2  9  1 -1</clus>
<clus scale="   81.243">  5  6 -1 -1</clus>
<clus scale="   91.513">  7  8 -1 -1</clus>
<clus scale="  238.843">  2  5  1 -1</clus>
<clus scale="   20.689">  2  5  1 -1</clus>
</clustering>
</event>
<event>
 9    2  0.1654290E-004  0.1904438E+03  0.7546771E-02  0.1168226E+00
         21   -1    0    0  501  502  0.00000000000E+00  0.00000000000E+00  0.10878945948E+03  0.10878945948E+03  0.00000000000E+00 0.  1.
         -1   -1    0    0    0  501 -0.00000000000E+00 -0.00000000000E+00 -0.84332197110E+03  0.84332197110E+03  0.00000000000E+00 0.  1.
         24    2    1    2    0    0 -0.39815448708E+02 -0.12150189768E+03 -0.42833893902E+03  0.45401310688E+03  0.79408270600E+02 0.  0.
         23    2    1    2    0    0  0.16898358154E+03 -0.19498971238E+02 -0.10100769068E+03  0.21762212559E+03  0.90670696796E+02 0.  0.
        -13    1    3    3    0    0  0.16133049467E+02 -0.52770802002E+02 -0.23403152835E+03  0.24044914034E+03  0.00000000000E+00 0.  1.
         14    1    3    3    0    0 -0.55948498175E+02 -0.68731095679E+02 -0.19430741067E+03  0.21356396653E+03  0.00000000000E+00 0. -1.
        -11    1    4    4    0    0  0.12937321408E+03  0.25572902688E+02 -0.59607580247E+02  0.14472202837E+03  0.00000000000E+00 0.  1.
         11    1    4    4    0    0  0.39610367462E+02 -0.45071873926E+02 -0.41400110438E+02  0.72900097215E+02  0.00000000000E+00 0. -1.
         -2    1    1    2    0  502 -0.12916813283E+03  0.14100086892E+03 -0.20518588192E+03  0.28047619812E+03  0.00000000000E+00 0.  1.
<scales pt_clust_5="13000.00000" pt_clust_6="13000.00000" pt_clust_7="13000.00000" pt_clust_8="13000.00000" pt_clust_9="167.47440"></scales>
<clustering>
<clus scale="   79.408">  5  6 -1 -1</clus>
<clus scale="   90.671">  7  8 -1 -1</clus>
<clus scale="  150.511">  2  5  1 -1</clus>
<clus scale="  167.474">  1  9  2 -1</clus>
<clus scale="  167.474">  1  5  2 -1</clus>
</clustering>
</event>
<event>
 9    2  0.1654290E-004  0.1524497E+03  0.7546771E-02  0.1199480E+00
          2   -1    0    0  502    0 -0.00000000000E+00  0.00000000000E+00  0.65418771833E+03  0.65418771833E+03  0.00000000000E+00 0. -1.
         21   -1    0    0  501  502  0.00000000000E+00 -0.00000000000E+00 -0.88282658203E+02  0.88282658203E+02  0.00000000000E+00 0.  1.
         24    2    1    2    0    0  0.91800038463E+02  0.70280984731E+02  0.45307647066E+03  0.47445662994E+03  0.80399885259E+02 0.  0.
         23    2    1    2    0    0 -0.11069095406E+03 -0.94421945088E+02  0.14402493731E+03  0.22427743698E+03  0.91592549630E+02 0.  0.
        -13    1    3    3    0    0  0.36039628275E+02  0.66880264342E+02  0.17429474845E+03  0.19013280596E+03  0.00000000000E+00 0.  1.
         14    1    3    3    0    0  0.55760410188E+02  0.34007203894E+01  0.27878172221E+03  0.28432382398E+03  0.00000000000E+00 0. -1.
        -11    1    4    4    0    0 -0.84027661678E+02 -0.10956285004E+03  0.99395219586E+02  0.17012958506E+03  0.00000000000E+00 0. -1.
         11    1    4    4    0    0 -0.26663292384E+02  0.15140904956E+02  0.44629717724E+02  0.54147851922E+02  0.00000000000E+00 0.  1.
          1    1    1    2  501    0  0.18890915599E+02  0.24140960357E+02 -0.31196347847E+02  0.43736309608E+02  0.00000000000E+00 0. -1.
<scales pt_clust_5="13000.00000" pt_clust_6="13000.00000" pt_clust_7="13000.00000" pt_clust_8="13000.00000" pt_clust_9="30.65375"></scales>
<clustering>
<clus scale="   30.654">  2  9  1 -1</clus>
<clus scale="   80.400">  5  6 -1 -1</clus>
<clus scale="   91.593">  7  8 -1 -1</clus>
<clus scale="  146.000">  1  5  2 -1</clus>
<clus scale="   30.654">  2  5  1 -1</clus>
</clustering>
</event>
<event>
 9    2  0.1654290E-004  0.1940086E+03  0.7546771E-02  0.1156041E+00
         21   -1    0    0  501  502  0.00000000000E+00  0.00000000000E+00  0.26857042305E+03  0.26857042305E+03  0.00000000000E+00 0.  1.
          4   -1    0    0  502    0 -0.00000000000E+00 -0.00000000000E+00 -0.21528641093E+03  0.21528641093E+03  0.00000000000E+00 0. -1.
         24    2    1    2    0    0 -0.15934585189E+03 -0.48117087724E+02 -0.17500213758E+02  0.18545885306E+03  0.79889761859E+02 0.  0.
         23    2    1    2    0    0  0.17450311676E+03  0.28449894364E+02 -0.23943915309E+02  0.20046963004E+03  0.91400367833E+02 0.  0.
        -13    1    3    3    0    0 -0.13282393968E+03 -0.41249088925E+02 -0.45451485013E+02  0.14631993637E+03  0.00000000000E+00 0.  1.
         14    1    3    3    0    0 -0.26521912216E+02 -0.68679987987E+01  0.27951271255E+02  0.39138916693E+02  0.00000000000E+00 0. -1.
        -11    1    4    4    0    0  0.32371798666E+02  0.28381239821E+02  0.25436630237E+02  0.50004502602E+02  0.00000000000E+00 0.  1.
         11    1    4    4    0    0  0.14213131810E+03  0.68654542256E-01 -0.49380545546E+02  0.15046512744E+03  0.00000000000E+00 0. -1.
          3    1    1    2  501    0 -0.15157264869E+02  0.19667193360E+02  0.94728141188E+02  0.97928350880E+02  0.00000000000E+00 0. -1.
<scales pt_clust_5="13000.00000" pt_clust_6="13000.00000" pt_clust_7="13000.00000" pt_clust_8="13000.00000" pt_clust_9="24.83025"></scales>
<clustering>
<clus scale="   24.830">  1  9  2 -1</clus>
<clus scale="   79.890">  5  6 -1 -1</clus>
<clus scale="   91.400">  7  8 -1 -1</clus>
<clus scale="  188.859">  2  5  1 -1</clus>
<clus scale="   24.830">  1  5  2 -1</clus>
</clustering>
</event>
<event>
 9    2  0.1654290E-004  0.1646484E+03  0.7546771E-02  0.1198653E+00
         21   -1    0    0  501  502  0.00000000000E+00  0.00000000000E+00  0.40821137299E+03  0.40821137299E+03  0.00000000000E+00 0.  1.
          2   -1    0    0  502    0 -0.00000000000E+00 -0.00000000000E+00 -0.14945939711E+03  0.14945939711E+03  0.00000000000E+00 0. -1.
         23    2    1    2    0    0 -0.51906764516E+02  0.54527610246E+02  0.20393518203E+03  0.23561139177E+03  0.90860315762E+02 0.  0.
         24    2    1    2    0    0  0.10703789241E+03  0.90776718685E+02  0.23691632048E+02  0.16356153933E+03  0.80582632454E+02 0.  0.
        -13    1    4    4    0    0  0.10303433783E+03  0.74260962885E+02  0.46383435891E+02  0.13521164338E+03  0.00000000000E+00 0.  1.
         14    1    4    4    0    0  0.40035545807E+01  0.16515755800E+02 -0.22691803843E+02  0.28349895953E+02  0.00000000000E+00 0. -1.
        -11    1    3    3    0    0 -0.10152820771E+02  0.61861238845E+02  0.64797660619E+02  0.90158912275E+02  0.00000000000E+00 0. -1.
         11    1    3    3    0    0 -0.41753943745E+02 -0.73336285982E+01  0.13913752141E+03  0.14545247949E+03  0.00000000000E+00 0.  1.
          1    1    1    2  501    0 -0.55131127896E+02 -0.14530432893E+03  0.31125161800E+02  0.15849783900E+03  0.00000000000E+00 0. -1.
<scales pt_clust_5="13000.00000" pt_clust_6="13000.00000" pt_clust_7="13000.00000" pt_clust_8="13000.00000" pt_clust_9="143.58118"></scales>
<clustering>
<clus scale="   80.583">  5  6 -1 -1</clus>
<clus scale="   90.860">  7  8 -1 -1</clus>
<clus scale="  117.997">  2  7  1 -1</clus>
<clus scale="  143.581">  1  9  2 -1</clus>
<clus scale="  143.581">  1  5  2 -1</clus>
</clustering>
</event>
<event>
 9    2  0.1654290E-004  0.4079357E+03  0.7546771E-02  0.1041263E+00
          2   -1    0    0  502    0 -0.00000000000E+00  0.00000000000E+00  0.92573210050E+03  0.92573210050E+03  0.00000000000E+00 0. -1.
         21   -1    0    0  501  502  0.00000000000E+00 -0.00000000000E+00 -0.27749426829E+03  0.27749426829E+03  0.00000000000E+00 0. -1.
         24    2    1    2    0    0  0.25930280575E+03  0.32349177487E+03  0.59924370080E+03  0.73304403148E+03  0.79847765582E+02 0.  0.
         23    2    1    2    0    0 -0.18053942021E+03 -0.31485350303E+03  0.84131430885E+02  0.38350523274E+03  0.90944792343E+02 0.  0.
        -13    1    3    3    0    0  0.14947055434E+03  0.22568899604E+03  0.33571014876E+03  0.43125198380E+03  0.00000000000E+00 0.  1.
         14    1    3    3    0    0  0.10983225140E+03  0.97802778829E+02  0.26353355204E+03  0.30179204768E+03  0.00000000000E+00 0. -1.
        -13    1    4    4    0    0 -0.95219709840E+02 -0.80307073355E+02  0.29751944973E+02  0.12806715973E+03  0.00000000000E+00 0.  1.
         13    1    4    4    0    0 -0.85319710367E+02 -0.23454642968E+03  0.54379485913E+02  0.25543807300E+03  0.00000000000E+00 0. -1.
          1    1    1    2  501    0 -0.78763385541E+02 -0.86382718372E+01 -0.35137299475E+02  0.86677104570E+02  0.00000000000E+00 0. -1.
<scales pt_clust_5="13000.00000" pt_clust_6="13000.00000" pt_clust_7="13000.00000" pt_clust_8="13000.00000" pt_clust_9="79.23567"></scales>
<clustering>
<clus scale="   79.236">  2  9  1 -1</clus>
<clus scale="   79.848">  5  6 -1 -1</clus>
<clus scale="   90.945">  7  8 -1 -1</clus>
<clus scale="  405.606">  1  5  2 -1</clus>
<clus scale="   79.236">  2  5  1 -1</clus>
</clustering>
</event>
<event>
 9    2  0.1654290E-004  0.2627505E+03  0.7546771E-02  0.1120708E+00
          2   -1    0    0  502    0 -0.00000000000E+00  0.00000000000E+00  0.15528979214E+04  0.15528979214E+04  0.00000000000E+00 0. -1.
         21   -1    0    0  501  502  0.00000000000E+00 -0.00000000000E+00 -0.98656777695E+02  0.98656777695E+02  0.00000000000E+00 0.  1.
         24    2    1    2    0    0 -0.13845627425E+03  0.84557172101E+02  0.20208689907E+03  0.26980521090E+03  0.75071178345E+02 0.  0.
         23    2    1    2    0    0 -0.10569253410E+03 -0.19718545667E+03  0.93654945641E+03  0.96714105432E+03  0.90465012880E+02 0.  0.
        -11    1    3    3    0    0 -0.14632250382E+03  0.81199062001E+02  0.17830806485E+03  0.24453492344E+03  0.00000000000E+00 0.  1.
         12    1    3    3    0    0  0.78662295676E+01  0.33581101001E+01  0.23778834220E+02  0.25270287452E+02  0.00000000000E+00 0. -1.
        -11    1    4    4    0    0 -0.38734642806E+02 -0.91007762299E+02  0.59687043700E+03  0.60501000315E+03  0.00000000000E+00 0. -1.
         11    1    4    4    0    0 -0.66957891292E+02 -0.10617769437E+03  0.33967901941E+03  0.36213105116E+03  0.00000000000E+00 0.  1.
          1    1    1    2  501    0  0.24414880835E+03  0.11262828457E+03  0.31560478826E+03  0.41460843392E+03  0.00000000000E+00 0. -1.
<scales pt_clust_5="13000.00000" pt_clust_6="13000.00000" pt_clust_7="13000.00000" pt_clust_8="13000.00000" pt_clust_9="246.68587"></scales>
<clustering>
<clus scale="   75.071">  5  6 -1 -1</clus>
<clus scale="   90.465">  7  8 -1 -1</clus>
<clus scale="  178.762">  1  5  2 -1</clus>
<clus scale="  246.686">  2  9  1 -1</clus>
<clus scale="  246.686">  2  5  1 -1</clus>
</clustering>
</event>
<event>
 9    2  0.1654290E-004  0.9298854E+02  0.7546771E-02  0.1301551E+00
         -3   -1    0    0    0  501 -0.00000000000E+00  0.00000000000E+00  0.28405986774E+03  0.28405986774E+03  0.00000000000E+00 0.  1.
         21   -1    0    0  501  502  0.00000000000E+00 -0.00000000000E+00 -0.56700485535E+02  0.56700485535E+02  0.00000000000E+00 0.  1.
         24    2    1    2    0    0  0.20670575298E+02  0.11746657117E+02  0.16147257421E+03  0.18252927123E+03  0.81720780700E+02 0.  0.
         23    2    1    2    0    0  0.51719881471E+01  0.65061508650E+01  0.77372466351E+01  0.92031576219E+02  0.91328344863E+02 0.  0.
        -13    1    3    3    0    0  0.38976558027E+01  0.33275823186E+02  0.14864389659E+03  0.15237283263E+03  0.00000000000E+00 0.  1.
         14    1    3    3    0    0  0.16772919495E+02 -0.21529166068E+02  0.12828677623E+02  0.30156438609E+02  0.00000000000E+00 0. -1.
        -11    1    4    4    0    0  0.36206370907E+02  0.26743412226E+02 -0.16294009621E+02  0.47870723217E+02  0.00000000000E+00 0.  1.
         11    1    4    4    0    0 -0.31034382760E+02 -0.20237261361E+02  0.24031256256E+02  0.44160853003E+02  0.00000000000E+00 0. -1.
         -4    1    1    2    0  502 -0.25842563445E+02 -0.18252807982E+02  0.58149561357E+02  0.66199505819E+02  0.00000000000E+00 0.  1.
<scales pt_clust_5="13000.00000" pt_clust_6="13000.00000" pt_clust_7="13000.00000" pt_clust_8="13000.00000" pt_clust_9="31.63865"></scales>
<clustering>
<clus scale="   31.639">  2  9  1 -1</clus>
<clus scale="   81.721">  5  6 -1 -1</clus>
<clus scale="   83.572">  1  5  2 -1</clus>
<clus scale="   91.328">  7  8 -1 -1</clus>
<clus scale="   31.639">  2  5  1 -1</clus>
</clustering>
</event>
<event>
 9    2  0.1654290E-004  0.1912452E+03  0.7546771E-02  0.1172831E+00
          2   -1    0    0  502    0 -0.00000000000E+00  0.00000000000E+00  0.27313448010E+03  0.27313448010E+03  0.00000000000E+00 0. -1.
         21   -1    0    0  501  502  0.00000000000E+00 -0.00000000000E+00 -0.30606792939E+03  0.30606792939E+03  0.00000000000E+00 0. -1.
         23    2    1    2    0    0  0.77907379337E+01  0.95991903845E+02  0.11122562261E+03  0.17398023885E+03  0.92859265472E+02 0.  0.
         24    2    1    2    0    0  0.95780771462E+02  0.95798767142E+02 -0.31207285891E+02  0.15972507291E+03  0.78656495311E+02 0.  0.
        -13    1    4    4    0    0  0.27154133154E+02  0.32157085784E+02  0.26532549877E+02  0.49753405074E+02  0.00000000000E+00 0.  1.
         14    1    4    4    0    0  0.68626638308E+02  0.63641681358E+02 -0.57739835768E+02  0.10997166783E+03  0.00000000000E+00 0. -1.
        -13    1    3    3    0    0  0.40688303424E+02  0.19575083908E+02  0.16912782198E+02  0.48215808063E+02  0.00000000000E+00 0.  1.
         13    1    3    3    0    0 -0.32897565491E+02  0.76416819937E+02  0.94312840408E+02  0.12576443078E+03  0.00000000000E+00 0. -1.
          1    1    1    2  501    0 -0.10357150940E+03 -0.19179067099E+03 -0.11295178601E+03  0.24549709774E+03  0.00000000000E+00 0. -1.
<scales pt_clust_5="13000.00000" pt_clust_6="13000.00000" pt_clust_7="13000.00000" pt_clust_8="13000.00000" pt_clust_9="174.32128"></scales>
<clustering>
<clus scale="   78.656">  5  6 -1 -1</clus>
<clus scale="   92.859">  7  8 -1 -1</clus>
<clus scale="  133.783">  1  7  2 -1</clus>
<clus scale="  174.321">  2  9  1 -1</clus>
<clus scale="  174.321">  2  5  1 -1</clus>
</clustering>
</event>
<event>
 9    2  0.1654290E-004  0.1585784E+03  0.7546771E-02  0.1195249E+00
         21   -1    0    0  501  502  0.00000000000E+00  0.00000000000E+00  0.12008957549E+03  0.12008957549E+03  0.00000000000E+00 0. -1.
         -1   -1    0    0    0  501 -0.00000000000E+00 -0.00000000000E+00 -0.22991661084E+03  0.22991661084E+03  0.00000000000E+00 0.  1.
         24    2    1    2    0    0 -0.10961349008E+03 -0.37083498477E+02 -0.86222471979E+02  0.16513252898E+03  0.80275365998E+02 0.  0.
         23    2    1    2    0    0  0.10676516541E+03  0.58383476875E+02 -0.23054837686E+02  0.16337704759E+03  0.10655094191E+03 0.  0.
        -11    1    3    3    0    0 -0.22252298793E+02 -0.30275552110E+02 -0.64832597710E+02  0.74933567798E+02  0.00000000000E+00 0.  1.
         12    1    3    3    0    0 -0.87361191287E+02 -0.68079463665E+01 -0.21389874269E+02  0.90198961181E+02  0.00000000000E+00 0. -1.
        -13    1    4    4    0    0  0.35401982339E+02  0.72902597225E+02  0.13059064019E+02  0.82089147814E+02  0.00000000000E+00 0. -1.
         13    1    4    4    0    0  0.71363183071E+02 -0.14519120350E+02 -0.36113901705E+02  0.81287899777E+02  0.00000000000E+00 0.  1.
         -2    1    1    2    0  502  0.28483246698E+01 -0.21299978398E+02 -0.54972568720E+00  0.21496609768E+02  0.00000000000E+00 0.  1.
<scales pt_clust_5="13000.00000" pt_clust_6="13000.00000" pt_clust_7="13000.00000" pt_clust_8="13000.00000" pt_clust_9="21.48958"></scales>
<clustering>
<clus scale="   21.490">  1  9  2 -1</clus>
<clus scale="   80.275">  5  6 -1 -1</clus>
<clus scale="  106.551">  7  8 -1 -1</clus>
<clus scale="  142.261">  2  5  1 -1</clus>
<clus scale="   21.490">  1  5  2 -1</clus>
</clustering>
</event>
<event>
 9    2  0.1654290E-004  0.3802098E+03  0.7546771E-02  0.1089096E+00
          2   -1    0    0  502    0 -0.00000000000E+00  0.00000000000E+00  0.44541957929E+03  0.44541957929E+03  0.00000000000E+00 0. -1.
         21   -1    0    0  501  502  0.00000000000E+00 -0.00000000000E+00 -0.55989496114E+03  0.55989496114E+03  0.00000000000E+00 0.  1.
         24    2    1    2    0    0 -0.72541496941E+02  0.79469933593E+02  0.14426084729E+03  0.19622795981E+03  0.78207934568E+02 0.  0.
         23    2    1    2    0    0  0.40278051864E+03 -0.12669404945E+03 -0.12691620150E+03  0.45038831152E+03  0.91969454650E+02 0.  0.
        -13    1    3    3    0    0 -0.69473868609E+02  0.94377210489E+02  0.12114851104E+03  0.16855455499E+03  0.00000000000E+00 0.  1.
         14    1    3    3    0    0 -0.30676283318E+01 -0.14907276896E+02  0.23112336245E+02  0.27673404828E+02  0.00000000000E+00 0. -1.
        -11    1    4    4    0    0  0.35669563211E+03 -0.13769340211E+03 -0.97376719543E+02  0.39455477751E+03  0.00000000000E+00 0.  1.
         11    1    4    4    0    0  0.46084886533E+02  0.10999352655E+02 -0.29539481959E+02  0.55833534009E+02  0.00000000000E+00 0. -1.
          1    1    1    2  501    0 -0.33023902170E+03  0.47224115862E+02 -0.13182002763E+03  0.35869826910E+03  0.00000000000E+00 0. -1.
<scales pt_clust_5="13000.00000" pt_clust_6="13000.00000" pt_clust_7="13000.00000" pt_clust_8="13000.00000" pt_clust_9="368.91888"></scales>
<clustering>
<clus scale="   78.208">  5  6 -1 -1</clus>
<clus scale="   91.969">  7  8 -1 -1</clus>
<clus scale="  133.020">  1  5  2 -1</clus>
<clus scale="  368.919">  2  9  1 -1</clus>
<clus scale="  368.919">  2  5  1 -1</clus>
</clustering>
</event>
<event>
 9    2  0.1654290E-004  0.1040468E+03  0.7546771E-02  0.1276839E+00
         -1   -1    0    0    0  501 -0.00000000000E+00  0.00000000000E+00  0.11984155095E+03  0.11984155095E+03  0.00000000000E+00 0.  1.
         21   -1    0    0  501  502  0.00000000000E+00 -0.00000000000E+00 -0.14429398719E+03  0.14429398719E+03  0.00000000000E+00 0.  1.
         23    2    1    2    0    0 -0.60772105299E+02 -0.10917376748E+02  0.79682551300E+01  0.10992014049E+03  0.90589769276E+02 0.  0.
         24    2    1    2    0    0  0.22262407054E+02  0.44297447210E+02 -0.41008212644E+02  0.10253395529E+03  0.79835204554E+02 0.  0.
        -13    1    4    4    0    0  0.40487028478E+02  0.58230663951E+02 -0.33122403301E+02  0.78275815547E+02  0.00000000000E+00 0.  1.
         14    1    4    4    0    0 -0.18224621424E+02 -0.13933216742E+02 -0.78858093426E+01  0.24258139743E+02  0.00000000000E+00 0. -1.
        -13    1    3    3    0    0 -0.68166753893E+02  0.24994731349E+02  0.94945013427E+01  0.73222868609E+02  0.00000000000E+00 0.  1.
         13    1    3    3    0    0  0.73946485944E+01 -0.35912108098E+02 -0.15262462127E+01  0.36697271879E+02  0.00000000000E+00 0. -1.
         -2    1    1    2    0  502  0.38509698245E+02 -0.33380070461E+02  0.85875212757E+01  0.51681442362E+02  0.00000000000E+00 0.  1.
<scales pt_clust_5="13000.00000" pt_clust_6="13000.00000" pt_clust_7="13000.00000" pt_clust_8="13000.00000" pt_clust_9="50.96301"></scales>
<clustering>
<clus scale="   50.963">  2  9  1 -1</clus>
<clus scale="   79.835">  5  6 -1 -1</clus>
<clus scale="   90.590">  7  8 -1 -1</clus>
<clus scale="   94.831">  2  5  1 -1</clus>
<clus scale="   50.963">  2  5  1 -1</clus>
</clustering>
</event>
<event>
 9    2  0.1654290E-004  0.9952110E+02  0.7546771E-02  0.1288800E+00
         21   -1    0    0  501  502  0.00000000000E+00  0.00000000000E+00  0.27451546362E+03  0.27451546362E+03  0.00000000000E+00 0.  1.
          4   -1    0    0  502    0 -0.00000000000E+00 -0.00000000000E+00 -0.11567608462E+03  0.11567608462E+03  0.00000000000E+00 0. -1.
         24    2    1    2    0    0  0.34642038567E+02  0.91392218679E+01 -0.78063715073E+02  0.11688966771E+03  0.79282120273E+02 0.  0.
         23    2    1    2    0    0 -0.96182660586E+01 -0.35023624092E+02  0.17735400809E+03  0.20371535086E+03  0.93414852696E+02 0.  0.
        -13    1    3    3    0    0  0.15491502619E+02 -0.23528548391E+02  0.20831241542E+01  0.28247453850E+02  0.00000000000E+00 0.  1.
         14    1    3    3    0    0  0.19150535948E+02  0.32667770258E+02 -0.80146839227E+02  0.88642213865E+02  0.00000000000E+00 0. -1.
        -11    1    4    4    0    0 -0.12557807941E+01 -0.57001712649E+02  0.16964324440E+03  0.17896816086E+03  0.00000000000E+00 0.  1.
         11    1    4    4    0    0 -0.83624852646E+01  0.21978088558E+02  0.77107636939E+01  0.24747190006E+02  0.00000000000E+00 0. -1.
          3    1    1    2  501    0 -0.25023772508E+02  0.25884402224E+02  0.59549085978E+02  0.69586529657E+02  0.00000000000E+00 0. -1.
<scales pt_clust_5="13000.00000" pt_clust_6="13000.00000" pt_clust_7="13000.00000" pt_clust_8="13000.00000" pt_clust_9="36.00266"></scales>
<clustering>
<clus scale="   36.003">  1  9  2 -1</clus>
<clus scale="   79.282">  5  6 -1 -1</clus>
<clus scale="   86.393">  2  5  1 -1</clus>
<clus scale="   93.415">  7  8 -1 -1</clus>
<clus scale="   36.003">  1  5  2 -1</clus>
</clustering>
</event>
<event>
 9    2  0.1654290E-004  0.1166355E+03  0.7546771E-02  0.1252252E+00
         -1   -1    0    0    0  501 -0.00000000000E+00  0.00000000000E+00  0.27251310222E+03  0.27251310222E+03  0.00000000000E+00 0.  1.
         21   -1    0    0  501  502  0.00000000000E+00 -0.00000000000E+00 -0.17726466372E+03  0.17726466372E+03  0.00000000000E+00 0. -1.
         23    2    1    2    0    0 -0.62644572285E+02  0.35907795059E+02  0.21605938749E+03  0.24543596001E+03  0.91342429153E+02 0.  0.
         24    2    1    2    0    0  0.80441564939E+02 -0.11030416262E+02 -0.12904018325E+03  0.17266630720E+03  0.81054113376E+02 0.  0.
        -13    1    4    4    0    0  0.93659995922E+02 -0.20709432188E+02 -0.95591612264E+02  0.13542094281E+03  0.00000000000E+00 0.  1.
         14    1    4    4    0    0 -0.13218430983E+02  0.96790159267E+01 -0.33448570988E+02  0.37245364384E+02  0.00000000000E+00 0. -1.
        -13    1    3    3    0    0  0.17032704243E+02 -0.14203703372E+02  0.36763669009E+02  0.42935132029E+02  0.00000000000E+00 0. -1.
         13    1    3    3    0    0 -0.79677276528E+02  0.50111498431E+02  0.17929571848E+03  0.20250082799E+03  0.00000000000E+00 0.  1.
         -2    1    1    2    0  502 -0.17796992654E+02 -0.24877378797E+02  0.82292342616E+01  0.31675498731E+02  0.00000000000E+00 0.  1.
<scales pt_clust_5="13000.00000" pt_clust_6="13000.00000" pt_clust_7="13000.00000" pt_clust_8="13000.00000" pt_clust_9="30.58787"></scales>
<clustering>
<clus scale="   30.588">  2  9  1 -1</clus>
<clus scale="   81.054">  5  6 -1 -1</clus>
<clus scale="   91.342">  7  8 -1 -1</clus>
<clus scale="  108.767">  2  5  1 -1</clus>
<clus scale="   30.588">  2  5  1 -1</clus>
</clustering>
</event>
<event>
 9    2  0.1654290E-004  0.2198402E+03  0.7546771E-02  0.1134575E+00
         21   -1    0    0  501  502  0.00000000000E+00  0.00000000000E+00  0.50091050965E+02  0.50091050965E+02  0.00000000000E+00 0. -1.
          2   -1    0    0  502    0 -0.00000000000E+00 -0.00000000000E+00 -0.20506835238E+04  0.20506835238E+04  0.00000000000E+00 0. -1.
         24    2    1    2    0    0 -0.58007272717E+02 -0.19509768646E+03 -0.14764366232E+04  0.14926482345E+04  0.81888330599E+02 0.  0.
         23    2    1    2    0    0  0.59007826775E+01  0.19784417132E+03 -0.50954435326E+03  0.55394031520E+03  0.89650931400E+02 0.  0.
        -13    1    3    3    0    0 -0.42646805939E+02 -0.15370348527E+03 -0.86248839708E+03  0.87711444324E+03  0.00000000000E+00 0.  1.
         14    1    3    3    0    0 -0.15360466777E+02 -0.41394201193E+02 -0.61394822615E+03  0.61553379130E+03  0.00000000000E+00 0. -1.
        -11    1    4    4    0    0  0.44602936230E+02  0.13772963556E+03 -0.31503212836E+03  0.34670465288E+03  0.00000000000E+00 0.  1.
         11    1    4    4    0    0 -0.38702153552E+02  0.60114535755E+02 -0.19451222491E+03  0.20723566232E+03  0.00000000000E+00 0. -1.
          1    1    1    2  501    0  0.52106490039E+02 -0.27464848554E+01 -0.14611496339E+02  0.54186025030E+02  0.00000000000E+00 0. -1.
<scales pt_clust_5="13000.00000" pt_clust_6="13000.00000" pt_clust_7="13000.00000" pt_clust_8="13000.00000" pt_clust_9="52.17882"></scales>
<clustering>
<clus scale="   52.179">  1  9  2 -1</clus>
<clus scale="   81.888">  5  6 -1 -1</clus>
<clus scale="   89.651">  7  8 -1 -1</clus>
<clus scale="  216.791">  2  5  1 -1</clus>
<clus scale="   52.179">  1  5  2 -1</clus>
</clustering>
</event>
<event>
 9    2  0.1654290E-004  0.1747882E+03  0.7546771E-02  0.1205389E+00
          2   -1    0    0  502    0 -0.00000000000E+00  0.00000000000E+00  0.14884451613E+04  0.14884451613E+04  0.00000000000E+00 0. -1.
         21   -1    0    0  501  502  0.00000000000E+00 -0.00000000000E+00 -0.30050335053E+02  0.30050335053E+02  0.00000000000E+00 0. -1.
         24    2    1    2    0    0  0.27469876679E+02 -0.95674881859E+01  0.24758834914E+03  0.26185355414E+03  0.80132154791E+02 0.  0.
         23    2    1    2    0    0  0.86785559937E+02  0.11202127024E+03  0.81212658493E+03  0.82944557205E+03  0.91377615631E+02 0.  0.
        -13    1    3    3    0    0  0.62444478157E+01  0.34128193929E+02  0.76451721862E+02  0.83955896309E+02  0.00000000000E+00 0.  1.
         14    1    3    3    0    0  0.21225428864E+02 -0.43695682115E+02  0.17113662728E+03  0.17789765783E+03  0.00000000000E+00 0. -1.
        -11    1    4    4    0    0  0.53174148281E+02  0.12168756499E+03  0.67417234573E+03  0.68712713908E+03  0.00000000000E+00 0. -1.
         11    1    4    4    0    0  0.33611411656E+02 -0.96662947505E+01  0.13795423920E+03  0.14231843296E+03  0.00000000000E+00 0.  1.
          1    1    1    2  501    0 -0.11425543662E+03 -0.10245378206E+03  0.39867989215E+03  0.42719637014E+03  0.00000000000E+00 0. -1.
<scales pt_clust_5="13000.00000" pt_clust_6="13000.00000" pt_clust_7="13000.00000" pt_clust_8="13000.00000" pt_clust_9="149.00011"></scales>
<clustering>
<clus scale="   80.132">  5  6 -1 -1</clus>
<clus scale="   85.248">  1  5  2 -1</clus>
<clus scale="   91.378">  7  8 -1 -1</clus>
<clus scale="  149.000">  2  9  1 -1</clus>
<clus scale="  149.000">  2  5  1 -1</clus>
</clustering>
</event>
<event>
 9    2  0.1654290E-004  0.1008119E+03  0.7546771E-02  0.1287500E+00
          4   -1    0    0  502    0 -0.00000000000E+00  0.00000000000E+00  0.14726988086E+03  0.14726988086E+03  0.00000000000E+00 0. -1.
         21   -1    0    0  501  502  0.00000000000E+00 -0.00000000000E+00 -0.11722029938E+03  0.11722029938E+03  0.00000000000E+00 0.  1.
         24    2    1    2    0    0 -0.43119706629E+02  0.42137651714E+02  0.53651336004E+02  0.11033160170E+03  0.75231015452E+02 0.  0.
         23    2    1    2    0    0 -0.52092563977E+01 -0.11914691805E+02 -0.29189648591E+01  0.93521182811E+02  0.92566705924E+02 0.  0.
        -11    1    3    3    0    0  0.96141635334E+01  0.28380223976E+02  0.46566335373E+02  0.55374117089E+02  0.00000000000E+00 0.  1.
         12    1    3    3    0    0 -0.52733870163E+02  0.13757427738E+02  0.70850006314E+01  0.54957484606E+02  0.00000000000E+00 0. -1.
        -13    1    4    4    0    0  0.39525989290E+02 -0.15018720643E+02  0.15511569629E+02  0.45038590025E+02  0.00000000000E+00 0. -1.
         13    1    4    4    0    0 -0.44735245688E+02  0.31040288372E+01 -0.18430534489E+02  0.48482592786E+02  0.00000000000E+00 0.  1.
          3    1    1    2  501    0  0.48328963027E+02 -0.30222959909E+02 -0.20682789665E+02  0.60637395732E+02  0.00000000000E+00 0. -1.
<scales pt_clust_5="13000.00000" pt_clust_6="13000.00000" pt_clust_7="13000.00000" pt_clust_8="13000.00000" pt_clust_9="57.00102"></scales>
<clustering>
<clus scale="   57.001">  2  9  1 -1</clus>
<clus scale="   75.231">  5  6 -1 -1</clus>
<clus scale="   85.171">  1  5  2 -1</clus>
<clus scale="   92.567">  7  8 -1 -1</clus>
<clus scale="   57.001">  2  5  1 -1</clus>
</clustering>
</event>
<event>
 9    2  0.1654290E-004  0.2645235E+03  0.7546771E-02  0.1127443E+00
         21   -1    0    0  501  502  0.00000000000E+00  0.00000000000E+00  0.57241003392E+03  0.57241003392E+03  0.00000000000E+00 0. -1.
          4   -1    0    0  502    0 -0.00000000000E+00 -0.00000000000E+00 -0.24910741787E+03  0.24910741787E+03  0.00000000000E+00 0. -1.
         24    2    1    2    0    0 -0.59342343587E+02  0.10832667487E+03 -0.69642234764E+02  0.16376444479E+03  0.81930276961E+02 0.  0.
         23    2    1    2    0    0 -0.13448405905E+03  0.13047828805E+03  0.93398530899E+02  0.22842273501E+03  0.91340650879E+02 0.  0.
        -13    1    3    3    0    0 -0.34011414610E+02 -0.14352553473E+01 -0.65964559967E+01  0.34674911873E+02  0.00000000000E+00 0.  1.
         14    1    3    3    0    0 -0.25330928978E+02  0.10976193022E+03 -0.63045778767E+02  0.12908953292E+03  0.00000000000E+00 0. -1.
        -13    1    4    4    0    0 -0.14347709628E+03  0.10841071188E+03  0.97000424923E+02  0.20432239731E+03  0.00000000000E+00 0. -1.
         13    1    4    4    0    0  0.89930372295E+01  0.22067576167E+02 -0.36018940239E+01  0.24100337696E+02  0.00000000000E+00 0.  1.
          3    1    1    2  501    0  0.19382640264E+03 -0.23880496292E+03  0.29954631991E+03  0.42933027199E+03  0.00000000000E+00 0. -1.
<scales pt_clust_5="13000.00000" pt_clust_6="13000.00000" pt_clust_7="13000.00000" pt_clust_8="13000.00000" pt_clust_9="248.25311"></scales>
<clustering>
<clus scale="   81.930">  5  6 -1 -1</clus>
<clus scale="   91.341">  7  8 -1 -1</clus>
<clus scale="  148.219">  2  5  1 -1</clus>
<clus scale="  248.253">  1  9  2 -1</clus>
<clus scale="  248.253">  1  5  2 -1</clus>
</clustering>
</event>
<event>
 9    2  0.1654290E-004  0.1259574E+03  0.7546771E-02  0.1244694E+00
         21   -1    0    0  501  502  0.00000000000E+00  0.00000000000E+00  0.23735936782E+03  0.23735936782E+03  0.00000000000E+00 0.  1.
         -1   -1    0    0    0  501 -0.00000000000E+00 -0.00000000000E+00 -0.14781687415E+03  0.14781687415E+03  0.00000000000E+00 0.  1.
         23    2    1    2    0    0  0.25720086319E+02  0.17761689333E+02  0.57407254373E+02  0.11571950196E+03  0.95490365119E+02 0.  0.
         24    2    1    2    0    0 -0.53533241024E+02  0.81330593277E+02  0.87105177786E+02  0.15277535253E+03  0.79199261652E+02 0.  0.
        -11    1    4    4    0    0  0.11441959326E+01  0.61370978408E+02  0.67783412096E+02  0.91445596561E+02  0.00000000000E+00 0.  1.
         12    1    4    4    0    0 -0.54677436956E+02  0.19959614869E+02  0.19321765690E+02  0.61329755969E+02  0.00000000000E+00 0. -1.
        -11    1    3    3    0    0  0.48609113295E+02  0.43614228762E+02  0.43644357781E+02  0.78548563398E+02  0.00000000000E+00 0. -1.
         11    1    3    3    0    0 -0.22889026976E+02 -0.25852539428E+02  0.13762896592E+02  0.37170938560E+02  0.00000000000E+00 0.  1.
         -2    1    1    2    0  502  0.27813154705E+02 -0.99092282610E+02 -0.54969938484E+02  0.11668138748E+03  0.00000000000E+00 0.  1.
<scales pt_clust_5="13000.00000" pt_clust_6="13000.00000" pt_clust_7="13000.00000" pt_clust_8="13000.00000" pt_clust_9="97.94260"></scales>
<clustering>
<clus scale="   79.199">  5  6 -1 -1</clus>
<clus scale="   95.490">  7  8 -1 -1</clus>
<clus scale="  100.476">  2  7  1 -1</clus>
<clus scale="   97.943">  1  9  2 -1</clus>
<clus scale="   97.943">  1  5  2 -1</clus>
</clustering>
</event>
<event>
 9    2  0.1654290E-004  0.1041552E+03  0.7546771E-02  0.1277112E+00
         -1   -1    0    0    0  501 -0.00000000000E+00  0.00000000000E+00  0.19042405887E+03  0.19042405887E+03  0.00000000000E+00 0.  1.
         21   -1    0    0  501  502  0.00000000000E+00 -0.00000000000E+00 -0.26286627199E+03  0.26286627199E+03  0.00000000000E+00 0.  1.
         23    2    1    2    0    0 -0.30955978251E+02  0.41549083635E+02  0.13620801424E+03  0.17075903416E+03  0.89002391336E+02 0.  0.
         24    2    1    2    0    0  0.64496377546E+02 -0.29940931393E+02 -0.43193320901E+02  0.11331044847E+03  0.76924330819E+02 0.  0.
        -13    1    4    4    0    0  0.75432008721E+02 -0.41554456030E+01 -0.23665279446E+02  0.79166287769E+02  0.00000000000E+00 0.  1.
         14    1    4    4    0    0 -0.10935631175E+02 -0.25785485790E+02 -0.19528041455E+02  0.34144160697E+02  0.00000000000E+00 0. -1.
        -13    1    3    3    0    0  0.11836833357E+02 -0.22474721816E+02  0.26363535068E+02  0.36609557849E+02  0.00000000000E+00 0. -1.
         13    1    3    3    0    0 -0.42792811608E+02  0.64023805451E+02  0.10984447917E+03  0.13414947631E+03  0.00000000000E+00 0.  1.
         -2    1    1    2    0  502 -0.33540399295E+02 -0.11608152242E+02 -0.16545690646E+03  0.16922084824E+03  0.00000000000E+00 0.  1.
<scales pt_clust_5="13000.00000" pt_clust_6="13000.00000" pt_clust_7="13000.00000" pt_clust_8="13000.00000" pt_clust_9="35.49236"></scales>
<clustering>
<clus scale="   35.492">  2  9  1 -1</clus>
<clus scale="   76.924">  5  6 -1 -1</clus>
<clus scale="   89.002">  7  8 -1 -1</clus>
<clus scale="   94.044">  2  5  1 -1</clus>
<clus scale="   35.492">  2  5  1 -1</clus>
</clustering>
</event>
<event>
 9    2  0.1654290E-004  0.1165101E+03  0.7546771E-02  0.1263822E+00
         21   -1    0    0  501  502  0.00000000000E+00  0.00000000000E+00  0.41499418687E+03  0.41499418687E+03  0.00000000000E+00 0.  1.
          2   -1    0    0  502    0 -0.00000000000E+00 -0.00000000000E+00 -0.74812735112E+02  0.74812735112E+02  0.00000000000E+00 0. -1.
         24    2    1    2    0    0  0.29913044617E+02 -0.13487845706E+02  0.46909903609E+02  0.98717462296E+02  0.80423168835E+02 0.  0.
         23    2    1    2    0    0  0.51337368832E+02  0.61125691307E+02  0.27100119414E+03  0.29430638944E+03  0.82478652161E+02 0.  0.
        -13    1    3    3    0    0  0.54409725563E+02 -0.21706850604E+02  0.42809966452E+02  0.72555487915E+02  0.00000000000E+00 0.  1.
         14    1    3    3    0    0 -0.24496680945E+02  0.82190048982E+01  0.40999371572E+01  0.26161974381E+02  0.00000000000E+00 0. -1.
        -11    1    4    4    0    0  0.23433267503E+02 -0.17677708900E+02  0.95545637112E+02  0.99952929867E+02  0.00000000000E+00 0.  1.
         11    1    4    4    0    0  0.27904101329E+02  0.78803400207E+02  0.17545555702E+03  0.19435345957E+03  0.00000000000E+00 0. -1.
          1    1    1    2  501    0 -0.81250413449E+02 -0.47637845601E+02  0.22270354011E+02  0.96783070250E+02  0.00000000000E+00 0. -1.
<scales pt_clust_5="13000.00000" pt_clust_6="13000.00000" pt_clust_7="13000.00000" pt_clust_8="13000.00000" pt_clust_9="82.29149"></scales>
<clustering>
<clus scale="   80.423">  5  6 -1 -1</clus>
<clus scale="   82.479">  7  8 -1 -1</clus>
<clus scale="   86.860">  2  5  1 -1</clus>
<clus scale="   82.291">  1  9  2 -1</clus>
<clus scale="   82.291">  1  5  2 -1</clus>
</clustering>
</event>
<event>
 9    2  0.1654290E-004  0.3460877E+03  0.7546771E-02  0.1104497E+00
         21   -1    0    0  501  502  0.00000000000E+00  0.00000000000E+00  0.29804879159E+03  0.29804879159E+03  0.00000000000E+00 0. -1.
          2   -1    0    0  502    0 -0.00000000000E+00 -0.00000000000E+00 -0.16713157031E+04  0.16713157031E+04  0.00000000000E+00 0. -1.
         24    2    1    2    0    0  0.20274120227E+02 -0.82894611584E+02 -0.55553434355E+03  0.56792557570E+03  0.81476966630E+02 0.  0.
         23    2    1    2    0    0  0.28821060031E+03 -0.56307541814E+02 -0.97918281896E+03  0.10264639253E+04  0.92700095394E+02 0.  0.
        -13    1    3    3    0    0  0.10317582353E+02 -0.30790705528E+02 -0.50026236740E+02  0.59641800903E+02  0.00000000000E+00 0.  1.
         14    1    3    3    0    0  0.99565378741E+01 -0.52103906056E+02 -0.50550810681E+03  0.50828377480E+03  0.00000000000E+00 0. -1.
        -13    1    4    4    0    0  0.26007269698E+03 -0.28679540625E+02 -0.76043510678E+03  0.80419019851E+03  0.00000000000E+00 0. -1.
         13    1    4    4    0    0  0.28137903333E+02 -0.27628001189E+02 -0.21874771219E+03  0.22227372683E+03  0.00000000000E+00 0.  1.
          1    1    1    2  501    0 -0.30848472054E+03  0.13920215340E+03  0.16145025100E+03  0.37497499365E+03  0.00000000000E+00 0. -1.
<scales pt_clust_5="13000.00000" pt_clust_6="13000.00000" pt_clust_7="13000.00000" pt_clust_8="13000.00000" pt_clust_9="333.44174"></scales>
<clustering>
<clus scale="   81.477">  5  6 -1 -1</clus>
<clus scale="   92.700">  7  8 -1 -1</clus>
<clus scale="  117.988">  2  5  1 -1</clus>
<clus scale="  333.442">  1  9  2 -1</clus>
<clus scale="  333.442">  1  5  2 -1</clus>
</clustering>
</event>
<event>
 9    2  0.1654290E-004  0.8184289E+02  0.7546771E-02  0.1331476E+00
         21   -1    0    0  501  502  0.00000000000E+00  0.00000000000E+00  0.54326628435E+03  0.54326628435E+03  0.00000000000E+00 0. -1.
          4   -1    0    0  502    0 -0.00000000000E+00 -0.00000000000E+00 -0.19122274691E+02  0.19122274691E+02  0.00000000000E+00 0. -1.
         24    2    1    2    0    0 -0.31154409771E+02 -0.38055094075E+01  0.15199994073E+03  0.17457468340E+03  0.79920328793E+02 0.  0.
         23    2    1    2    0    0 -0.45304975106E+01 -0.98038508206E+01  0.26139143386E+03  0.27066109732E+03  0.69392413164E+02 0.  0.
        -13    1    3    3    0    0  0.22789447693E+01 -0.37960828334E+02  0.69939714613E+02  0.79610186265E+02  0.00000000000E+00 0.  1.
         14    1    3    3    0    0 -0.33433354540E+02  0.34155318927E+02  0.82060226113E+02  0.94964497137E+02  0.00000000000E+00 0. -1.
        -13    1    4    4    0    0  0.32434719242E+02 -0.39706479608E+01  0.11372080449E+03  0.11832243419E+03  0.00000000000E+00 0.  1.
         13    1    4    4    0    0 -0.36965216753E+02 -0.58332028598E+01  0.14767062937E+03  0.15233866313E+03  0.00000000000E+00 0. -1.
          3    1    1    2  501    0  0.35684907281E+02  0.13609360228E+02  0.11075263507E+03  0.11715277832E+03  0.00000000000E+00 0. -1.
<scales pt_clust_5="13000.00000" pt_clust_6="13000.00000" pt_clust_7="13000.00000" pt_clust_8="13000.00000" pt_clust_9="38.19198"></scales>
<clustering>
<clus scale="   38.192">  1  9  2 -1</clus>
<clus scale="   69.392">  7  8 -1 -1</clus>
<clus scale="   71.598">  1  7  2 -1</clus>
<clus scale="   79.920">  5  6 -1 -1</clus>
<clus scale="   38.192">  1  5  2 -1</clus>
</clustering>
</event>
<event>
 9    2  0.1654290E-004  0.4696033E+03  0.7546771E-02  0.1022032E+00
          2   -1    0    0  502    0 -0.00000000000E+00  0.00000000000E+00  0.13891837825E+04  0.13891837825E+04  0.00000000000E+00 0. -1.
         21   -1    0    0  501  502  0.00000000000E+00 -0.00000000000E+00 -0.15263852622E+03  0.15263852622E+03  0.00000000000E+00 0. -1.
         24    2    1    2    0    0  0.83549247004E+02  0.10524205780E+03  0.12132502200E+03  0.19771054211E+03  0.79456466641E+02 0.  0.
         23    2    1    2    0    0  0.25033191279E+03  0.15895068425E+03  0.34527928179E+03  0.46429161220E+03  0.91747109704E+02 0.  0.
        -11    1    3    3    0    0  0.47525898548E+02  0.19982249682E+02  0.92875346546E+01  0.52385681585E+02  0.00000000000E+00 0.  1.
         12    1    3    3    0    0  0.36023348456E+02  0.85259808118E+02  0.11203748735E+03  0.14532486052E+03  0.00000000000E+00 0. -1.
        -11    1    4    4    0    0  0.14958684609E+03  0.45749421946E+02  0.14631523734E+03  0.21419006235E+03  0.00000000000E+00 0. -1.
         11    1    4    4    0    0  0.10074506670E+03  0.11320126231E+03  0.19896404445E+03  0.25010154985E+03  0.00000000000E+00 0.  1.
          1    1    1    2  501    0 -0.33388115979E+03 -0.26419274205E+03  0.76994095253E+03  0.87982015447E+03  0.00000000000E+00 0. -1.
<scales pt_clust_5="13000.00000" pt_clust_6="13000.00000" pt_clust_7="13000.00000" pt_clust_8="13000.00000" pt_clust_9="425.76357"></scales>
<clustering>
<clus scale="   79.456">  5  6 -1 -1</clus>
<clus scale="   91.747">  7  8 -1 -1</clus>
<clus scale="  109.600">  5  7 -1 -1</clus>
<clus scale="  425.764">  2  9  1 -1</clus>
<clus scale="  425.764">  2  5  1 -1</clus>
</clustering>
</event>
<event>
 9    2  0.1654290E-004  0.1148734E+03  0.7546771E-02  0.1256431E+00
         21   -1    0    0  501  502  0.00000000000E+00  0.00000000000E+00  0.88810052673E+02  0.88810052673E+02  0.00000000000E+00 0.  1.
          2   -1    0    0  502    0 -0.00000000000E+00 -0.00000000000E+00 -0.23956521025E+03  0.23956521025E+03  0.00000000000E+00 0. -1.
         24    2    1    2    0    0  0.23047361921E+02  0.61396169458E+02 -0.14582695636E+03  0.17838323699E+03  0.79084812201E+02 0.  0.
         23    2    1    2    0    0 -0.76175312976E+01 -0.82422219162E+02 -0.25216469801E+01  0.12380107440E+03  0.92026617474E+02 0.  0.
        -13    1    3    3    0    0  0.44892656433E+02  0.32426608554E+02 -0.45423029720E+02  0.71624626860E+02  0.00000000000E+00 0.  1.
         14    1    3    3    0    0 -0.21845294513E+02  0.28969560904E+02 -0.10040392664E+03  0.10675861013E+03  0.00000000000E+00 0. -1.
        -11    1    4    4    0    0 -0.27604450852E+02  0.66733900690E+01  0.12910069882E+02  0.31196309818E+02  0.00000000000E+00 0. -1.
         11    1    4    4    0    0  0.19986919555E+02 -0.89095609231E+02 -0.15431716863E+02  0.92604764579E+02  0.00000000000E+00 0.  1.
          1    1    1    2  501    0 -0.15429830623E+02  0.21026049703E+02 -0.24065542355E+01  0.26190951538E+02  0.00000000000E+00 0. -1.
<scales pt_clust_5="13000.00000" pt_clust_6="13000.00000" pt_clust_7="13000.00000" pt_clust_8="13000.00000" pt_clust_9="26.08015"></scales>
<clustering>
<clus scale="   26.080">  1  9  2 -1</clus>
<clus scale="   79.085">  5  6 -1 -1</clus>
<clus scale="   92.027">  7  8 -1 -1</clus>
<clus scale="  104.792">  2  5  1 -1</clus>
<clus scale="   26.080">  1  5  2 -1</clus>
</clustering>
</event>
<event>
 9    2  0.1654290E-004  0.9031773E+02  0.7546771E-02  0.1306738E+00
          2   -1    0    0  502    0 -0.00000000000E+00  0.00000000000E+00  0.41041748088E+03  0.41041748088E+03  0.00000000000E+00 0. -1.
         21   -1    0    0  501  502  0.00000000000E+00 -0.00000000000E+00 -0.65571006104E+02  0.65571006104E+02  0.00000000000E+00 0.  1.
         24    2    1    2    0    0 -0.23405156619E+02  0.56215612115E+01  0.28643263931E+03  0.29852781209E+03  0.80596491369E+02 0.  0.
         23    2    1    2    0    0  0.65493144993E+00 -0.17168990859E+02  0.96359502252E+02  0.13173552313E+03  0.88169672778E+02 0.  0.
        -11    1    3    3    0    0 -0.44441956984E+02 -0.12083985131E+02  0.10021610298E+03  0.11029223696E+03  0.00000000000E+00 0.  1.
         12    1    3    3    0    0  0.21036800364E+02  0.17705546343E+02  0.18621653633E+03  0.18823557513E+03  0.00000000000E+00 0. -1.
        -11    1    4    4    0    0  0.23733241149E+02 -0.17685101574E+02 -0.29816358374E+01  0.29747599993E+02  0.00000000000E+00 0.  1.
         11    1    4    4    0    0 -0.23078309699E+02  0.51611071457E+00  0.99341138090E+02  0.10198792314E+03  0.00000000000E+00 0. -1.
          1    1    1    2  501    0  0.22750225169E+02  0.11547429648E+02 -0.37945666784E+02  0.45725151770E+02  0.00000000000E+00 0. -1.
<scales pt_clust_5="13000.00000" pt_clust_6="13000.00000" pt_clust_7="13000.00000" pt_clust_8="13000.00000" pt_clust_9="25.51305"></scales>
<clustering>
<clus scale="   25.513">  2  9  1 -1</clus>
<clus scale="   80.596">  5  6 -1 -1</clus>
<clus scale="   82.941">  1  5  2 -1</clus>
<clus scale="   88.170">  7  8 -1 -1</clus>
<clus scale="   25.513">  2  5  1 -1</clus>
</clustering>
</event>
<event>
 9    2  0.1654290E-004  0.1006914E+03  0.7546771E-02  0.1284314E+00
         21   -1    0    0  501  502  0.00000000000E+00  0.00000000000E+00  0.69132226963E+02  0.69132226963E+02  0.00000000000E+00 0. -1.
         -1   -1    0    0    0  501 -0.00000000000E+00 -0.00000000000E+00 -0.23138827316E+03  0.23138827316E+03  0.00000000000E+00 0.  1.
         24    2    1    2    0    0  0.33423952127E+02  0.50825855570E+01 -0.38183035671E+02  0.95202538524E+02  0.80390210079E+02 0.  0.
         23    2    1    2    0    0 -0.51771064009E+02  0.24770064474E+02 -0.41583236299E+02  0.11569452672E+03  0.91445387024E+02 0.  0.
        -13    1    3    3    0    0 -0.14975533485E+02 -0.14961381135E+02 -0.37207346715E+02  0.42807664947E+02  0.00000000000E+00 0.  1.
         14    1    3    3    0    0  0.48399485612E+02  0.20043966692E+02 -0.97568895623E+00  0.52394873577E+02  0.00000000000E+00 0. -1.
        -13    1    4    4    0    0  0.23649689197E+02  0.31973583914E+01 -0.26769429648E+02  0.35862700170E+02  0.00000000000E+00 0.  1.
         13    1    4    4    0    0 -0.75420753207E+02  0.21572706083E+02 -0.14813806651E+02  0.79831826545E+02  0.00000000000E+00 0. -1.
         -2    1    1    2    0  502  0.18347111882E+02 -0.29852650031E+02 -0.82489774224E+02  0.89623434880E+02  0.00000000000E+00 0.  1.
<scales pt_clust_5="13000.00000" pt_clust_6="13000.00000" pt_clust_7="13000.00000" pt_clust_8="13000.00000" pt_clust_9="35.03996"></scales>
<clustering>
<clus scale="   35.040">  1  9  2 -1</clus>
<clus scale="   80.390">  5  6 -1 -1</clus>
<clus scale="   90.769">  2  5  1 -1</clus>
<clus scale="   91.445">  7  8 -1 -1</clus>
<clus scale="   35.040">  1  5  2 -1</clus>
</clustering>
</event>
<event>
 9    2  0.1654290E-004  0.1148598E+03  0.7546771E-02  0.1257102E+00
         21   -1    0    0  501  502  0.00000000000E+00  0.00000000000E+00  0.54568761209E+02  0.54568761209E+02  0.00000000000E+00 0. -1.
          2   -1    0    0  502    0 -0.00000000000E+00 -0.00000000000E+00 -0.39649103720E+03  0.39649103720E+03  0.00000000000E+00 0. -1.
         24    2    1    2    0    0  0.72899907626E+02  0.18410482154E+02 -0.26923804255E+03  0.29088855507E+03  0.80459216541E+02 0.  0.
         23    2    1    2    0    0 -0.35821040016E+02 -0.16815327829E+02 -0.67175395386E+02  0.12265145873E+03  0.94683390441E+02 0.  0.
        -11    1    3    3    0    0  0.33204216484E+02  0.29677045709E+02 -0.46595683815E+02  0.64454672325E+02  0.00000000000E+00 0.  1.
         12    1    3    3    0    0  0.39695691143E+02 -0.11266563555E+02 -0.22264235874E+03  0.22643388274E+03  0.00000000000E+00 0. -1.
        -13    1    4    4    0    0 -0.12175040603E+02 -0.55570377514E+02 -0.32436191256E+02  0.65485914317E+02  0.00000000000E+00 0. -1.
         13    1    4    4    0    0 -0.23645999414E+02  0.38755049685E+02 -0.34739204130E+02  0.57165544412E+02  0.00000000000E+00 0.  1.
          1    1    1    2  501    0 -0.37078867610E+02 -0.15951543248E+01 -0.55088380518E+01  0.37519784611E+02  0.00000000000E+00 0. -1.
<scales pt_clust_5="13000.00000" pt_clust_6="13000.00000" pt_clust_7="13000.00000" pt_clust_8="13000.00000" pt_clust_9="37.11316"></scales>
<clustering>
<clus scale="   37.113">  1  9  2 -1</clus>
<clus scale="   80.459">  5  6 -1 -1</clus>
<clus scale="   94.683">  7  8 -1 -1</clus>
<clus scale="  103.448">  2  5  1 -1</clus>
<clus scale="   37.113">  1  5  2 -1</clus>
</clustering>
</event>
<event>
 9    2  0.1654290E-004  0.1124724E+03  0.7546771E-02  0.1258901E+00
          2   -1    0    0  502    0 -0.00000000000E+00  0.00000000000E+00  0.63318966682E+03  0.63318966682E+03  0.00000000000E+00 0. -1.
         21   -1    0    0  501  502  0.00000000000E+00 -0.00000000000E+00 -0.30311455641E+02  0.30311455641E+02  0.00000000000E+00 0. -1.
         24    2    1    2    0    0 -0.18789403209E+02  0.48905717790E+02  0.18314915829E+03  0.20859542115E+03  0.84991909246E+02 0.  0.
         23    2    1    2    0    0 -0.14309302263E+02 -0.80870306138E+02  0.24851096698E+03  0.27761246356E+03  0.92553858182E+02 0.  0.
        -11    1    3    3    0    0  0.30995251808E+02  0.21248572222E+02  0.41824661180E+02  0.56227304212E+02  0.00000000000E+00 0.  1.
         12    1    3    3    0    0 -0.49784655017E+02  0.27657145568E+02  0.14132449711E+03  0.15236811694E+03  0.00000000000E+00 0. -1.
        -11    1    4    4    0    0  0.31899227879E+02 -0.10601924759E+02  0.36972154380E+02  0.49969007869E+02  0.00000000000E+00 0.  1.
         11    1    4    4    0    0 -0.46208530142E+02 -0.70268381379E+02  0.21153881260E+03  0.22764345569E+03  0.00000000000E+00 0. -1.
          1    1    1    2  501    0  0.33098705473E+02  0.31964588349E+02  0.17121808591E+03  0.17729323775E+03  0.00000000000E+00 0. -1.
<scales pt_clust_5="13000.00000" pt_clust_6="13000.00000" pt_clust_7="13000.00000" pt_clust_8="13000.00000" pt_clust_9="46.01371"></scales>
<clustering>
<clus scale="   46.014">  2  9  1 -1</clus>
<clus scale="   84.992">  5  6 -1 -1</clus>
<clus scale="   92.554">  7  8 -1 -1</clus>
<clus scale="  106.337">  1  5  2 -1</clus>
<clus scale="   46.014">  2  5  1 -1</clus>
</clustering>
</event>
<event>
 9    2  0.1654290E-004  0.1497228E+03  0.7546771E-02  0.1223099E+00
         21   -1    0    0  501  502  0.00000000000E+00  0.00000000000E+00  0.24389193486E+03  0.24389193486E+03  0.00000000000E+00 0. -1.
          2   -1    0    0  502    0 -0.00000000000E+00 -0.00000000000E+00 -0.34890351998E+03  0.34890351998E+03  0.00000000000E+00 0. -1.
         24    2    1    2    0    0 -0.20604953627E+01 -0.57864281126E+02 -0.23478678506E+03  0.25259808992E+03  0.72996163754E+02 0.  0.
         23    2    1    2    0    0 -0.79859553755E+02  0.13078804947E+03  0.12308247836E+02  0.17948876131E+03  0.92637250934E+02 0.  0.
        -13    1    3    3    0    0  0.33988732625E+01 -0.74916866935E+02 -0.19674223927E+03  0.21055070174E+03  0.00000000000E+00 0.  1.
         14    1    3    3    0    0 -0.54593686253E+01  0.17052585809E+02 -0.38044545791E+02  0.42047388183E+02  0.00000000000E+00 0. -1.
        -11    1    4    4    0    0  0.19730155389E+02  0.90982745661E+01 -0.38831184633E+00  0.21730357057E+02  0.00000000000E+00 0.  1.
         11    1    4    4    0    0 -0.99589709144E+02  0.12168977491E+03  0.12696559682E+02  0.15775840425E+03  0.00000000000E+00 0. -1.
          1    1    1    2  501    0  0.81920049118E+02 -0.72923768347E+02  0.11746695211E+03  0.16070860361E+03  0.00000000000E+00 0. -1.
<scales pt_clust_5="13000.00000" pt_clust_6="13000.00000" pt_clust_7="13000.00000" pt_clust_8="13000.00000" pt_clust_9="117.62337"></scales>
<clustering>
<clus scale="   72.996">  5  6 -1 -1</clus>
<clus scale="   92.637">  7  8 -1 -1</clus>
<clus scale="   93.172">  2  5  1 -1</clus>
<clus scale="  117.623">  1  9  2 -1</clus>
<clus scale="  117.623">  1  5  2 -1</clus>
</clustering>
</event>
<event>
 9    2  0.1654290E-004  0.1772502E+03  0.7546771E-02  0.1172713E+00
          2   -1    0    0  502    0 -0.00000000000E+00  0.00000000000E+00  0.67911618754E+03  0.67911618754E+03  0.00000000000E+00 0. -1.
         21   -1    0    0  501  502  0.00000000000E+00 -0.00000000000E+00 -0.15855284338E+03  0.15855284338E+03  0.00000000000E+00 0. -1.
         24    2    1    2    0    0 -0.14004578922E+03 -0.68281117669E+02  0.30438935278E+03  0.35065576856E+03  0.77662448028E+02 0.  0.
         23    2    1    2    0    0  0.16658221848E+03 -0.10342788874E+03  0.11117857647E+02  0.21824536446E+03  0.95186494138E+02 0.  0.
        -11    1    3    3    0    0 -0.37769676840E+02 -0.35883524317E+02  0.41134862213E+02  0.66379610539E+02  0.00000000000E+00 0.  1.
         12    1    3    3    0    0 -0.10227611238E+03 -0.32397593353E+02  0.26325449056E+03  0.28427615802E+03  0.00000000000E+00 0. -1.
        -11    1    4    4    0    0  0.35269732314E+02 -0.74244702833E+02  0.15558462927E+02  0.83655816803E+02  0.00000000000E+00 0.  1.
         11    1    4    4    0    0  0.13131248617E+03 -0.29183185904E+02 -0.44406052798E+01  0.13458954766E+03  0.00000000000E+00 0. -1.
          1    1    1    2  501    0 -0.26536429263E+02  0.17170900641E+03  0.20505613374E+03  0.26876789790E+03  0.00000000000E+00 0. -1.
<scales pt_clust_5="13000.00000" pt_clust_6="13000.00000" pt_clust_7="13000.00000" pt_clust_8="13000.00000" pt_clust_9="173.74750"></scales>
<clustering>
<clus scale="   77.662">  5  6 -1 -1</clus>
<clus scale="   95.186">  7  8 -1 -1</clus>
<clus scale="  173.748">  2  9  1 -1</clus>
<clus scale="  168.489">  1  5  2 -1</clus>
<clus scale="  173.748">  2  5  1 -1</clus>
</clustering>
</event>
<event>
 9    2  0.1654290E-004  0.1023297E+03  0.7546771E-02  0.1281883E+00
         21   -1    0    0  501  502  0.00000000000E+00  0.00000000000E+00  0.22395055797E+03  0.22395055797E+03  0.00000000000E+00 0.  1.
         -1   -1    0    0    0  501 -0.00000000000E+00 -0.00000000000E+00 -0.24842454132E+03  0.24842454132E+03  0.00000000000E+00 0.  1.
         23    2    1    2    0    0 -0.34147147612E+02 -0.25891827861E+02 -0.21765486557E+03  0.24078287835E+03  0.93628732571E+02 0.  0.
         24    2    1    2    0    0  0.34824684978E+02 -0.42395509779E+01  0.97464325260E+02  0.13124274001E+03  0.80589264985E+02 0.  0.
        -11    1    4    4    0    0 -0.14870633127E+02 -0.19028885263E+02  0.66737259412E+02  0.70972501701E+02  0.00000000000E+00 0.  1.
         12    1    4    4    0    0  0.49695318106E+02  0.14789334285E+02  0.30727065848E+02  0.60270238309E+02  0.00000000000E+00 0. -1.
        -11    1    3    3    0    0 -0.12077066684E+02 -0.60467189671E+02 -0.12174661642E+03  0.13647115145E+03  0.00000000000E+00 0.  1.
         11    1    3    3    0    0 -0.22070080928E+02  0.34575361810E+02 -0.95908249143E+02  0.10431172691E+03  0.00000000000E+00 0. -1.
         -2    1    1    2    0  502 -0.67753736650E+00  0.30131378838E+02  0.95716556950E+02  0.10034948093E+03  0.00000000000E+00 0.  1.
<scales pt_clust_5="13000.00000" pt_clust_6="13000.00000" pt_clust_7="13000.00000" pt_clust_8="13000.00000" pt_clust_9="30.13900"></scales>
<clustering>
<clus scale="   30.139">  1  9  2 -1</clus>
<clus scale="   80.589">  5  6 -1 -1</clus>
<clus scale="   90.552">  1  5  2 -1</clus>
<clus scale="   93.629">  7  8 -1 -1</clus>
<clus scale="   30.139">  1  5  2 -1</clus>
</clustering>
</event>
<event>
 9    2  0.1654290E-004  0.1643481E+03  0.7546771E-02  0.1185466E+00
         21   -1    0    0  501  502  0.00000000000E+00  0.00000000000E+00  0.64649728535E+03  0.64649728535E+03  0.00000000000E+00 0.  1.
          2   -1    0    0  502    0 -0.00000000000E+00 -0.00000000000E+00 -0.10127794475E+03  0.10127794475E+03  0.00000000000E+00 0. -1.
         24    2    1    2    0    0 -0.14263452243E+02  0.13133240588E+03 -0.19564007929E+01  0.15500031176E+03  0.81053206203E+02 0.  0.
         23    2    1    2    0    0 -0.87630126158E+01 -0.16393557481E+03  0.45181191645E+03  0.48939482444E+03  0.91769402662E+02 0.  0.
        -13    1    3    3    0    0 -0.21138225882E+01  0.90269996044E+02  0.36549735093E+02  0.97411619261E+02  0.00000000000E+00 0.  1.
         14    1    3    3    0    0 -0.12149629654E+02  0.41062409839E+02 -0.38506135886E+02  0.57588692495E+02  0.00000000000E+00 0. -1.
        -13    1    4    4    0    0 -0.34021886171E+02 -0.99781945751E+02  0.35649077337E+03  0.37175206379E+03  0.00000000000E+00 0.  1.
         13    1    4    4    0    0  0.25258873556E+02 -0.64153629059E+02  0.95321143081E+02  0.11764276065E+03  0.00000000000E+00 0. -1.
          1    1    1    2  501    0  0.23026464858E+02  0.32603168927E+02  0.95363824936E+02  0.10338009390E+03  0.00000000000E+00 0. -1.
<scales pt_clust_5="13000.00000" pt_clust_6="13000.00000" pt_clust_7="13000.00000" pt_clust_8="13000.00000" pt_clust_9="39.91472"></scales>
<clustering>
<clus scale="   39.915">  1  9  2 -1</clus>
<clus scale="   81.053">  5  6 -1 -1</clus>
<clus scale="   91.769">  7  8 -1 -1</clus>
<clus scale="  158.614">  2  5  1 -1</clus>
<clus scale="   39.915">  1  5  2 -1</clus>
</clustering>
</event>
<event>
 9    2  0.1654290E-004  0.1968633E+03  0.7546771E-02  0.1161835E+00
          2   -1    0    0  502    0 -0.00000000000E+00  0.00000000000E+00  0.91118340216E+03  0.91118340216E+03  0.00000000000E+00 0. -1.
         21   -1    0    0  501  502  0.00000000000E+00 -0.00000000000E+00 -0.11755251242E+03  0.11755251242E+03  0.00000000000E+00 0. -1.
         23    2    1    2    0    0  0.13121104383E+03 -0.89772689234E+01  0.73660798207E+02  0.17424917525E+03  0.87406707412E+02 0.  0.
         24    2    1    2    0    0 -0.15049204276E+02 -0.15108811598E+03  0.59821564489E+03  0.62223978954E+03  0.79159968100E+02 0.  0.
        -11    1    4    4    0    0 -0.11764838952E+02 -0.18954355449E+02  0.23031460510E+02  0.32064422640E+02  0.00000000000E+00 0.  1.
         12    1    4    4    0    0 -0.32843653245E+01 -0.13213376053E+03  0.57518418438E+03  0.59017536690E+03  0.00000000000E+00 0. -1.
        -11    1    3    3    0    0  0.13613836551E+02  0.30710106939E+02  0.12082042259E+02  0.35699061038E+02  0.00000000000E+00 0.  1.
         11    1    3    3    0    0  0.11759720728E+03 -0.39687375862E+02  0.61578755948E+02  0.13855011421E+03  0.00000000000E+00 0. -1.
          1    1    1    2  501    0 -0.11616183956E+03  0.16006538490E+03  0.12175444664E+03  0.23224694980E+03  0.00000000000E+00 0. -1.
<scales pt_clust_5="13000.00000" pt_clust_6="13000.00000" pt_clust_7="13000.00000" pt_clust_8="13000.00000" pt_clust_9="180.24661"></scales>
<clustering>
<clus scale="   79.160">  5  6 -1 -1</clus>
<clus scale="   87.407">  7  8 -1 -1</clus>
<clus scale="  157.914">  1  7  2 -1</clus>
<clus scale="  180.247">  2  9  1 -1</clus>
<clus scale="  180.247">  2  5  1 -1</clus>
</clustering>
</event>
<event>
 9    2  0.1654290E-004  0.1236304E+03  0.7546771E-02  0.1246257E+00
         21   -1    0    0  501  502  0.00000000000E+00  0.00000000000E+00  0.48091846375E+03  0.48091846375E+03  0.00000000000E+00 0.  1.
         -3   -1    0    0    0  501 -0.00000000000E+00 -0.00000000000E+00 -0.68709286756E+02  0.68709286756E+02  0.00000000000E+00 0.  1.
         23    2    1    2    0    0 -0.38426758032E+02  0.40944031772E+02  0.21188261433E+02  0.12690885265E+03  0.11182077172E+03 0.  0.
         24    2    1    2    0    0  0.58841954218E+02  0.77279697415E+01  0.28585026346E+03  0.30504727838E+03  0.88438520077E+02 0.  0.
        -11    1    4    4    0    0  0.78576102107E+02  0.17738460916E+02  0.18464728113E+03  0.20145340713E+03  0.00000000000E+00 0.  1.
         12    1    4    4    0    0 -0.19734147889E+02 -0.10010491175E+02  0.10120298233E+03  0.10359387124E+03  0.00000000000E+00 0. -1.
        -13    1    3    3    0    0 -0.58765745441E+02 -0.12852994981E+02 -0.10772039255E+02  0.61111775845E+02  0.00000000000E+00 0. -1.
         13    1    3    3    0    0  0.20338987409E+02  0.53797026753E+02  0.31960300688E+02  0.65797076807E+02  0.00000000000E+00 0.  1.
         -4    1    1    2    0  502 -0.20415196186E+02 -0.48672001514E+02  0.10517065211E+03  0.11767161948E+03  0.00000000000E+00 0.  1.
<scales pt_clust_5="13000.00000" pt_clust_6="13000.00000" pt_clust_7="13000.00000" pt_clust_8="13000.00000" pt_clust_9="52.78015"></scales>
<clustering>
<clus scale="   52.780">  1  9  2 -1</clus>
<clus scale="   88.439">  5  6 -1 -1</clus>
<clus scale="  102.966">  1  5  2 -1</clus>
<clus scale="  111.821">  7  8 -1 -1</clus>
<clus scale="   52.780">  1  5  2 -1</clus>
</clustering>
</event>
<event>
 9    2  0.1654290E-004  0.1432382E+03  0.7546771E-02  0.1233367E+00
         -1   -1    0    0    0  501 -0.00000000000E+00  0.00000000000E+00  0.15263708116E+03  0.15263708116E+03  0.00000000000E+00 0.  1.
         21   -1    0    0  501  502  0.00000000000E+00 -0.00000000000E+00 -0.31423346521E+03  0.31423346521E+03  0.00000000000E+00 0. -1.
         24    2    1    2    0    0  0.89552172954E+01 -0.63086456988E+01  0.13172009941E+02  0.87027142623E+02  0.85324244971E+02 0.  0.
         23    2    1    2    0    0  0.65594781487E+02 -0.83039342566E+02 -0.21437804741E+03  0.25692192487E+03  0.94088896781E+02 0.  0.
        -11    1    3    3    0    0  0.31625615902E+02 -0.34385357295E+02  0.19073329216E+02  0.50461116366E+02  0.00000000000E+00 0.  1.
         12    1    3    3    0    0 -0.22670398607E+02  0.28076711596E+02 -0.59013192756E+01  0.36566026257E+02  0.00000000000E+00 0. -1.
        -11    1    4    4    0    0  0.61846117739E+02 -0.17857158142E+02 -0.54926627707E+02  0.84621243240E+02  0.00000000000E+00 0.  1.
         11    1    4    4    0    0  0.37486637477E+01 -0.65182184424E+02 -0.15945141970E+03  0.17230068163E+03  0.00000000000E+00 0. -1.
         -2    1    1    2    0  502 -0.74549998782E+02  0.89347988265E+02  0.39609653415E+02  0.12292147888E+03  0.00000000000E+00 0.  1.
<scales pt_clust_5="13000.00000" pt_clust_6="13000.00000" pt_clust_7="13000.00000" pt_clust_8="13000.00000" pt_clust_9="108.00216"></scales>
<clustering>
<clus scale="   85.324">  5  6 -1 -1</clus>
<clus scale="   86.025">  1  5  2 -1</clus>
<clus scale="   94.089">  7  8 -1 -1</clus>
<clus scale="  108.002">  2  9  1 -1</clus>
<clus scale="  108.002">  2  5  1 -1</clus>
</clustering>
</event>
<event>
 9    2  0.1654290E-004  0.1345277E+03  0.7546771E-02  0.1225143E+00
         21   -1    0    0  501  502  0.00000000000E+00  0.00000000000E+00  0.67813827252E+02  0.67813827252E+02  0.00000000000E+00 0.  1.
          2   -1    0    0  502    0 -0.00000000000E+00 -0.00000000000E+00 -0.54559188158E+03  0.54559188158E+03  0.00000000000E+00 0. -1.
         23    2    1    2    0    0  0.10193147331E+03  0.28364704927E+01 -0.45009262239E+03  0.47036210669E+03  0.90879435860E+02 0.  0.
         24    2    1    2    0    0 -0.84836550512E+02  0.10932021155E+02 -0.65381466205E+01  0.11256384782E+03  0.72877452512E+02 0.  0.
        -13    1    4    4    0    0 -0.86354217616E+02  0.25818715696E+02 -0.20126312117E+02  0.92351098638E+02  0.00000000000E+00 0.  1.
         14    1    4    4    0    0  0.15176671033E+01 -0.14886694540E+02  0.13588165497E+02  0.20212749178E+02  0.00000000000E+00 0. -1.
        -11    1    3    3    0    0  0.21571695124E+02 -0.23698514418E+02 -0.38182240615E+02  0.49848180654E+02  0.00000000000E+00 0.  1.
         11    1    3    3    0    0  0.80359778184E+02  0.26534984911E+02 -0.41191038177E+03  0.42051392603E+03  0.00000000000E+00 0. -1.
          1    1    1    2  501    0 -0.17094922796E+02 -0.13768491648E+02 -0.21147285321E+02  0.30479754331E+02  0.00000000000E+00 0. -1.
<scales pt_clust_5="13000.00000" pt_clust_6="13000.00000" pt_clust_7="13000.00000" pt_clust_8="13000.00000" pt_clust_9="21.95012"></scales>
<clustering>
<clus scale="   21.950">  1  9  2 -1</clus>
<clus scale="   72.877">  5  6 -1 -1</clus>
<clus scale="   90.879">  7  8 -1 -1</clus>
<clus scale="  123.084">  1  5  2 -1</clus>
<clus scale="   21.950">  1  5  2 -1</clus>
</clustering>
</event>
<event>
 9    2  0.1654290E-004  0.1174132E+03  0.7546771E-02  0.1250343E+00
         21   -1    0    0  501  502  0.00000000000E+00  0.00000000000E+00  0.28022960297E+03  0.28022960297E+03  0.00000000000E+00 0. -1.
          2   -1    0    0  502    0 -0.00000000000E+00 -0.00000000000E+00 -0.27506175739E+03  0.27506175739E+03  0.00000000000E+00 0. -1.
         23    2    1    2    0    0  0.19762268773E+02 -0.64219546071E+02 -0.18975328728E+03  0.22021861639E+03  0.89304152218E+02 0.  0.
         24    2    1    2    0    0 -0.30153997684E+02  0.12780747227E+03  0.28433829336E+02  0.15655262012E+03  0.80350648241E+02 0.  0.
        -13    1    4    4    0    0 -0.38884649142E+02  0.11312581220E+03  0.49475933497E+02  0.12945011904E+03  0.00000000000E+00 0.  1.
         14    1    4    4    0    0  0.87306514579E+01  0.14681660067E+02 -0.21042104161E+02  0.27102501079E+02  0.00000000000E+00 0. -1.
        -13    1    3    3    0    0 -0.24912230672E+00 -0.79508476651E+02 -0.17175243270E+03  0.18926319784E+03  0.00000000000E+00 0. -1.
         13    1    3    3    0    0  0.20011391079E+02  0.15288930580E+02 -0.18000854587E+02  0.30955418541E+02  0.00000000000E+00 0.  1.
          1    1    1    2  501    0  0.10391728911E+02 -0.63587926196E+02  0.16648730352E+03  0.17852012386E+03  0.00000000000E+00 0. -1.
<scales pt_clust_5="13000.00000" pt_clust_6="13000.00000" pt_clust_7="13000.00000" pt_clust_8="13000.00000" pt_clust_9="64.43145"></scales>
<clustering>
<clus scale="   64.431">  1  9  2 -1</clus>
<clus scale="   80.351">  5  6 -1 -1</clus>
<clus scale="   89.304">  7  8 -1 -1</clus>
<clus scale="  110.756">  1  5  2 -1</clus>
<clus scale="   64.431">  1  5  2 -1</clus>
</clustering>
</event>
<event>
 9    2  0.1654290E-004  0.1051193E+03  0.7546771E-02  0.1275840E+00
         -1   -1    0    0    0  501 -0.00000000000E+00  0.00000000000E+00  0.21487288149E+03  0.21487288149E+03  0.00000000000E+00 0.  1.
         21   -1    0    0  501  502  0.00000000000E+00 -0.00000000000E+00 -0.88714100297E+02  0.88714100297E+02  0.00000000000E+00 0. -1.
         23    2    1    2    0    0  0.35734850570E+02  0.32687495603E+02  0.90105878928E+02  0.13834308403E+03  0.93135855429E+02 0.  0.
         24    2    1    2    0    0 -0.19898419600E+01 -0.61879139398E+02 -0.92828537496E+01  0.10163408368E+03  0.80064525408E+02 0.  0.
        -11    1    4    4    0    0 -0.25061616346E+02  0.49204711868E+01 -0.16790085344E+02  0.30564728306E+02  0.00000000000E+00 0.  1.
         12    1    4    4    0    0  0.23071774386E+02 -0.66799610584E+02  0.75072315944E+01  0.71069355377E+02  0.00000000000E+00 0. -1.
        -11    1    3    3    0    0 -0.82433172349E+01  0.48340453258E+02  0.74368361849E+02  0.89080889895E+02  0.00000000000E+00 0. -1.
         11    1    3    3    0    0  0.43978167805E+02 -0.15652957655E+02  0.15737517078E+02  0.49262194132E+02  0.00000000000E+00 0.  1.
         -2    1    1    2    0  502 -0.33745008610E+02  0.29191643794E+02  0.45335756014E+02  0.63609814077E+02  0.00000000000E+00 0.  1.
<scales pt_clust_5="13000.00000" pt_clust_6="13000.00000" pt_clust_7="13000.00000" pt_clust_8="13000.00000" pt_clust_9="44.61927"></scales>
<clustering>
<clus scale="   44.619">  2  9  1 -1</clus>
<clus scale="   80.065">  5  6 -1 -1</clus>
<clus scale="   93.136">  7  8 -1 -1</clus>
<clus scale="   93.734">  2  5  1 -1</clus>
<clus scale="   44.619">  2  5  1 -1</clus>
</clustering>
</event>
<event>
 9    2  0.1654290E-004  0.1110776E+03  0.7546771E-02  0.1266353E+00
         21   -1    0    0  501  502  0.00000000000E+00  0.00000000000E+00  0.62056110451E+02  0.62056110451E+02  0.00000000000E+00 0.  1.
         -3   -1    0    0    0  501 -0.00000000000E+00 -0.00000000000E+00 -0.46497609407E+03  0.46497609407E+03  0.00000000000E+00 0.  1.
         24    2    1    2    0    0  0.34922995022E+02 -0.30217004766E+02 -0.22236367492E+03  0.24115686245E+03  0.81106999855E+02 0.  0.
         23    2    1    2    0    0 -0.45013036601E+02  0.58199590337E+02 -0.22982017948E+02  0.12551795640E+03  0.99061690120E+02 0.  0.
        -11    1    3    3    0    0  0.43834248739E+02  0.15660459510E+02 -0.10700302364E+03  0.11668906728E+03  0.00000000000E+00 0.  1.
         12    1    3    3    0    0 -0.89112537177E+01 -0.45877464276E+02 -0.11536065128E+03  0.12446779518E+03  0.00000000000E+00 0. -1.
        -11    1    4    4    0    0 -0.68482936733E+02  0.54016168925E+02 -0.40270087470E+02  0.96069449222E+02  0.00000000000E+00 0.  1.
         11    1    4    4    0    0  0.23469900133E+02  0.41834214124E+01  0.17288069522E+02  0.29448507174E+02  0.00000000000E+00 0. -1.
         -4    1    1    2    0  502  0.10090041579E+02 -0.27982585571E+02 -0.15757429075E+03  0.16035738568E+03  0.00000000000E+00 0.  1.
<scales pt_clust_5="13000.00000" pt_clust_6="13000.00000" pt_clust_7="13000.00000" pt_clust_8="13000.00000" pt_clust_9="29.74617"></scales>
<clustering>
<clus scale="   29.746">  1  9  2 -1</clus>
<clus scale="   81.107">  5  6 -1 -1</clus>
<clus scale="   95.412">  2  5  1 -1</clus>
<clus scale="   99.062">  7  8 -1 -1</clus>
<clus scale="   29.746">  1  5  2 -1</clus>
</clustering>
</event>
<event>
 9    2  0.1945404E-004  0.2195442E+03  0.7546771E-02  0.1164623E+00
         -1   -1    0    0    0  501 -0.00000000000E+00  0.00000000000E+00  0.21158665769E+03  0.21158665769E+03  0.00000000000E+00 0.  1.
         21   -1    0    0  501  502  0.00000000000E+00 -0.00000000000E+00 -0.78583304553E+03  0.78583304553E+03  0.00000000000E+00 0.  1.
         24    2    1    2    0    0  0.68658954413E+02  0.12224114627E+02 -0.56117200767E+02  0.12059138328E+03  0.80806314726E+02 0.  0.
         23    2    1    2    0    0 -0.13964985692E+03  0.14878683039E+03 -0.62996672409E+03  0.66832923760E+03  0.90367543567E+02 0.  0.
        -11    1    3    3    0    0  0.12872573867E+02 -0.31501375059E+02 -0.81089108830E+01  0.34982770392E+02  0.00000000000E+00 0.  1.
         12    1    3    3    0    0  0.55786380546E+02  0.43725489686E+02 -0.48008289884E+02  0.85608612886E+02  0.00000000000E+00 0. -1.
        -13    1    4    4    0    0 -0.19490253749E+02 -0.11648777321E+02 -0.61311272731E+02  0.65380701802E+02  0.00000000000E+00 0. -1.
         13    1    4    4    0    0 -0.12015960317E+03  0.16043560771E+03 -0.56865545136E+03  0.60294853580E+03  0.00000000000E+00 0.  1.
         -2    1    1    2    0  502  0.70990902504E+02 -0.16101094502E+03  0.11183753702E+03  0.20849908235E+03  0.00000000000E+00 0.  1.
<scales pt_clust_5="13000.00000" pt_clust_6="13000.00000" pt_clust_7="13000.00000" pt_clust_8="13000.00000" pt_clust_9="200.08350"></scales>
<clustering>
<clus scale="   80.806">  5  6 -1 -1</clus>
<clus scale="   90.368">  7  8 -1 -1</clus>
<clus scale="  106.739">  1  5  2 -1</clus>
<clus scale="  200.084">  2  9  1 -1</clus>
<clus scale="  200.084">  2  5  1 -1</clus>
</clustering>
</event>
<event>
 9    2  0.1654290E-004  0.9292013E+02  0.7546771E-02  0.1302150E+00
          2   -1    0    0  502    0 -0.00000000000E+00  0.00000000000E+00  0.24395876869E+03  0.24395876869E+03  0.00000000000E+00 0. -1.
         21   -1    0    0  501  502  0.00000000000E+00 -0.00000000000E+00 -0.10527777663E+03  0.10527777663E+03  0.00000000000E+00 0.  1.
         23    2    1    2    0    0 -0.15252966812E+02  0.18730634994E+01  0.11612143542E+03  0.14874985372E+03  0.91685167027E+02 0.  0.
         24    2    1    2    0    0  0.13013718840E+02  0.25469717188E+02 -0.65428377739E+02  0.10832097953E+03  0.81452431642E+02 0.  0.
        -13    1    4    4    0    0  0.24018572617E+02  0.27272874828E+02 -0.81225246276E+02  0.88984505193E+02  0.00000000000E+00 0.  1.
         14    1    4    4    0    0 -0.11004853776E+02 -0.18031576407E+01  0.15796868536E+02  0.19336474334E+02  0.00000000000E+00 0. -1.
        -13    1    3    3    0    0 -0.53817949157E+02  0.56248323624E+01  0.64143528012E+02  0.83919023924E+02  0.00000000000E+00 0. -1.
         13    1    3    3    0    0  0.38564982345E+02 -0.37517688629E+01  0.51977907410E+02  0.64830829793E+02  0.00000000000E+00 0.  1.
          1    1    1    2  501    0  0.22392479717E+01 -0.27342780687E+02  0.87987934375E+02  0.92165712078E+02  0.00000000000E+00 0. -1.
<scales pt_clust_5="13000.00000" pt_clust_6="13000.00000" pt_clust_7="13000.00000" pt_clust_8="13000.00000" pt_clust_9="27.43433"></scales>
<clustering>
<clus scale="   27.434">  2  9  1 -1</clus>
<clus scale="   81.452">  5  6 -1 -1</clus>
<clus scale="   82.840">  2  5  1 -1</clus>
<clus scale="   91.685">  7  8 -1 -1</clus>
<clus scale="   27.434">  2  5  1 -1</clus>
</clustering>
</event>
<event>
 9    2  0.1654290E-004  0.9389444E+02  0.7546771E-02  0.1293727E+00
         -1   -1    0    0    0  501 -0.00000000000E+00  0.00000000000E+00  0.31431135423E+03  0.31431135423E+03  0.00000000000E+00 0.  1.
         21   -1    0    0  501  502  0.00000000000E+00 -0.00000000000E+00 -0.75126159067E+02  0.75126159067E+02  0.00000000000E+00 0.  1.
         23    2    1    2    0    0 -0.38392041646E+02 -0.67640386163E+01  0.16175075630E+03  0.18640482800E+03  0.84046128161E+02 0.  0.
         24    2    1    2    0    0  0.28521053405E+02  0.51129419674E+02  0.10757791847E+03  0.14849505785E+03  0.83964907075E+02 0.  0.
        -13    1    4    4    0    0  0.50054380576E+02  0.32036942736E+02  0.10361047346E+03  0.11944428377E+03  0.00000000000E+00 0.  1.
         14    1    4    4    0    0 -0.21533327171E+02  0.19092476938E+02  0.39674450078E+01  0.29050774079E+02  0.00000000000E+00 0. -1.
        -11    1    3    3    0    0  0.25953174054E+02 -0.16541746977E+01  0.65905435058E+02  0.70850757989E+02  0.00000000000E+00 0.  1.
         11    1    3    3    0    0 -0.64345215700E+02 -0.51098639186E+01  0.95845321238E+02  0.11555407001E+03  0.00000000000E+00 0. -1.
         -2    1    1    2    0  502  0.98709882412E+01 -0.44365381058E+02 -0.30143479601E+02  0.54537627449E+02  0.00000000000E+00 0.  1.
<scales pt_clust_5="13000.00000" pt_clust_6="13000.00000" pt_clust_7="13000.00000" pt_clust_8="13000.00000" pt_clust_9="45.45023"></scales>
<clustering>
<clus scale="   45.450">  2  9  1 -1</clus>
<clus scale="   83.965">  5  6 -1 -1</clus>
<clus scale="   84.046">  7  8 -1 -1</clus>
<clus scale="   93.822">  2  5  1 -1</clus>
<clus scale="   45.450">  2  5  1 -1</clus>
</clustering>
</event>
<event>
 9    2  0.1654290E-004  0.1038324E+03  0.7546771E-02  0.1284980E+00
         21   -1    0    0  501  502  0.00000000000E+00  0.00000000000E+00  0.38905109806E+02  0.38905109806E+02  0.00000000000E+00 0. -1.
          2   -1    0    0  502    0 -0.00000000000E+00 -0.00000000000E+00 -0.43070648441E+03  0.43070648441E+03  0.00000000000E+00 0. -1.
         24    2    1    2    0    0  0.69391182104E+01 -0.38173322702E+01 -0.23241323022E+03  0.24633371962E+03  0.81250652016E+02 0.  0.
         23    2    1    2    0    0 -0.14463846081E+02 -0.30874059768E+02 -0.76476733645E+02  0.13308687592E+03  0.10344571206E+03 0.  0.
        -13    1    3    3    0    0  0.43011807404E+02 -0.24928983815E+01 -0.95986786116E+02  0.10521260964E+03  0.00000000000E+00 0.  1.
         14    1    3    3    0    0 -0.36072689193E+02 -0.13244338887E+01 -0.13642644410E+03  0.14112110998E+03  0.00000000000E+00 0. -1.
        -11    1    4    4    0    0 -0.45680117467E+02  0.13373853973E+02 -0.59791568869E+02  0.76423588045E+02  0.00000000000E+00 0.  1.
         11    1    4    4    0    0  0.31216271386E+02 -0.44247913741E+02 -0.16685164776E+02  0.56663287879E+02  0.00000000000E+00 0. -1.
          1    1    1    2  501    0  0.75247278706E+01  0.34691392038E+02 -0.82911410743E+02  0.90190998678E+02  0.00000000000E+00 0. -1.
<scales pt_clust_5="13000.00000" pt_clust_6="13000.00000" pt_clust_7="13000.00000" pt_clust_8="13000.00000" pt_clust_9="35.49811"></scales>
<clustering>
<clus scale="   35.498">  1  9  2 -1</clus>
<clus scale="   81.251">  5  6 -1 -1</clus>
<clus scale="   81.742">  2  5  1 -1</clus>
<clus scale="  103.446">  7  8 -1 -1</clus>
<clus scale="   35.498">  1  5  2 -1</clus>
</clustering>
</event>
<event>
 9    2  0.1654290E-004  0.1625954E+03  0.7546771E-02  0.1187358E+00
         21   -1    0    0  501  502  0.00000000000E+00  0.00000000000E+00  0.13813175592E+03  0.13813175592E+03  0.00000000000E+00 0. -1.
          2   -1    0    0  502    0 -0.00000000000E+00 -0.00000000000E+00 -0.69026753099E+03  0.69026753099E+03  0.00000000000E+00 0. -1.
         24    2    1    2    0    0  0.74762361688E+02 -0.11546990491E+03 -0.61254268302E+03  0.63287196616E+03  0.79972978949E+02 0.  0.
         23    2    1    2    0    0 -0.81392069316E+02  0.82868709308E+02  0.29464377663E+02  0.15009351000E+03  0.90377100318E+02 0.  0.
        -13    1    3    3    0    0 -0.12118907209E+02 -0.43991758322E+02 -0.14649997057E+03  0.15344179381E+03  0.00000000000E+00 0.  1.
         14    1    3    3    0    0  0.86881268897E+02 -0.71478146592E+02 -0.46604271246E+03  0.47943017235E+03  0.00000000000E+00 0. -1.
        -11    1    4    4    0    0  0.10537520347E+02  0.44590973122E+02  0.20228627379E+02  0.50085842158E+02  0.00000000000E+00 0.  1.
         11    1    4    4    0    0 -0.91929589663E+02  0.38277736186E+02  0.92357502839E+01  0.10000766784E+03  0.00000000000E+00 0. -1.
          1    1    1    2  501    0  0.66297076286E+01  0.32601195606E+02  0.30942530293E+02  0.45433810748E+02  0.00000000000E+00 0. -1.
<scales pt_clust_5="13000.00000" pt_clust_6="13000.00000" pt_clust_7="13000.00000" pt_clust_8="13000.00000" pt_clust_9="33.26847"></scales>
<clustering>
<clus scale="   33.268">  1  9  2 -1</clus>
<clus scale="   79.973">  5  6 -1 -1</clus>
<clus scale="   90.377">  7  8 -1 -1</clus>
<clus scale="  157.051">  2  5  1 -1</clus>
<clus scale="   33.268">  1  5  2 -1</clus>
</clustering>
</event>
<event>
 9    2  0.1654290E-004  0.9205078E+02  0.7546771E-02  0.1304570E+00
         -1   -1    0    0    0  501 -0.00000000000E+00  0.00000000000E+00  0.99001748670E+02  0.99001748670E+02  0.00000000000E+00 0.  1.
         21   -1    0    0  501  502  0.00000000000E+00 -0.00000000000E+00 -0.16412465693E+03  0.16412465693E+03  0.00000000000E+00 0. -1.
         23    2    1    2    0    0 -0.72120934432E+01 -0.16440158220E+02  0.49687722020E+02  0.10506596216E+03  0.90816813370E+02 0.  0.
         24    2    1    2    0    0 -0.14173154512E+02  0.71806424269E+01 -0.10436074134E+03  0.13252091248E+03  0.80113594211E+02 0.  0.
        -11    1    4    4    0    0  0.22908955343E+02  0.30283495552E+02 -0.47427566995E+02  0.60755941675E+02  0.00000000000E+00 0.  1.
         12    1    4    4    0    0 -0.37082109855E+02 -0.23102853126E+02 -0.56933174344E+02  0.71764970806E+02  0.00000000000E+00 0. -1.
        -11    1    3    3    0    0 -0.28898047807E+02  0.21052083579E+02  0.50345017285E+02  0.61748750234E+02  0.00000000000E+00 0. -1.
         11    1    3    3    0    0  0.21685954364E+02 -0.37492241800E+02 -0.65729526516E+00  0.43317211924E+02  0.00000000000E+00 0.  1.
         -2    1    1    2    0  502  0.21385247955E+02  0.92595157935E+01 -0.10449888942E+02  0.25539530961E+02  0.00000000000E+00 0.  1.
<scales pt_clust_5="13000.00000" pt_clust_6="13000.00000" pt_clust_7="13000.00000" pt_clust_8="13000.00000" pt_clust_9="23.30381"></scales>
<clustering>
<clus scale="   23.304">  2  9  1 -1</clus>
<clus scale="   80.114">  5  6 -1 -1</clus>
<clus scale="   81.510">  2  5  1 -1</clus>
<clus scale="   90.817">  7  8 -1 -1</clus>
<clus scale="   23.304">  2  5  1 -1</clus>
</clustering>
</event>
<event>
 9    2  0.1654290E-004  0.9960224E+02  0.7546771E-02  0.1286928E+00
         21   -1    0    0  501  502  0.00000000000E+00  0.00000000000E+00  0.74585425219E+02  0.74585425219E+02  0.00000000000E+00 0.  1.
          2   -1    0    0  502    0 -0.00000000000E+00 -0.00000000000E+00 -0.37773869121E+03  0.37773869121E+03  0.00000000000E+00 0. -1.
         24    2    1    2    0    0  0.14570216869E+02 -0.41128564518E+02 -0.30104501114E+03  0.31468282257E+03  0.80581201587E+02 0.  0.
         23    2    1    2    0    0  0.11840590410E+02  0.13501157244E+02 -0.19508375213E+02  0.95646430339E+02  0.91897671923E+02 0.  0.
        -11    1    3    3    0    0 -0.91531461257E+01  0.19767612399E+02 -0.39631795158E+02  0.45224083975E+02  0.00000000000E+00 0.  1.
         12    1    3    3    0    0  0.23723362995E+02 -0.60896176917E+02 -0.26141321598E+03  0.26945873859E+03  0.00000000000E+00 0. -1.
        -11    1    4    4    0    0 -0.24584013869E+02  0.36970539048E+02 -0.26573927062E+02  0.51743290337E+02  0.00000000000E+00 0. -1.
         11    1    4    4    0    0  0.36424604279E+02 -0.23469381804E+02  0.70655518488E+01  0.43903140002E+02  0.00000000000E+00 0.  1.
          1    1    1    2  501    0 -0.26410807279E+02  0.27627407274E+02  0.17400120359E+02  0.41994863523E+02  0.00000000000E+00 0. -1.
<scales pt_clust_5="13000.00000" pt_clust_6="13000.00000" pt_clust_7="13000.00000" pt_clust_8="13000.00000" pt_clust_9="38.22047"></scales>
<clustering>
<clus scale="   38.220">  1  9  2 -1</clus>
<clus scale="   80.581">  5  6 -1 -1</clus>
<clus scale="   89.268">  2  5  1 -1</clus>
<clus scale="   91.898">  7  8 -1 -1</clus>
<clus scale="   38.220">  1  5  2 -1</clus>
</clustering>
</event>
<event>
 9    2  0.1654290E-004  0.1015582E+03  0.7546771E-02  0.1280521E+00
         21   -1    0    0  501  502  0.00000000000E+00  0.00000000000E+00  0.44728016686E+02  0.44728016686E+02  0.00000000000E+00 0. -1.
          2   -1    0    0  502    0 -0.00000000000E+00 -0.00000000000E+00 -0.16301766784E+04  0.16301766784E+04  0.00000000000E+00 0. -1.
         24    2    1    2    0    0  0.59023800638E+01  0.56074363045E+02 -0.12181449368E+04  0.12221194074E+04  0.80743956582E+02 0.  0.
         23    2    1    2    0    0 -0.34568359441E+02 -0.25266117699E+02 -0.39192859187E+03  0.40402802750E+03  0.88302195324E+02 0.  0.
        -13    1    3    3    0    0  0.24985110854E+01  0.37717469360E+02 -0.18582414294E+03  0.18962980292E+03  0.00000000000E+00 0.  1.
         14    1    3    3    0    0  0.34038689784E+01  0.18356893685E+02 -0.10323207939E+04  0.10324896044E+04  0.00000000000E+00 0. -1.
        -13    1    4    4    0    0 -0.49870663158E+02 -0.47427601147E+02 -0.23757329258E+03  0.24734091805E+03  0.00000000000E+00 0.  1.
         13    1    4    4    0    0  0.15302303717E+02  0.22161483449E+02 -0.15435529929E+03  0.15668710945E+03  0.00000000000E+00 0. -1.
          1    1    1    2  501    0  0.28665979378E+02 -0.30808245347E+02  0.24624866935E+02  0.48757260245E+02  0.00000000000E+00 0. -1.
<scales pt_clust_5="13000.00000" pt_clust_6="13000.00000" pt_clust_7="13000.00000" pt_clust_8="13000.00000" pt_clust_9="42.08190"></scales>
<clustering>
<clus scale="   42.082">  1  9  2 -1</clus>
<clus scale="   80.744">  5  6 -1 -1</clus>
<clus scale="   88.302">  7  8 -1 -1</clus>
<clus scale="   95.060">  2  5  1 -1</clus>
<clus scale="   42.082">  1  5  2 -1</clus>
</clustering>
</event>
<event>
 9    2  0.1654290E-004  0.1032348E+03  0.7546771E-02  0.1274550E+00
         21   -1    0    0  501  502  0.00000000000E+00  0.00000000000E+00  0.14565060011E+03  0.14565060011E+03  0.00000000000E+00 0. -1.
          4   -1    0    0  502    0 -0.00000000000E+00 -0.00000000000E+00 -0.33775532979E+03  0.33775532979E+03  0.00000000000E+00 0. -1.
         24    2    1    2    0    0  0.45550308240E+00  0.46120585052E+02 -0.81104433558E+01  0.10132566148E+03  0.89854296133E+02 0.  0.
         23    2    1    2    0    0  0.50342434301E+02 -0.40341345878E+02  0.63759555676E+02  0.12910636409E+03  0.91877023399E+02 0.  0.
        -11    1    3    3    0    0 -0.36569118962E+01  0.72674408993E+02  0.15182626474E+01  0.72782194585E+02  0.00000000000E+00 0.  1.
         12    1    3    3    0    0  0.41124149786E+01 -0.26553823941E+02 -0.96287060032E+01  0.28543466891E+02  0.00000000000E+00 0. -1.
        -11    1    4    4    0    0  0.66632953884E+02  0.68664180017E+00  0.27934962164E+02  0.72254993816E+02  0.00000000000E+00 0.  1.
         11    1    4    4    0    0 -0.16290519582E+02 -0.41027987678E+02  0.35824593512E+02  0.56851370269E+02  0.00000000000E+00 0. -1.
          3    1    1    2  501    0 -0.50797937384E+02 -0.57792391740E+01 -0.24775384201E+03  0.25297390434E+03  0.00000000000E+00 0. -1.
<scales pt_clust_5="13000.00000" pt_clust_6="13000.00000" pt_clust_7="13000.00000" pt_clust_8="13000.00000" pt_clust_9="51.12566"></scales>
<clustering>
<clus scale="   51.126">  1  9  2 -1</clus>
<clus scale="   89.854">  5  6 -1 -1</clus>
<clus scale="   91.877">  7  8 -1 -1</clus>
<clus scale="  101.439">  2  5  1 -1</clus>
<clus scale="   51.126">  1  5  2 -1</clus>
</clustering>
</event>
<event>
 9    2  0.1654290E-004  0.2283644E+03  0.7546771E-02  0.1131954E+00
         21   -1    0    0  501  502  0.00000000000E+00  0.00000000000E+00  0.27844086274E+03  0.27844086274E+03  0.00000000000E+00 0. -1.
          2   -1    0    0  502    0 -0.00000000000E+00 -0.00000000000E+00 -0.51509519750E+03  0.51509519750E+03  0.00000000000E+00 0. -1.
         24    2    1    2    0    0 -0.10387742403E+03 -0.15905181571E+03  0.79638506651E+02  0.22103765687E+03  0.80170784663E+02 0.  0.
         23    2    1    2    0    0 -0.11677660875E+03  0.20375876630E+03 -0.16058718028E+03  0.29876282563E+03  0.91195242813E+02 0.  0.
        -11    1    3    3    0    0 -0.34475416259E+02 -0.21685541942E+01  0.10800141744E+02  0.36192540878E+02  0.00000000000E+00 0.  1.
         12    1    3    3    0    0 -0.69402007766E+02 -0.15688326151E+03  0.68838364907E+02  0.18484511600E+03  0.00000000000E+00 0. -1.
        -11    1    4    4    0    0 -0.72059984513E+02  0.46928549381E+02 -0.77372790886E+02  0.11567834233E+03  0.00000000000E+00 0.  1.
         11    1    4    4    0    0 -0.44716624237E+02  0.15683021692E+03 -0.83214389397E+02  0.18308448330E+03  0.00000000000E+00 0. -1.
          1    1    1    2  501    0  0.22065403277E+03 -0.44706950593E+02 -0.15570566113E+03  0.27373557774E+03  0.00000000000E+00 0. -1.
<scales pt_clust_5="13000.00000" pt_clust_6="13000.00000" pt_clust_7="13000.00000" pt_clust_8="13000.00000" pt_clust_9="209.36512"></scales>
<clustering>
<clus scale="   80.171">  5  6 -1 -1</clus>
<clus scale="   91.195">  7  8 -1 -1</clus>
<clus scale="  206.193">  2  5  1 -1</clus>
<clus scale="  209.365">  1  9  2 -1</clus>
<clus scale="  209.365">  1  5  2 -1</clus>
</clustering>
</event>
<event>
 9    2  0.1654290E-004  0.1638439E+03  0.7546771E-02  0.1186305E+00
          2   -1    0    0  502    0 -0.00000000000E+00  0.00000000000E+00  0.95633286175E+03  0.95633286175E+03  0.00000000000E+00 0. -1.
         21   -1    0    0  501  502  0.00000000000E+00 -0.00000000000E+00 -0.71203135025E+02  0.71203135025E+02  0.00000000000E+00 0.  1.
         24    2    1    2    0    0 -0.77981581653E+02  0.11721384172E+03  0.80905893747E+03  0.82496910962E+03  0.78596792277E+02 0.  0.
         23    2    1    2    0    0  0.58124931605E+02 -0.84251435446E+02  0.26297005891E+02  0.13965237143E+03  0.91293155709E+02 0.  0.
        -11    1    3    3    0    0 -0.26161259055E+02  0.60902724088E+02  0.19066547849E+03  0.20185855931E+03  0.00000000000E+00 0.  1.
         12    1    3    3    0    0 -0.51820322598E+02  0.56311117632E+02  0.61839345898E+03  0.62311055031E+03  0.00000000000E+00 0. -1.
        -13    1    4    4    0    0  0.29702956571E+02  0.10068460156E+02 -0.12522160174E+02  0.33770460678E+02  0.00000000000E+00 0.  1.
         13    1    4    4    0    0  0.28421975034E+02 -0.94319895602E+02  0.38819166065E+02  0.10588191076E+03  0.00000000000E+00 0. -1.
          1    1    1    2  501    0  0.19856650047E+02 -0.32962406273E+02  0.49773783365E+02  0.62914515725E+02  0.00000000000E+00 0. -1.
<scales pt_clust_5="13000.00000" pt_clust_6="13000.00000" pt_clust_7="13000.00000" pt_clust_8="13000.00000" pt_clust_9="38.48125"></scales>
<clustering>
<clus scale="   38.481">  2  9  1 -1</clus>
<clus scale="   78.597">  5  6 -1 -1</clus>
<clus scale="   91.293">  7  8 -1 -1</clus>
<clus scale="  157.124">  1  5  2 -1</clus>
<clus scale="   38.481">  2  5  1 -1</clus>
</clustering>
</event>
<event>
 9    2  0.1654290E-004  0.1399097E+03  0.7546771E-02  0.1215315E+00
         21   -1    0    0  501  502  0.00000000000E+00  0.00000000000E+00  0.10488078922E+03  0.10488078922E+03  0.00000000000E+00 0.  1.
          2   -1    0    0  502    0 -0.00000000000E+00 -0.00000000000E+00 -0.45170291214E+03  0.45170291214E+03  0.00000000000E+00 0. -1.
         23    2    1    2    0    0  0.14037807937E+02  0.81271706960E+02 -0.14615332301E+03  0.19090397872E+03  0.91002114599E+02 0.  0.
         24    2    1    2    0    0  0.73707310622E+01 -0.13087231127E+03 -0.24898302576E+03  0.29320345128E+03  0.82424675862E+02 0.  0.
        -13    1    4    4    0    0 -0.23987771760E+02 -0.26915528563E+02 -0.23779306004E+02  0.43189284155E+02  0.00000000000E+00 0.  1.
         14    1    4    4    0    0  0.31358502822E+02 -0.10395678271E+03 -0.22520371976E+03  0.25001416712E+03  0.00000000000E+00 0. -1.
        -11    1    3    3    0    0  0.33698365908E+02  0.37153329997E+02 -0.13101162444E+03  0.14028540742E+03  0.00000000000E+00 0. -1.
         11    1    3    3    0    0 -0.19660557971E+02  0.44118376963E+02 -0.15141698567E+02  0.50618571306E+02  0.00000000000E+00 0.  1.
          1    1    1    2  501    0 -0.21408538999E+02  0.49600604315E+02  0.48314225850E+02  0.72476271358E+02  0.00000000000E+00 0. -1.
<scales pt_clust_5="13000.00000" pt_clust_6="13000.00000" pt_clust_7="13000.00000" pt_clust_8="13000.00000" pt_clust_9="54.02356"></scales>
<clustering>
<clus scale="   54.024">  1  9  2 -1</clus>
<clus scale="   82.425">  5  6 -1 -1</clus>
<clus scale="   91.002">  7  8 -1 -1</clus>
<clus scale="  134.489">  1  5  2 -1</clus>
<clus scale="   54.024">  1  5  2 -1</clus>
</clustering>
</event>
<event>
 9    2  0.1654290E-004  0.1067856E+03  0.7546771E-02  0.1268783E+00
          2   -1    0    0  502    0 -0.00000000000E+00  0.00000000000E+00  0.70279625761E+03  0.70279625761E+03  0.00000000000E+00 0. -1.
         21   -1    0    0  501  502  0.00000000000E+00 -0.00000000000E+00 -0.51918672990E+02  0.51918672990E+02  0.00000000000E+00 0. -1.
         24    2    1    2    0    0 -0.26384489825E+02  0.53383189495E+02  0.54214948375E+03  0.55233265585E+03  0.87174501790E+02 0.  0.
         23    2    1    2    0    0  0.20103543162E+02 -0.29530626759E+02  0.13433518014E+03  0.16682784395E+03  0.92246292770E+02 0.  0.
        -11    1    3    3    0    0  0.13493793789E+02 -0.18563132623E+02  0.10038175511E+03  0.10297169088E+03  0.00000000000E+00 0.  1.
         12    1    3    3    0    0 -0.39878283613E+02  0.71946322118E+02  0.44176772864E+03  0.44936096497E+03  0.00000000000E+00 0. -1.
        -11    1    4    4    0    0  0.35109753871E+02  0.22085830393E+02  0.81539234331E+02  0.91482924397E+02  0.00000000000E+00 0. -1.
         11    1    4    4    0    0 -0.15006210709E+02 -0.51616457153E+02  0.52795945812E+02  0.75344919557E+02  0.00000000000E+00 0.  1.
          1    1    1    2  501    0  0.62809466629E+01 -0.23852562736E+02 -0.25607079276E+02  0.35554430794E+02  0.00000000000E+00 0. -1.
<scales pt_clust_5="13000.00000" pt_clust_6="13000.00000" pt_clust_7="13000.00000" pt_clust_8="13000.00000" pt_clust_9="24.66567"></scales>
<clustering>
<clus scale="   24.666">  2  9  1 -1</clus>
<clus scale="   87.175">  5  6 -1 -1</clus>
<clus scale="   92.246">  7  8 -1 -1</clus>
<clus scale="  102.436">  1  5  2 -1</clus>
<clus scale="   24.666">  2  5  1 -1</clus>
</clustering>
</event>
<event>
 9    2  0.1654290E-004  0.1921465E+03  0.7546771E-02  0.1159748E+00
          4   -1    0    0  502    0 -0.00000000000E+00  0.00000000000E+00  0.42877061328E+03  0.42877061328E+03  0.00000000000E+00 0. -1.
         21   -1    0    0  501  502  0.00000000000E+00 -0.00000000000E+00 -0.26685191512E+03  0.26685191512E+03  0.00000000000E+00 0.  1.
         24    2    1    2    0    0  0.99141547118E+02 -0.11537938388E+03  0.10176581322E+03  0.19988931852E+03  0.80361746683E+02 0.  0.
         23    2    1    2    0    0 -0.20314151526E+03 -0.56983767607E+01  0.18333139341E+03  0.29411782742E+03  0.10768449227E+03 0.  0.
        -13    1    3    3    0    0  0.85594805458E+02 -0.56929137092E+02  0.31550548220E+02  0.10753062105E+03  0.00000000000E+00 0.  1.
         14    1    3    3    0    0  0.13546741660E+02 -0.58450246788E+02  0.70215264997E+02  0.92358697467E+02  0.00000000000E+00 0. -1.
        -13    1    4    4    0    0 -0.42981234650E+02 -0.47354786929E+02  0.60396353308E+02  0.87963525794E+02  0.00000000000E+00 0.  1.
         13    1    4    4    0    0 -0.16016028061E+03  0.41656410169E+02  0.12293504010E+03  0.20615430162E+03  0.00000000000E+00 0. -1.
          3    1    1    2  501    0  0.10399996814E+03  0.12107776064E+03 -0.12317850847E+03  0.20161538246E+03  0.00000000000E+00 0. -1.
<scales pt_clust_5="13000.00000" pt_clust_6="13000.00000" pt_clust_7="13000.00000" pt_clust_8="13000.00000" pt_clust_9="159.61146"></scales>
<clustering>
<clus scale="   80.362">  5  6 -1 -1</clus>
<clus scale="  107.684">  7  8 -1 -1</clus>
<clus scale="  159.611">  2  9  1 -1</clus>
<clus scale="  178.276">  1  5  2 -1</clus>
<clus scale="  159.611">  2  5  1 -1</clus>
</clustering>
</event>
<event>
 9    2  0.1654290E-004  0.1373062E+03  0.7546771E-02  0.1218783E+00
          2   -1    0    0  502    0 -0.00000000000E+00  0.00000000000E+00  0.48233782285E+03  0.48233782285E+03  0.00000000000E+00 0. -1.
         21   -1    0    0  501  502  0.00000000000E+00 -0.00000000000E+00 -0.22031717234E+03  0.22031717234E+03  0.00000000000E+00 0. -1.
         24    2    1    2    0    0  0.72953674953E+02 -0.87849808993E+02  0.32627691237E+03  0.35492342018E+03  0.80462308057E+02 0.  0.
         23    2    1    2    0    0 -0.13761517405E+02  0.94207571704E+02  0.10575891989E+03  0.16759469738E+03  0.88535797995E+02 0.  0.
        -13    1    3    3    0    0  0.64078445251E+02 -0.60027876072E+02  0.13245738796E+03  0.15891618129E+03  0.00000000000E+00 0.  1.
         14    1    3    3    0    0  0.88752297018E+01 -0.27821932921E+02  0.19381952441E+03  0.19600723889E+03  0.00000000000E+00 0. -1.
        -13    1    4    4    0    0 -0.51495449146E+02  0.56692622412E+02  0.67097379687E+02  0.10182285146E+03  0.00000000000E+00 0.  1.
         13    1    4    4    0    0  0.37733931741E+02  0.37514949292E+02  0.38661540199E+02  0.65771845919E+02  0.00000000000E+00 0. -1.
          1    1    1    2  501    0 -0.59192157548E+02 -0.63577627106E+01 -0.17001518174E+03  0.18013687764E+03  0.00000000000E+00 0. -1.
<scales pt_clust_5="13000.00000" pt_clust_6="13000.00000" pt_clust_7="13000.00000" pt_clust_8="13000.00000" pt_clust_9="59.53262"></scales>
<clustering>
<clus scale="   59.533">  2  9  1 -1</clus>
<clus scale="   80.462">  5  6 -1 -1</clus>
<clus scale="   88.536">  7  8 -1 -1</clus>
<clus scale="  132.244">  1  5  2 -1</clus>
<clus scale="   59.533">  2  5  1 -1</clus>
</clustering>
</event>
<event>
 9    2  0.1654290E-004  0.2256930E+03  0.7546771E-02  0.1161335E+00
         21   -1    0    0  501  502  0.00000000000E+00  0.00000000000E+00  0.38558372998E+03  0.38558372998E+03  0.00000000000E+00 0. -1.
          2   -1    0    0  502    0 -0.00000000000E+00 -0.00000000000E+00 -0.30790002706E+03  0.30790002706E+03  0.00000000000E+00 0. -1.
         23    2    1    2    0    0 -0.19610310130E+02 -0.50879830368E+02  0.17707016717E+03  0.20638551147E+03  0.90927519699E+02 0.  0.
         24    2    1    2    0    0  0.20726224302E+03  0.80747160464E+02  0.54510650675E+02  0.24257906983E+03  0.79971574814E+02 0.  0.
        -13    1    4    4    0    0  0.47518536159E+02  0.57144118647E+02  0.25103406512E+02  0.78445156595E+02  0.00000000000E+00 0.  1.
         14    1    4    4    0    0  0.15974370686E+03  0.23603041817E+02  0.29407244163E+02  0.16413391324E+03  0.00000000000E+00 0. -1.
        -13    1    3    3    0    0 -0.56208236105E+02 -0.28593075593E+02  0.11004054821E+03  0.12683001234E+03  0.00000000000E+00 0.  1.
         13    1    3    3    0    0  0.36597925974E+02 -0.22286754774E+02  0.67029618957E+02  0.79555499128E+02  0.00000000000E+00 0. -1.
          1    1    1    2  501    0 -0.18765193289E+03 -0.29867330096E+02 -0.15389711493E+03  0.24451917575E+03  0.00000000000E+00 0. -1.
<scales pt_clust_5="13000.00000" pt_clust_6="13000.00000" pt_clust_7="13000.00000" pt_clust_8="13000.00000" pt_clust_9="211.04958"></scales>
<clustering>
<clus scale="   79.972">  5  6 -1 -1</clus>
<clus scale="   90.928">  7  8 -1 -1</clus>
<clus scale="  106.024">  2  7  1 -1</clus>
<clus scale="  211.050">  1  9  2 -1</clus>
<clus scale="  211.050">  1  5  2 -1</clus>
</clustering>
</event>
<event>
 9    2  0.1654290E-004  0.9857069E+02  0.7546771E-02  0.1289526E+00
          4   -1    0    0  502    0 -0.00000000000E+00  0.00000000000E+00  0.13801993852E+03  0.13801993852E+03  0.00000000000E+00 0. -1.
         21   -1    0    0  501  502  0.00000000000E+00 -0.00000000000E+00 -0.17278774006E+03  0.17278774006E+03  0.00000000000E+00 0. -1.
         23    2    1    2    0    0 -0.37900989486E+02  0.31104279943E+02  0.56330867434E+02  0.11857124113E+03  0.92097835815E+02 0.  0.
         24    2    1    2    0    0 -0.36242927494E+02 -0.24666554398E+02 -0.68877419688E+02  0.11456695402E+03  0.80371010398E+02 0.  0.
        -11    1    4    4    0    0  0.11069780857E+02 -0.40195420049E+02 -0.29281980424E+02  0.50947484911E+02  0.00000000000E+00 0.  1.
         12    1    4    4    0    0 -0.47312708351E+02  0.15528865651E+02 -0.39595439263E+02  0.63619469114E+02  0.00000000000E+00 0. -1.
        -11    1    3    3    0    0 -0.43228412932E+02 -0.21088474658E+02  0.11242495063E+02  0.49394464703E+02  0.00000000000E+00 0.  1.
         11    1    3    3    0    0  0.53274234461E+01  0.52192754601E+02  0.45088372371E+02  0.69176776424E+02  0.00000000000E+00 0. -1.
          3    1    1    2  501    0  0.74143916981E+02 -0.64377255449E+01 -0.22221249290E+02  0.77669483425E+02  0.00000000000E+00 0. -1.
<scales pt_clust_5="13000.00000" pt_clust_6="13000.00000" pt_clust_7="13000.00000" pt_clust_8="13000.00000" pt_clust_9="74.42288"></scales>
<clustering>
<clus scale="   74.423">  2  9  1 -1</clus>
<clus scale="   80.371">  5  6 -1 -1</clus>
<clus scale="   87.714">  2  5  1 -1</clus>
<clus scale="   92.098">  7  8 -1 -1</clus>
<clus scale="   74.423">  2  5  1 -1</clus>
</clustering>
</event>
<event>
 9    2  0.1654290E-004  0.1003489E+03  0.7546771E-02  0.1286518E+00
         21   -1    0    0  501  502  0.00000000000E+00  0.00000000000E+00  0.46487672648E+02  0.46487672648E+02  0.00000000000E+00 0. -1.
          2   -1    0    0  502    0 -0.00000000000E+00 -0.00000000000E+00 -0.58341832426E+03  0.58341832426E+03  0.00000000000E+00 0. -1.
         23    2    1    2    0    0 -0.41495247045E+02 -0.16722673555E+02 -0.22517761590E+03  0.24783106984E+03  0.93347614519E+02 0.  0.
         24    2    1    2    0    0  0.18221256706E+01  0.25908963928E+02 -0.18509714225E+02  0.86017516951E+02  0.79886226271E+02 0.  0.
        -11    1    4    4    0    0  0.16336660331E+02  0.44561418641E+02 -0.33442948400E+02  0.58060634683E+02  0.00000000000E+00 0.  1.
         12    1    4    4    0    0 -0.14514534660E+02 -0.18652454713E+02  0.14933234174E+02  0.27956882268E+02  0.00000000000E+00 0. -1.
        -13    1    3    3    0    0 -0.53511700900E+02  0.18486195710E+02 -0.80288874358E+02  0.98242276596E+02  0.00000000000E+00 0.  1.
         13    1    3    3    0    0  0.12016453855E+02 -0.35208869264E+02 -0.14488874154E+03  0.14958879324E+03  0.00000000000E+00 0. -1.
          1    1    1    2  501    0  0.39673121374E+02 -0.91862903733E+01 -0.29324332149E+03  0.29605741012E+03  0.00000000000E+00 0. -1.
<scales pt_clust_5="13000.00000" pt_clust_6="13000.00000" pt_clust_7="13000.00000" pt_clust_8="13000.00000" pt_clust_9="40.72280"></scales>
<clustering>
<clus scale="   40.723">  1  9  2 -1</clus>
<clus scale="   79.886">  5  6 -1 -1</clus>
<clus scale="   87.966">  1  5  2 -1</clus>
<clus scale="   93.348">  7  8 -1 -1</clus>
<clus scale="   40.723">  1  5  2 -1</clus>
</clustering>
</event>
<event>
 9    2  0.1654290E-004  0.9592649E+02  0.7546771E-02  0.1292208E+00
         21   -1    0    0  501  502  0.00000000000E+00  0.00000000000E+00  0.87668706520E+02  0.87668706520E+02  0.00000000000E+00 0. -1.
          2   -1    0    0  502    0 -0.00000000000E+00 -0.00000000000E+00 -0.64861301116E+03  0.64861301116E+03  0.00000000000E+00 0. -1.
         24    2    1    2    0    0 -0.17628385317E+02  0.11941913713E+02 -0.46607586623E+03  0.47452144739E+03  0.86547799973E+02 0.  0.
         23    2    1    2    0    0  0.48685696550E+02 -0.61018144744E+01 -0.15901897229E+03  0.19024835285E+03  0.92194755961E+02 0.  0.
        -13    1    3    3    0    0 -0.33020836447E+02 -0.29898590625E+02 -0.23181668630E+03  0.23605778404E+03  0.00000000000E+00 0.  1.
         14    1    3    3    0    0  0.15392451130E+02  0.41840504339E+02 -0.23425917993E+03  0.23846366334E+03  0.00000000000E+00 0. -1.
        -13    1    4    4    0    0  0.37929381318E+02 -0.37231738951E+02 -0.39352502064E+02  0.66132138716E+02  0.00000000000E+00 0.  1.
         13    1    4    4    0    0  0.10756315231E+02  0.31129924477E+02 -0.11966647023E+03  0.12411621414E+03  0.00000000000E+00 0. -1.
          1    1    1    2  501    0 -0.31057311233E+02 -0.58400992388E+01  0.64150533873E+02  0.71511917443E+02  0.00000000000E+00 0. -1.
<scales pt_clust_5="13000.00000" pt_clust_6="13000.00000" pt_clust_7="13000.00000" pt_clust_8="13000.00000" pt_clust_9="31.60164"></scales>
<clustering>
<clus scale="   31.602">  1  9  2 -1</clus>
<clus scale="   86.548">  5  6 -1 -1</clus>
<clus scale="   90.513">  2  5  1 -1</clus>
<clus scale="   92.195">  7  8 -1 -1</clus>
<clus scale="   31.602">  1  5  2 -1</clus>
</clustering>
</event>
<event>
 9    2  0.1654290E-004  0.9974400E+02  0.7546771E-02  0.1285656E+00
         21   -1    0    0  501  502  0.00000000000E+00  0.00000000000E+00  0.26220534948E+03  0.26220534948E+03  0.00000000000E+00 0.  1.
         -3   -1    0    0    0  501 -0.00000000000E+00 -0.00000000000E+00 -0.28345134598E+03  0.28345134598E+03  0.00000000000E+00 0.  1.
         23    2    1    2    0    0 -0.13148188478E+02  0.33914480354E+02 -0.24777508363E+03  0.26675756447E+03  0.91891453889E+02 0.  0.
         24    2    1    2    0    0  0.11869454263E+02 -0.76204936420E+02  0.12225451207E+03  0.16636778052E+03  0.82365019229E+02 0.  0.
        -13    1    4    4    0    0 -0.14570033572E+02 -0.83224133758E+02  0.10129414585E+03  0.13190544455E+03  0.00000000000E+00 0.  1.
         14    1    4    4    0    0  0.26439487835E+02  0.70191973378E+01  0.20960366227E+02  0.34462335972E+02  0.00000000000E+00 0. -1.
        -11    1    3    3    0    0 -0.51493346580E+02  0.21044668494E+02 -0.11149213459E+03  0.12459911272E+03  0.00000000000E+00 0.  1.
         11    1    3    3    0    0  0.38345158101E+02  0.12869811861E+02 -0.13628294904E+03  0.14215845176E+03  0.00000000000E+00 0. -1.
         -4    1    1    2    0  502  0.12787342153E+01  0.42290456066E+02  0.10427457506E+03  0.11253135047E+03  0.00000000000E+00 0.  1.
<scales pt_clust_5="13000.00000" pt_clust_6="13000.00000" pt_clust_7="13000.00000" pt_clust_8="13000.00000" pt_clust_9="42.30978"></scales>
<clustering>
<clus scale="   42.310">  1  9  2 -1</clus>
<clus scale="   82.365">  5  6 -1 -1</clus>
<clus scale="   91.043">  1  5  2 -1</clus>
<clus scale="   91.891">  7  8 -1 -1</clus>
<clus scale="   42.310">  1  5  2 -1</clus>
</clustering>
</event>
<event>
 9    2  0.1654290E-004  0.1041903E+03  0.7546771E-02  0.1280274E+00
         21   -1    0    0  501  502  0.00000000000E+00  0.00000000000E+00  0.38034263489E+02  0.38034263489E+02  0.00000000000E+00 0.  1.
          2   -1    0    0  502    0 -0.00000000000E+00 -0.00000000000E+00 -0.54586009721E+03  0.54586009721E+03  0.00000000000E+00 0. -1.
         23    2    1    2    0    0  0.36275925187E+02 -0.21341354468E+02 -0.36438324149E+03  0.37978858699E+03  0.98452160814E+02 0.  0.
         24    2    1    2    0    0  0.13522534777E+02  0.39146799717E+02 -0.10097989149E+03  0.13628246319E+03  0.81612746640E+02 0.  0.
        -11    1    4    4    0    0 -0.23330578527E+02  0.45018686966E+02 -0.39136554059E+02  0.64052072052E+02  0.00000000000E+00 0.  1.
         12    1    4    4    0    0  0.36853113304E+02 -0.58718872491E+01 -0.61843337427E+02  0.72230391139E+02  0.00000000000E+00 0. -1.
        -11    1    3    3    0    0  0.44673479216E+02 -0.54413179495E+02 -0.28119760415E+03  0.28987688150E+03  0.00000000000E+00 0. -1.
         11    1    3    3    0    0 -0.83975540293E+01  0.33071825027E+02 -0.83185637344E+02  0.89911705493E+02  0.00000000000E+00 0.  1.
          1    1    1    2  501    0 -0.49798459964E+02 -0.17805445249E+02 -0.42462700746E+02  0.67823310521E+02  0.00000000000E+00 0. -1.
<scales pt_clust_5="13000.00000" pt_clust_6="13000.00000" pt_clust_7="13000.00000" pt_clust_8="13000.00000" pt_clust_9="52.88592"></scales>
<clustering>
<clus scale="   52.886">  1  9  2 -1</clus>
<clus scale="   81.613">  5  6 -1 -1</clus>
<clus scale="   88.450">  1  5  2 -1</clus>
<clus scale="   98.452">  7  8 -1 -1</clus>
<clus scale="   52.886">  1  5  2 -1</clus>
</clustering>
</event>
<event>
 9    2  0.1654290E-004  0.1641940E+03  0.7546771E-02  0.1193674E+00
         21   -1    0    0  501  502  0.00000000000E+00  0.00000000000E+00  0.12560969440E+03  0.12560969440E+03  0.00000000000E+00 0. -1.
          2   -1    0    0  502    0 -0.00000000000E+00 -0.00000000000E+00 -0.65374844967E+03  0.65374844967E+03  0.00000000000E+00 0. -1.
         24    2    1    2    0    0  0.53174304903E+02  0.85303910936E+02 -0.38171640335E+03  0.40411188498E+03  0.86572161052E+02 0.  0.
         23    2    1    2    0    0  0.21030112083E+02  0.10577906452E+03 -0.34979690096E+02  0.14192573733E+03  0.85368964455E+02 0.  0.
        -13    1    3    3    0    0  0.49772928400E+02  0.68961417335E+01 -0.10373672560E+03  0.11526582066E+03  0.00000000000E+00 0.  1.
         14    1    3    3    0    0  0.34013765025E+01  0.78407769203E+02 -0.27797967775E+03  0.28884606432E+03  0.00000000000E+00 0. -1.
        -13    1    4    4    0    0 -0.21427216381E+02  0.41268781154E+02 -0.44192477679E+02  0.64149925824E+02  0.00000000000E+00 0. -1.
         13    1    4    4    0    0  0.42457328464E+02  0.64510283361E+02  0.92127875827E+01  0.77775811501E+02  0.00000000000E+00 0.  1.
          1    1    1    2  501    0 -0.74204416986E+02 -0.19108297545E+03 -0.11144266182E+03  0.23332052177E+03  0.00000000000E+00 0. -1.
<scales pt_clust_5="13000.00000" pt_clust_6="13000.00000" pt_clust_7="13000.00000" pt_clust_8="13000.00000" pt_clust_9="140.25627"></scales>
<clustering>
<clus scale="   85.369">  7  8 -1 -1</clus>
<clus scale="   86.572">  5  6 -1 -1</clus>
<clus scale="  132.661">  2  5  1 -1</clus>
<clus scale="  140.256">  1  9  2 -1</clus>
<clus scale="  140.256">  1  5  2 -1</clus>
</clustering>
</event>
<event>
 9    2  0.1654290E-004  0.1022639E+03  0.7546771E-02  0.1281954E+00
          2   -1    0    0  502    0 -0.00000000000E+00  0.00000000000E+00  0.29219652200E+03  0.29219652200E+03  0.00000000000E+00 0. -1.
         21   -1    0    0  501  502  0.00000000000E+00 -0.00000000000E+00 -0.14083595377E+03  0.14083595377E+03  0.00000000000E+00 0.  1.
         24    2    1    2    0    0 -0.18385141454E+02 -0.39963476714E+02  0.23711465268E+03  0.25368139190E+03  0.78713386311E+02 0.  0.
         23    2    1    2    0    0 -0.14798564101E+02  0.64241974662E+02 -0.45792390367E+02  0.12201400363E+03  0.91893662775E+02 0.  0.
        -11    1    3    3    0    0 -0.41367325269E+02 -0.21106905170E+02  0.70407490860E+02  0.84344364453E+02  0.00000000000E+00 0.  1.
         12    1    3    3    0    0  0.22982183814E+02 -0.18856571544E+02  0.16670716182E+03  0.16933702745E+03  0.00000000000E+00 0. -1.
        -11    1    4    4    0    0 -0.11922529963E+02 -0.20557059284E+02 -0.25332307396E+02  0.34734207996E+02  0.00000000000E+00 0.  1.
         11    1    4    4    0    0 -0.28760341380E+01  0.84799033946E+02 -0.20460082971E+02  0.87279795633E+02  0.00000000000E+00 0. -1.
          1    1    1    2  501    0  0.33183705555E+02 -0.24278497948E+02 -0.39961694075E+02  0.57337080239E+02  0.00000000000E+00 0. -1.
<scales pt_clust_5="13000.00000" pt_clust_6="13000.00000" pt_clust_7="13000.00000" pt_clust_8="13000.00000" pt_clust_9="41.11695"></scales>
<clustering>
<clus scale="   41.117">  2  9  1 -1</clus>
<clus scale="   78.713">  5  6 -1 -1</clus>
<clus scale="   90.605">  1  5  2 -1</clus>
<clus scale="   91.894">  7  8 -1 -1</clus>
<clus scale="   41.117">  2  5  1 -1</clus>
</clustering>
</event>
<event>
 9    2  0.1654290E-004  0.1655605E+03  0.7546771E-02  0.1209131E+00
         21   -1    0    0  501  502  0.00000000000E+00  0.00000000000E+00  0.65619333026E+02  0.65619333026E+02  0.00000000000E+00 0. -1.
          2   -1    0    0  502    0 -0.00000000000E+00 -0.00000000000E+00 -0.16999234237E+04  0.16999234237E+04  0.00000000000E+00 0. -1.
         23    2    1    2    0    0 -0.16272828466E+02  0.17725808260E+02 -0.76842631521E+01  0.92892862199E+02  0.89392542880E+02 0.  0.
         24    2    1    2    0    0 -0.14027504322E+03  0.34055422835E+02 -0.35061605088E+03  0.38603644441E+03  0.72495942667E+02 0.  0.
        -13    1    4    4    0    0 -0.35885211457E+02  0.23296200495E+02 -0.18567757648E+03  0.19054297092E+03  0.00000000000E+00 0.  1.
         14    1    4    4    0    0 -0.10438983176E+03  0.10759222339E+02 -0.16493847440E+03  0.19549347349E+03  0.00000000000E+00 0. -1.
        -13    1    3    3    0    0  0.36146146911E+02  0.37297856250E+00 -0.10385083795E+02  0.37610278049E+02  0.00000000000E+00 0.  1.
         13    1    3    3    0    0 -0.52418975377E+02  0.17352829698E+02  0.27008206426E+01  0.55282584150E+02  0.00000000000E+00 0. -1.
          1    1    1    2  501    0  0.15654787168E+03 -0.51781231095E+02 -0.12760037766E+04  0.12866134501E+04  0.00000000000E+00 0. -1.
<scales pt_clust_5="13000.00000" pt_clust_6="13000.00000" pt_clust_7="13000.00000" pt_clust_8="13000.00000" pt_clust_9="148.84439"></scales>
<clustering>
<clus scale="   72.496">  5  6 -1 -1</clus>
<clus scale="   89.393">  7  8 -1 -1</clus>
<clus scale="   92.575">  2  7  1 -1</clus>
<clus scale="  148.844">  1  9  2 -1</clus>
<clus scale="  148.844">  1  5  2 -1</clus>
</clustering>
</event>
<event>
 9    2  0.1654290E-004  0.1106259E+03  0.7546771E-02  0.1264147E+00
          2   -1    0    0  502    0 -0.00000000000E+00  0.00000000000E+00  0.87061680693E+02  0.87061680693E+02  0.00000000000E+00 0. -1.
         21   -1    0    0  501  502  0.00000000000E+00 -0.00000000000E+00 -0.17471669629E+03  0.17471669629E+03  0.00000000000E+00 0. -1.
         23    2    1    2    0    0 -0.41794219066E+02 -0.30504667601E+02 -0.40894883165E+02  0.11366084085E+03  0.92569453817E+02 0.  0.
         24    2    1    2    0    0  0.38562774972E+02  0.60925880178E+02 -0.45971604068E+02  0.11751501691E+03  0.80606081227E+02 0.  0.
        -11    1    4    4    0    0  0.33523786184E+02  0.27076197311E+02  0.16613550679E+02  0.46184139779E+02  0.00000000000E+00 0.  1.
         12    1    4    4    0    0  0.50389887879E+01  0.33849682867E+02 -0.62585154747E+02  0.71330877136E+02  0.00000000000E+00 0. -1.
        -11    1    3    3    0    0  0.16760459426E+02 -0.41574370320E+02 -0.27477641737E+02  0.52577200982E+02  0.00000000000E+00 0.  1.
         11    1    3    3    0    0 -0.58554678492E+02  0.11069702719E+02 -0.13417241428E+02  0.61083639864E+02  0.00000000000E+00 0. -1.
          1    1    1    2  501    0  0.32314440933E+01 -0.30421212578E+02 -0.78852836125E+00  0.30602519220E+02  0.00000000000E+00 0. -1.
<scales pt_clust_5="13000.00000" pt_clust_6="13000.00000" pt_clust_7="13000.00000" pt_clust_8="13000.00000" pt_clust_9="30.59237"></scales>
<clustering>
<clus scale="   30.592">  2  9  1 -1</clus>
<clus scale="   80.606">  5  6 -1 -1</clus>
<clus scale="   92.569">  7  8 -1 -1</clus>
<clus scale="  100.828">  2  5  1 -1</clus>
<clus scale="   30.592">  2  5  1 -1</clus>
</clustering>
</event>
<event>
 9    2  0.1654290E-004  0.9714790E+02  0.7546771E-02  0.1292109E+00
          2   -1    0    0  502    0 -0.00000000000E+00  0.00000000000E+00  0.36664730144E+03  0.36664730144E+03  0.00000000000E+00 0. -1.
         21   -1    0    0  501  502  0.00000000000E+00 -0.00000000000E+00 -0.41785098930E+02  0.41785098930E+02  0.00000000000E+00 0.  1.
         23    2    1    2    0    0 -0.18414226568E+02 -0.39041700690E+02  0.24771287931E+03  0.26756030935E+03  0.91452230337E+02 0.  0.
         24    2    1    2    0    0  0.75749742616E+01  0.50583659124E+01  0.46043172748E+02  0.93543991233E+02  0.80916853858E+02 0.  0.
        -11    1    4    4    0    0 -0.17758348564E+02  0.17125920153E+02 -0.13208003448E+02  0.27984056888E+02  0.00000000000E+00 0.  1.
         12    1    4    4    0    0  0.25333322826E+02 -0.12067554241E+02  0.59251176196E+02  0.65559934345E+02  0.00000000000E+00 0. -1.
        -11    1    3    3    0    0  0.27047512254E+02 -0.47301737370E+02  0.14628382450E+03  0.15610246502E+03  0.00000000000E+00 0. -1.
         11    1    3    3    0    0 -0.45461738821E+02  0.82600366806E+01  0.10142905481E+03  0.11145784433E+03  0.00000000000E+00 0.  1.
          1    1    1    2  501    0  0.10839252306E+02  0.33983334777E+02  0.31106150457E+02  0.47328099787E+02  0.00000000000E+00 0. -1.
<scales pt_clust_5="13000.00000" pt_clust_6="13000.00000" pt_clust_7="13000.00000" pt_clust_8="13000.00000" pt_clust_9="35.67011"></scales>
<clustering>
<clus scale="   35.670">  2  9  1 -1</clus>
<clus scale="   80.917">  5  6 -1 -1</clus>
<clus scale="   87.303">  2  5  1 -1</clus>
<clus scale="   91.452">  7  8 -1 -1</clus>
<clus scale="   35.670">  2  5  1 -1</clus>
</clustering>
</event>
<event>
 9    2  0.1654290E-004  0.9050338E+02  0.7546771E-02  0.1310662E+00
         21   -1    0    0  501  502  0.00000000000E+00  0.00000000000E+00  0.12637884452E+03  0.12637884452E+03  0.00000000000E+00 0.  1.
          4   -1    0    0  502    0 -0.00000000000E+00 -0.00000000000E+00 -0.98557434352E+02  0.98557434352E+02  0.00000000000E+00 0. -1.
         24    2    1    2    0    0  0.85396131883E+01  0.79552860880E+01 -0.20987300148E+02  0.80180007013E+02  0.76499380304E+02 0.  0.
         23    2    1    2    0    0  0.36444678085E+00  0.22892443344E+02  0.59951035333E+02  0.11077074403E+03  0.90287509168E+02 0.  0.
        -11    1    3    3    0    0 -0.25966362612E+02 -0.19944659997E+02 -0.12219311895E+02  0.34947861635E+02  0.00000000000E+00 0.  1.
         12    1    3    3    0    0  0.34505975801E+02  0.27899946085E+02 -0.87679882533E+01  0.45232145378E+02  0.00000000000E+00 0. -1.
        -11    1    4    4    0    0  0.25618366715E+02  0.47601586712E+02  0.20506594703E+02  0.57816366168E+02  0.00000000000E+00 0.  1.
         11    1    4    4    0    0 -0.25253919934E+02 -0.24709143368E+02  0.39444440630E+02  0.52954377861E+02  0.00000000000E+00 0. -1.
          3    1    1    2  501    0 -0.89040599691E+01 -0.30847729432E+02 -0.11142325017E+02  0.33985527829E+02  0.00000000000E+00 0. -1.
<scales pt_clust_5="13000.00000" pt_clust_6="13000.00000" pt_clust_7="13000.00000" pt_clust_8="13000.00000" pt_clust_9="32.10710"></scales>
<clustering>
<clus scale="   32.107">  1  9  2 -1</clus>
<clus scale="   76.499">  5  6 -1 -1</clus>
<clus scale="   76.754">  2  5  1 -1</clus>
<clus scale="   90.288">  7  8 -1 -1</clus>
<clus scale="   32.107">  1  5  2 -1</clus>
</clustering>
</event>
<event>
 9    2  0.1654290E-004  0.1401171E+03  0.7546771E-02  0.1232322E+00
          2   -1    0    0  502    0 -0.00000000000E+00  0.00000000000E+00  0.15303753041E+04  0.15303753041E+04  0.00000000000E+00 0. -1.
         21   -1    0    0  501  502  0.00000000000E+00 -0.00000000000E+00 -0.27517280103E+02  0.27517280103E+02  0.00000000000E+00 0. -1.
         23    2    1    2    0    0 -0.98218245538E+01 -0.98195457524E+01  0.13505982599E+03  0.16449247329E+03  0.92864015930E+02 0.  0.
         24    2    1    2    0    0  0.56793602237E+02 -0.96906707682E+02  0.93752219160E+03  0.94760387635E+03  0.79930116184E+02 0.  0.
        -11    1    4    4    0    0  0.44046885078E+02 -0.46997874847E+01  0.26654693138E+03  0.27020266970E+03  0.00000000000E+00 0.  1.
         12    1    4    4    0    0  0.12746717159E+02 -0.92206920197E+02  0.67097526022E+03  0.67740120664E+03  0.00000000000E+00 0. -1.
        -11    1    3    3    0    0 -0.19734593810E+02  0.33675833417E+02  0.10126308986E+03  0.10852524737E+03  0.00000000000E+00 0.  1.
         11    1    3    3    0    0  0.99127692565E+01 -0.43495379170E+02  0.33796736134E+02  0.55967225916E+02  0.00000000000E+00 0. -1.
          1    1    1    2  501    0 -0.46971777683E+02  0.10672625343E+03  0.43027600641E+03  0.44579623457E+03  0.00000000000E+00 0. -1.
<scales pt_clust_5="13000.00000" pt_clust_6="13000.00000" pt_clust_7="13000.00000" pt_clust_8="13000.00000" pt_clust_9="115.08254"></scales>
<clustering>
<clus scale="   79.930">  5  6 -1 -1</clus>
<clus scale="   92.864">  7  8 -1 -1</clus>
<clus scale="   93.897">  1  7  2 -1</clus>
<clus scale="  115.083">  2  9  1 -1</clus>
<clus scale="  115.083">  2  5  1 -1</clus>
</clustering>
</event>
<event>
 9    2  0.1654290E-004  0.1106397E+03  0.7546771E-02  0.1263698E+00
          4   -1    0    0  502    0 -0.00000000000E+00  0.00000000000E+00  0.16363794404E+02  0.16363794404E+02  0.00000000000E+00 0. -1.
         21   -1    0    0  501  502  0.00000000000E+00 -0.00000000000E+00 -0.10210008453E+04  0.10210008453E+04  0.00000000000E+00 0.  1.
         24    2    1    2    0    0 -0.35953169847E+02 -0.31384416149E+02 -0.36209022623E+03  0.37380738631E+03  0.79655622057E+02 0.  0.
         23    2    1    2    0    0  0.43858820402E+02  0.70692498242E+02 -0.43135182960E+03  0.44858992898E+03  0.90815736775E+02 0.  0.
        -13    1    3    3    0    0 -0.32532429258E+02  0.17212873771E+02 -0.87448847221E+02  0.94878569009E+02  0.00000000000E+00 0.  1.
         14    1    3    3    0    0 -0.34207405884E+01 -0.48597289920E+02 -0.27464137901E+03  0.27892881730E+03  0.00000000000E+00 0. -1.
        -11    1    4    4    0    0 -0.22707208221E+02  0.40251736835E+02 -0.11627672194E+03  0.12512432093E+03  0.00000000000E+00 0. -1.
         11    1    4    4    0    0  0.66566028623E+02  0.30440761407E+02 -0.31507510766E+03  0.32346560804E+03  0.00000000000E+00 0.  1.
          3    1    1    2  501    0 -0.79056505557E+01 -0.39308082093E+02 -0.21119499511E+03  0.21496732446E+03  0.00000000000E+00 0. -1.
<scales pt_clust_5="13000.00000" pt_clust_6="13000.00000" pt_clust_7="13000.00000" pt_clust_8="13000.00000" pt_clust_9="40.09519"></scales>
<clustering>
<clus scale="   40.095">  2  9  1 -1</clus>
<clus scale="   79.656">  5  6 -1 -1</clus>
<clus scale="   90.816">  7  8 -1 -1</clus>
<clus scale="  101.679">  1  5  2 -1</clus>
<clus scale="   40.095">  2  5  1 -1</clus>
</clustering>
</event>
<event>
 9    2  0.1654290E-004  0.2582028E+03  0.7546771E-02  0.1108228E+00
         21   -1    0    0  501  502  0.00000000000E+00  0.00000000000E+00  0.13598019117E+03  0.13598019117E+03  0.00000000000E+00 0.  1.
          2   -1    0    0  502    0 -0.00000000000E+00 -0.00000000000E+00 -0.79306343678E+03  0.79306343678E+03  0.00000000000E+00 0. -1.
         24    2    1    2    0    0  0.12687794261E+03 -0.52786572218E+02  0.24331715520E+02  0.16121642635E+03  0.80711022896E+02 0.  0.
         23    2    1    2    0    0  0.16993849727E+02 -0.57205125371E+01 -0.28841236455E+02  0.97025712531E+02  0.90888155332E+02 0.  0.
        -11    1    3    3    0    0 -0.18668171476E+01 -0.27803765596E+02  0.84064318745E+01  0.29106742937E+02  0.00000000000E+00 0.  1.
         12    1    3    3    0    0  0.12874475976E+03 -0.24982806622E+02  0.15925283646E+02  0.13210968341E+03  0.00000000000E+00 0. -1.
        -13    1    4    4    0    0 -0.19789637517E+02  0.33191712160E+02 -0.16827892745E+02  0.42148516978E+02  0.00000000000E+00 0.  1.
         13    1    4    4    0    0  0.36783487244E+02 -0.38912224697E+02 -0.12013343710E+02  0.54877195553E+02  0.00000000000E+00 0. -1.
          1    1    1    2  501    0 -0.14387179234E+03  0.58507084755E+02 -0.65257372467E+03  0.67080148906E+03  0.00000000000E+00 0. -1.
<scales pt_clust_5="13000.00000" pt_clust_6="13000.00000" pt_clust_7="13000.00000" pt_clust_8="13000.00000" pt_clust_9="155.31322"></scales>
<clustering>
<clus scale="   80.711">  5  6 -1 -1</clus>
<clus scale="   90.888">  7  8 -1 -1</clus>
<clus scale="   91.820">  5  7 -1 -1</clus>
<clus scale="  155.313">  1  9  2 -1</clus>
<clus scale="  155.313">  1  5  2 -1</clus>
</clustering>
</event>
<event>
 9    2  0.1654290E-004  0.9349892E+02  0.7546771E-02  0.1303174E+00
         21   -1    0    0  501  502  0.00000000000E+00  0.00000000000E+00  0.61128246848E+02  0.61128246848E+02  0.00000000000E+00 0.  1.
          2   -1    0    0  502    0 -0.00000000000E+00 -0.00000000000E+00 -0.32267943151E+03  0.32267943151E+03  0.00000000000E+00 0. -1.
         24    2    1    2    0    0 -0.13095811139E+02  0.17722706245E+01 -0.25097289666E+03  0.26348084168E+03  0.79120906623E+02 0.  0.
         23    2    1    2    0    0 -0.63620552629E+01  0.10389098270E+02 -0.19467222150E+02  0.95719508329E+02  0.92923852839E+02 0.  0.
        -13    1    3    3    0    0 -0.18577872154E+02  0.36853240984E+02 -0.96054528208E+02  0.10454554555E+03  0.00000000000E+00 0.  1.
         14    1    3    3    0    0  0.54820610153E+01 -0.35080970359E+02 -0.15491836845E+03  0.15893529613E+03  0.00000000000E+00 0. -1.
        -11    1    4    4    0    0  0.11908826420E+02 -0.35785748872E+02 -0.25747224002E+02  0.45665736749E+02  0.00000000000E+00 0. -1.
         11    1    4    4    0    0 -0.18270881683E+02  0.46174847143E+02  0.62800018517E+01  0.50053771580E+02  0.00000000000E+00 0.  1.
          1    1    1    2  501    0  0.19457866402E+02 -0.12161368895E+02  0.88889341415E+01  0.24607328349E+02  0.00000000000E+00 0. -1.
<scales pt_clust_5="13000.00000" pt_clust_6="13000.00000" pt_clust_7="13000.00000" pt_clust_8="13000.00000" pt_clust_9="22.94575"></scales>
<clustering>
<clus scale="   22.946">  1  9  2 -1</clus>
<clus scale="   79.121">  5  6 -1 -1</clus>
<clus scale="   79.796">  2  5  1 -1</clus>
<clus scale="   92.924">  7  8 -1 -1</clus>
<clus scale="   22.946">  1  5  2 -1</clus>
</clustering>
</event>
<event>
 9    2  0.1654290E-004  0.1112526E+03  0.7546771E-02  0.1262270E+00
          2   -1    0    0  502    0 -0.00000000000E+00  0.00000000000E+00  0.24203682122E+03  0.24203682122E+03  0.00000000000E+00 0. -1.
         21   -1    0    0  501  502  0.00000000000E+00 -0.00000000000E+00 -0.11514155636E+03  0.11514155636E+03  0.00000000000E+00 0.  1.
         23    2    1    2    0    0  0.14761905487E+02  0.77304822760E+02  0.13095498166E+03  0.17767043165E+03  0.90684208029E+02 0.  0.
         24    2    1    2    0    0  0.93905257292E+01 -0.19433954965E+02 -0.54277915219E+02  0.99169631755E+02  0.80141519844E+02 0.  0.
        -13    1    4    4    0    0  0.18358344643E+02  0.26844467533E+02 -0.36250924041E+02  0.48700962506E+02  0.00000000000E+00 0.  1.
         14    1    4    4    0    0 -0.89678189141E+01 -0.46278422497E+02 -0.18026991178E+02  0.50468669250E+02  0.00000000000E+00 0. -1.
        -11    1    3    3    0    0  0.11411362386E+02  0.21865205528E+02 -0.96567620685E+01  0.26486967700E+02  0.00000000000E+00 0.  1.
         11    1    3    3    0    0  0.33505431010E+01  0.55439617232E+02  0.14061174373E+03  0.15118346395E+03  0.00000000000E+00 0. -1.
          1    1    1    2  501    0 -0.24152431216E+02 -0.57870867796E+02  0.50218198421E+02  0.80338314183E+02  0.00000000000E+00 0. -1.
<scales pt_clust_5="13000.00000" pt_clust_6="13000.00000" pt_clust_7="13000.00000" pt_clust_8="13000.00000" pt_clust_9="62.70870"></scales>
<clustering>
<clus scale="   62.709">  2  9  1 -1</clus>
<clus scale="   80.142">  5  6 -1 -1</clus>
<clus scale="   90.684">  7  8 -1 -1</clus>
<clus scale="  102.841">  2  5  1 -1</clus>
<clus scale="   62.709">  2  5  1 -1</clus>
</clustering>
</event>
<event>
 9    2  0.1654290E-004  0.1130904E+03  0.7546771E-02  0.1257143E+00
         21   -1    0    0  501  502  0.00000000000E+00  0.00000000000E+00  0.26791298601E+03  0.26791298601E+03  0.00000000000E+00 0. -1.
          2   -1    0    0  502    0 -0.00000000000E+00 -0.00000000000E+00 -0.17423605905E+03  0.17423605905E+03  0.00000000000E+00 0. -1.
         24    2    1    2    0    0 -0.17740072205E+02  0.95827150391E+02 -0.90324474249E+02  0.15683949236E+03  0.83322042717E+02 0.  0.
         23    2    1    2    0    0 -0.93801249268E+01 -0.27322644042E+02  0.78177870893E+01  0.94340868447E+02  0.89468251594E+02 0.  0.
        -11    1    3    3    0    0 -0.49784617720E+02  0.63399776106E+02 -0.70638807799E+02  0.10718153264E+03  0.00000000000E+00 0.  1.
         12    1    3    3    0    0  0.32044545515E+02  0.32427374285E+02 -0.19685666450E+02  0.49657959723E+02  0.00000000000E+00 0. -1.
        -11    1    4    4    0    0 -0.38614002673E+02 -0.20958911177E+02 -0.24496505776E+02  0.50303041214E+02  0.00000000000E+00 0. -1.
         11    1    4    4    0    0  0.29233877746E+02 -0.63637328645E+01  0.32314292865E+02  0.44037827233E+02  0.00000000000E+00 0.  1.
          1    1    1    2  501    0  0.27120197132E+02 -0.68504506350E+02  0.17618361412E+03  0.19096868426E+03  0.00000000000E+00 0. -1.
<scales pt_clust_5="13000.00000" pt_clust_6="13000.00000" pt_clust_7="13000.00000" pt_clust_8="13000.00000" pt_clust_9="73.67749"></scales>
<clustering>
<clus scale="   73.677">  1  9  2 -1</clus>
<clus scale="   83.322">  5  6 -1 -1</clus>
<clus scale="   89.468">  7  8 -1 -1</clus>
<clus scale="  108.293">  2  5  1 -1</clus>
<clus scale="   73.677">  1  5  2 -1</clus>
</clustering>
</event>
<event>
 9    2  0.1654290E-004  0.1537654E+03  0.7546771E-02  0.1197384E+00
         21   -1    0    0  501  502  0.00000000000E+00  0.00000000000E+00  0.16955063498E+03  0.16955063498E+03  0.00000000000E+00 0. -1.
          2   -1    0    0  502    0 -0.00000000000E+00 -0.00000000000E+00 -0.17617063856E+03  0.17617063856E+03  0.00000000000E+00 0. -1.
         24    2    1    2    0    0 -0.73294321590E+02  0.96309360613E+02 -0.13466667511E+02  0.14684186871E+03  0.82058715285E+02 0.  0.
         23    2    1    2    0    0  0.49906608820E+02 -0.12140213991E+03  0.22746687965E+02  0.16107142358E+03  0.90539728864E+02 0.  0.
        -11    1    3    3    0    0  0.12355723057E+02  0.26618565761E+02  0.14790491047E+02  0.32862905545E+02  0.00000000000E+00 0.  1.
         12    1    3    3    0    0 -0.85650044646E+02  0.69690794852E+02 -0.28257158559E+02  0.11397896317E+03  0.00000000000E+00 0. -1.
        -13    1    4    4    0    0  0.41671794850E+02 -0.10560019356E+02  0.25324923021E+02  0.49893929700E+02  0.00000000000E+00 0.  1.
         13    1    4    4    0    0  0.82348139700E+01 -0.11084212055E+03 -0.25782350564E+01  0.11117749388E+03  0.00000000000E+00 0. -1.
          1    1    1    2  501    0  0.23387712770E+02  0.25092779297E+02 -0.15900024041E+02  0.37807981246E+02  0.00000000000E+00 0. -1.
<scales pt_clust_5="13000.00000" pt_clust_6="13000.00000" pt_clust_7="13000.00000" pt_clust_8="13000.00000" pt_clust_9="34.30210"></scales>
<clustering>
<clus scale="   34.302">  1  9  2 -1</clus>
<clus scale="   82.059">  5  6 -1 -1</clus>
<clus scale="   90.540">  7  8 -1 -1</clus>
<clus scale="  148.929">  2  5  1 -1</clus>
<clus scale="   34.302">  1  5  2 -1</clus>
</clustering>
</event>
<event>
 9    2  0.1654290E-004  0.1453325E+03  0.7546771E-02  0.1208599E+00
         -3   -1    0    0    0  501 -0.00000000000E+00  0.00000000000E+00  0.24457127717E+03  0.24457127717E+03  0.00000000000E+00 0.  1.
         21   -1    0    0  501  502  0.00000000000E+00 -0.00000000000E+00 -0.17229318461E+03  0.17229318461E+03  0.00000000000E+00 0.  1.
         24    2    1    2    0    0  0.48240834232E+02 -0.72572968568E+02  0.30600141544E+02  0.12173972261E+03  0.79310639536E+02 0.  0.
         23    2    1    2    0    0 -0.63613591874E+02  0.16055681188E+03 -0.32263547808E+01  0.19515536866E+03  0.90829673785E+02 0.  0.
        -13    1    3    3    0    0  0.42663815697E+02 -0.28095279876E+02  0.51272268600E+02  0.72376732785E+02  0.00000000000E+00 0.  1.
         14    1    3    3    0    0  0.55770185343E+01 -0.44477688691E+02 -0.20672127056E+02  0.49362989821E+02  0.00000000000E+00 0. -1.
        -13    1    4    4    0    0 -0.34188834196E+02  0.97259154020E+02 -0.46427839789E+02  0.11306530738E+03  0.00000000000E+00 0.  1.
         13    1    4    4    0    0 -0.29424757679E+02  0.63297657862E+02  0.43201485009E+02  0.82090061287E+02  0.00000000000E+00 0. -1.
         -4    1    1    2    0  502  0.15372757643E+02 -0.87983843314E+02  0.44904305795E+02  0.99969370513E+02  0.00000000000E+00 0.  1.
<scales pt_clust_5="13000.00000" pt_clust_6="13000.00000" pt_clust_7="13000.00000" pt_clust_8="13000.00000" pt_clust_9="89.31678"></scales>
<clustering>
<clus scale="   79.311">  5  6 -1 -1</clus>
<clus scale="   89.317">  2  9  1 -1</clus>
<clus scale="   90.830">  7  8 -1 -1</clus>
<clus scale="  138.426">  1  5  2 -1</clus>
<clus scale="   89.317">  2  5  1 -1</clus>
</clustering>
</event>
<event>
 9    2  0.1654290E-004  0.1256650E+03  0.7546771E-02  0.1248563E+00
          2   -1    0    0  502    0 -0.00000000000E+00  0.00000000000E+00  0.10163467938E+04  0.10163467938E+04  0.00000000000E+00 0. -1.
         21   -1    0    0  501  502  0.00000000000E+00 -0.00000000000E+00 -0.82828771794E+02  0.82828771794E+02  0.00000000000E+00 0. -1.
         24    2    1    2    0    0  0.11703036200E+02  0.50214253745E+02  0.83678342637E+03  0.84209620631E+03  0.79127022592E+02 0.  0.
         23    2    1    2    0    0  0.76746319617E+02 -0.32189402460E+02  0.31290281360E+02  0.14558432764E+03  0.11528035193E+03 0.  0.
        -13    1    3    3    0    0 -0.25761302029E+02  0.10001493879E+02  0.11707322767E+03  0.12029054493E+03  0.00000000000E+00 0.  1.
         14    1    3    3    0    0  0.37464338229E+02  0.40212759866E+02  0.71971019870E+03  0.72180566138E+03  0.00000000000E+00 0. -1.
        -13    1    4    4    0    0  0.10553354854E+03 -0.35292984331E+02  0.14785689338E+02  0.11225658653E+03  0.00000000000E+00 0. -1.
         13    1    4    4    0    0 -0.28787228924E+02  0.31035818713E+01  0.16504592022E+02  0.33327741108E+02  0.00000000000E+00 0.  1.
          1    1    1    2  501    0 -0.88449355817E+02 -0.18024851285E+02  0.65444314266E+02  0.11149503163E+03  0.00000000000E+00 0. -1.
<scales pt_clust_5="13000.00000" pt_clust_6="13000.00000" pt_clust_7="13000.00000" pt_clust_8="13000.00000" pt_clust_9="90.26729"></scales>
<clustering>
<clus scale="   79.127">  5  6 -1 -1</clus>
<clus scale="   90.267">  2  9  1 -1</clus>
<clus scale="   93.612">  1  5  2 -1</clus>
<clus scale="  115.280">  7  8 -1 -1</clus>
<clus scale="   90.267">  2  5  1 -1</clus>
</clustering>
</event>
<event>
 9    2  0.1654290E-004  0.1430119E+03  0.7546771E-02  0.1211482E+00
          4   -1    0    0  502    0 -0.00000000000E+00  0.00000000000E+00  0.56485781897E+03  0.56485781897E+03  0.00000000000E+00 0. -1.
         21   -1    0    0  501  502  0.00000000000E+00 -0.00000000000E+00 -0.28914420540E+03  0.28914420540E+03  0.00000000000E+00 0. -1.
         24    2    1    2    0    0  0.20906336483E+02 -0.11333478854E+03  0.43922242084E+03  0.46101348555E+03  0.79594281775E+02 0.  0.
         23    2    1    2    0    0 -0.39379137952E+02  0.89734652348E+02  0.74849663522E+02  0.15275329698E+03  0.90155827716E+02 0.  0.
        -11    1    3    3    0    0 -0.16335149577E+02 -0.71633517520E+02  0.15746661209E+03  0.17376401200E+03  0.00000000000E+00 0.  1.
         12    1    3    3    0    0  0.37241486060E+02 -0.41701271016E+02  0.28175580875E+03  0.28724947354E+03  0.00000000000E+00 0. -1.
        -13    1    4    4    0    0 -0.51054563605E+02  0.12303939092E+02  0.44277140221E+02  0.68690760138E+02  0.00000000000E+00 0. -1.
         13    1    4    4    0    0  0.11675425653E+02  0.77430713256E+02  0.30572523300E+02  0.84062536843E+02  0.00000000000E+00 0.  1.
          3    1    1    2  501    0  0.18472801469E+02  0.23600136188E+02 -0.23835847079E+03  0.24023524184E+03  0.00000000000E+00 0. -1.
<scales pt_clust_5="13000.00000" pt_clust_6="13000.00000" pt_clust_7="13000.00000" pt_clust_8="13000.00000" pt_clust_9="29.97017"></scales>
<clustering>
<clus scale="   29.970">  2  9  1 -1</clus>
<clus scale="   79.594">  5  6 -1 -1</clus>
<clus scale="   90.156">  7  8 -1 -1</clus>
<clus scale="  136.600">  1  5  2 -1</clus>
<clus scale="   29.970">  2  5  1 -1</clus>
</clustering>
</event>
<event>
 9    2  0.1654290E-004  0.1152770E+03  0.7546771E-02  0.1258056E+00
         -1   -1    0    0    0  501 -0.00000000000E+00  0.00000000000E+00  0.65932124140E+02  0.65932124140E+02  0.00000000000E+00 0.  1.
         21   -1    0    0  501  502  0.00000000000E+00 -0.00000000000E+00 -0.41040866171E+03  0.41040866171E+03  0.00000000000E+00 0.  1.
         24    2    1    2    0    0 -0.42860172296E+02  0.37090234541E+02 -0.21981103382E+02  0.10015068970E+03  0.79588390322E+02 0.  0.
         23    2    1    2    0    0  0.91997295927E+02 -0.49224202621E+01 -0.20921915844E+03  0.24859409370E+03  0.97665933081E+02 0.  0.
        -11    1    3    3    0    0 -0.32787533807E+02  0.27168975860E+02  0.26160832602E+02  0.49975641916E+02  0.00000000000E+00 0.  1.
         12    1    3    3    0    0 -0.10072638489E+02  0.99212586801E+01 -0.48141935984E+02  0.50175047785E+02  0.00000000000E+00 0. -1.
        -13    1    4    4    0    0  0.55422215239E+02 -0.49895290676E+02 -0.97695753290E+02  0.12290493149E+03  0.00000000000E+00 0. -1.
         13    1    4    4    0    0  0.36575080688E+02  0.44972870414E+02 -0.11152340515E+03  0.12568916221E+03  0.00000000000E+00 0.  1.
         -2    1    1    2    0  502 -0.49137123631E+02 -0.32167814278E+02 -0.11327627575E+03  0.12759600245E+03  0.00000000000E+00 0.  1.
<scales pt_clust_5="13000.00000" pt_clust_6="13000.00000" pt_clust_7="13000.00000" pt_clust_8="13000.00000" pt_clust_9="58.73010"></scales>
<clustering>
<clus scale="   58.730">  2  9  1 -1</clus>
<clus scale="   79.588">  5  6 -1 -1</clus>
<clus scale="   97.666">  7  8 -1 -1</clus>
<clus scale="  100.421">  1  5  2 -1</clus>
<clus scale="   58.730">  2  5  1 -1</clus>
</clustering>
</event>
<event>
 9    2  0.1654290E-004  0.1267078E+03  0.7546771E-02  0.1235958E+00
         21   -1    0    0  501  502  0.00000000000E+00  0.00000000000E+00  0.38436486822E+02  0.38436486822E+02  0.00000000000E+00 0. -1.
          2   -1    0    0  502    0 -0.00000000000E+00 -0.00000000000E+00 -0.60990548231E+03  0.60990548231E+03  0.00000000000E+00 0. -1.
         24    2    1    2    0    0 -0.64314317020E+02 -0.20563125827E+02 -0.18238659214E+03  0.21034923970E+03  0.80142124580E+02 0.  0.
         23    2    1    2    0    0  0.10819224186E+03  0.37664362893E+02 -0.23976544447E+03  0.28142555917E+03  0.92675301777E+02 0.  0.
        -13    1    3    3    0    0 -0.15564594717E+02  0.22143116803E+02 -0.10958978968E+03  0.11288266577E+03  0.00000000000E+00 0.  1.
         14    1    3    3    0    0 -0.48749722303E+02 -0.42706242630E+02 -0.72796802461E+02  0.97466573925E+02  0.00000000000E+00 0. -1.
        -11    1    4    4    0    0  0.11647208178E+02  0.48091777497E+02 -0.67792536301E+02  0.83930355053E+02  0.00000000000E+00 0.  1.
         11    1    4    4    0    0  0.96545033679E+02 -0.10427414604E+02 -0.17197290817E+03  0.19749520412E+03  0.00000000000E+00 0. -1.
          1    1    1    2  501    0 -0.43877924837E+02 -0.17101237066E+02 -0.14931695887E+03  0.15656717026E+03  0.00000000000E+00 0. -1.
<scales pt_clust_5="13000.00000" pt_clust_6="13000.00000" pt_clust_7="13000.00000" pt_clust_8="13000.00000" pt_clust_9="47.09275"></scales>
<clustering>
<clus scale="   47.093">  1  9  2 -1</clus>
<clus scale="   80.142">  5  6 -1 -1</clus>
<clus scale="   92.675">  7  8 -1 -1</clus>
<clus scale="  117.851">  2  5  1 -1</clus>
<clus scale="   47.093">  1  5  2 -1</clus>
</clustering>
</event>
<event>
 9    2  0.1654290E-004  0.1821890E+03  0.7546771E-02  0.1166664E+00
          2   -1    0    0  502    0 -0.00000000000E+00  0.00000000000E+00  0.49331833755E+03  0.49331833755E+03  0.00000000000E+00 0. -1.
         21   -1    0    0  501  502  0.00000000000E+00 -0.00000000000E+00 -0.15133445799E+03  0.15133445799E+03  0.00000000000E+00 0. -1.
         24    2    1    2    0    0  0.85651031963E+02 -0.13715761971E+03  0.29827151484E+03  0.34862374602E+03  0.80151779784E+02 0.  0.
         23    2    1    2    0    0 -0.33550478789E+02  0.15072879869E+03 -0.52612582913E+02  0.18567896988E+03  0.88678016402E+02 0.  0.
        -13    1    3    3    0    0  0.67395231412E+02 -0.63637395248E+02  0.22450834926E+03  0.24289058067E+03  0.00000000000E+00 0.  1.
         14    1    3    3    0    0  0.18255800551E+02 -0.73520224461E+02  0.73763165588E+02  0.10573316536E+03  0.00000000000E+00 0. -1.
        -13    1    4    4    0    0  0.20804720623E+02  0.10496081019E+03 -0.30725891180E+02  0.11132694402E+03  0.00000000000E+00 0. -1.
         13    1    4    4    0    0 -0.54355199412E+02  0.45767988504E+02 -0.21886691733E+02  0.74352025863E+02  0.00000000000E+00 0.  1.
          1    1    1    2  501    0 -0.52100553174E+02 -0.13571178986E+02  0.96324947628E+02  0.11035007964E+03  0.00000000000E+00 0. -1.
<scales pt_clust_5="13000.00000" pt_clust_6="13000.00000" pt_clust_7="13000.00000" pt_clust_8="13000.00000" pt_clust_9="53.83909"></scales>
<clustering>
<clus scale="   53.839">  2  9  1 -1</clus>
<clus scale="   80.152">  5  6 -1 -1</clus>
<clus scale="   88.678">  7  8 -1 -1</clus>
<clus scale="  178.195">  1  5  2 -1</clus>
<clus scale="   53.839">  2  5  1 -1</clus>
</clustering>
</event>
<event>
 9    2  0.1654290E-004  0.1118292E+03  0.7546771E-02  0.1261307E+00
          2   -1    0    0  502    0 -0.00000000000E+00  0.00000000000E+00  0.71251556378E+03  0.71251556378E+03  0.00000000000E+00 0. -1.
         21   -1    0    0  501  502  0.00000000000E+00 -0.00000000000E+00 -0.78912737310E+02  0.78912737310E+02  0.00000000000E+00 0.  1.
         24    2    1    2    0    0  0.67620680527E+02  0.43409540287E+01  0.48832594621E+03  0.49948351919E+03  0.80188252776E+02 0.  0.
         23    2    1    2    0    0 -0.25016339656E+02 -0.77870317030E+02 -0.14402602312E+01  0.12239356133E+03  0.91041232309E+02 0.  0.
        -11    1    3    3    0    0 -0.43075382781E+01 -0.20086753413E+02  0.42179239055E+02  0.46916103375E+02  0.00000000000E+00 0.  1.
         12    1    3    3    0    0  0.71928218805E+02  0.24427707442E+02  0.44614670715E+03  0.45256741581E+03  0.00000000000E+00 0. -1.
        -13    1    4    4    0    0 -0.38395188586E+02  0.55051779782E+00 -0.15856137552E+02  0.41544081100E+02  0.00000000000E+00 0. -1.
         13    1    4    4    0    0  0.13378848930E+02 -0.78420834828E+02  0.14415877321E+02  0.80849480226E+02  0.00000000000E+00 0.  1.
          1    1    1    2  501    0 -0.42604340871E+02  0.73529363002E+02  0.14671714049E+03  0.16955122058E+03  0.00000000000E+00 0. -1.
<scales pt_clust_5="13000.00000" pt_clust_6="13000.00000" pt_clust_7="13000.00000" pt_clust_8="13000.00000" pt_clust_9="84.98061"></scales>
<clustering>
<clus scale="   80.188">  5  6 -1 -1</clus>
<clus scale="   84.981">  2  9  1 -1</clus>
<clus scale="   91.041">  7  8 -1 -1</clus>
<clus scale="  103.186">  1  5  2 -1</clus>
<clus scale="   84.981">  2  5  1 -1</clus>
</clustering>
</event>
<event>
 9    2  0.1654290E-004  0.4717480E+03  0.7546771E-02  0.1021574E+00
         -3   -1    0    0    0  501 -0.00000000000E+00  0.00000000000E+00  0.29559125616E+03  0.29559125616E+03  0.00000000000E+00 0.  1.
         21   -1    0    0  501  502  0.00000000000E+00 -0.00000000000E+00 -0.89779820647E+03  0.89779820647E+03  0.00000000000E+00 0. -1.
         23    2    1    2    0    0  0.45706918612E+03 -0.13166675953E+03 -0.13068594293E+03  0.50180966305E+03  0.92118107782E+02 0.  0.
         24    2    1    2    0    0 -0.43533345682E+03  0.80209210826E+02 -0.42302520850E+03  0.61760572469E+03  0.80856465507E+02 0.  0.
        -13    1    4    4    0    0 -0.14257602230E+03  0.48999954985E+02 -0.18737343779E+03  0.24049474612E+03  0.00000000000E+00 0.  1.
         14    1    4    4    0    0 -0.29275743452E+03  0.31209255841E+02 -0.23565177072E+03  0.37711097857E+03  0.00000000000E+00 0. -1.
        -13    1    3    3    0    0  0.77956645507E+02  0.11401980315E+02 -0.12961064065E+02  0.79845055674E+02  0.00000000000E+00 0. -1.
         13    1    3    3    0    0  0.37911254061E+03 -0.14306873985E+03 -0.11772487886E+03  0.42196460737E+03  0.00000000000E+00 0.  1.
         -4    1    1    2    0  502 -0.21735729304E+02  0.51457548708E+02 -0.48495798885E+02  0.73974074897E+02  0.00000000000E+00 0.  1.
<scales pt_clust_5="13000.00000" pt_clust_6="13000.00000" pt_clust_7="13000.00000" pt_clust_8="13000.00000" pt_clust_9="55.85984"></scales>
<clustering>
<clus scale="   55.860">  2  9  1 -1</clus>
<clus scale="   80.856">  5  6 -1 -1</clus>
<clus scale="   92.118">  7  8 -1 -1</clus>
<clus scale="  469.679">  2  5  1 -1</clus>
<clus scale="   55.860">  2  5  1 -1</clus>
</clustering>
</event>
<event>
 9    2  0.1654290E-004  0.1024332E+03  0.7546771E-02  0.1279119E+00
         21   -1    0    0  501  502  0.00000000000E+00  0.00000000000E+00  0.74292906344E+02  0.74292906344E+02  0.00000000000E+00 0.  1.
          2   -1    0    0  502    0 -0.00000000000E+00 -0.00000000000E+00 -0.47967478073E+03  0.47967478073E+03  0.00000000000E+00 0. -1.
         23    2    1    2    0    0  0.39304051248E+02  0.23980858059E+02 -0.32178853037E+03  0.33749007546E+03  0.90729282806E+02 0.  0.
         24    2    1    2    0    0 -0.78845066873E+02  0.43005428937E+02 -0.50338672898E+02  0.13188134861E+03  0.82417817459E+02 0.  0.
        -13    1    4    4    0    0 -0.81489337821E+02  0.62184263117E+02 -0.41255253123E+02  0.11049611155E+03  0.00000000000E+00 0.  1.
         14    1    4    4    0    0  0.26442709481E+01 -0.19178834180E+02 -0.90834197758E+01  0.21385237061E+02  0.00000000000E+00 0. -1.
        -13    1    3    3    0    0 -0.20759204940E+02 -0.12204600152E+02 -0.36630601103E+02  0.43837173629E+02  0.00000000000E+00 0.  1.
         13    1    3    3    0    0  0.60063256188E+02  0.36185458212E+02 -0.28515792927E+03  0.29365290183E+03  0.00000000000E+00 0. -1.
          1    1    1    2  501    0  0.39541015624E+02 -0.66986286997E+02 -0.33254671116E+02  0.84596262998E+02  0.00000000000E+00 0. -1.
<scales pt_clust_5="13000.00000" pt_clust_6="13000.00000" pt_clust_7="13000.00000" pt_clust_8="13000.00000" pt_clust_9="77.78595"></scales>
<clustering>
<clus scale="   77.786">  1  9  2 -1</clus>
<clus scale="   82.418">  5  6 -1 -1</clus>
<clus scale="   90.729">  7  8 -1 -1</clus>
<clus scale="   95.150">  1  5  2 -1</clus>
<clus scale="   77.786">  1  5  2 -1</clus>
</clustering>
</event>
<event>
 9    2  0.1654290E-004  0.9789514E+02  0.7546771E-02  0.1290736E+00
          4   -1    0    0  502    0 -0.00000000000E+00  0.00000000000E+00  0.15749318076E+03  0.15749318076E+03  0.00000000000E+00 0. -1.
         21   -1    0    0  501  502  0.00000000000E+00 -0.00000000000E+00 -0.19141160865E+03  0.19141160865E+03  0.00000000000E+00 0. -1.
         23    2    1    2    0    0 -0.68589059065E+00  0.34537267807E+02  0.69772560979E+02  0.12002046187E+03  0.91342255773E+02 0.  0.
         24    2    1    2    0    0  0.82300715753E+02 -0.10679811320E+02 -0.38102935057E+02  0.12149740692E+03  0.80139378870E+02 0.  0.
        -11    1    4    4    0    0  0.10501961430E+02 -0.33299288959E+02 -0.29537833617E+02  0.45734204419E+02  0.00000000000E+00 0.  1.
         12    1    4    4    0    0  0.71798754323E+02  0.22619477639E+02 -0.85651014400E+01  0.75763202504E+02  0.00000000000E+00 0. -1.
        -11    1    3    3    0    0 -0.14564135745E+02  0.59375796520E+02  0.23091183068E+02  0.65351373343E+02  0.00000000000E+00 0.  1.
         11    1    3    3    0    0  0.13878245154E+02 -0.24838528713E+02  0.46681377911E+02  0.54669088531E+02  0.00000000000E+00 0. -1.
          3    1    1    2  501    0 -0.81614825163E+02 -0.23857456487E+02 -0.65588053807E+02  0.10738692061E+03  0.00000000000E+00 0. -1.
<scales pt_clust_5="13000.00000" pt_clust_6="13000.00000" pt_clust_7="13000.00000" pt_clust_8="13000.00000" pt_clust_9="85.03034"></scales>
<clustering>
<clus scale="   80.139">  5  6 -1 -1</clus>
<clus scale="   85.030">  2  9  1 -1</clus>
<clus scale="   87.535">  2  5  1 -1</clus>
<clus scale="   91.342">  7  8 -1 -1</clus>
<clus scale="   85.030">  2  5  1 -1</clus>
</clustering>
</event>
<event>
 9    2  0.1654290E-004  0.1198083E+03  0.7546771E-02  0.1249908E+00
         21   -1    0    0  501  502  0.00000000000E+00  0.00000000000E+00  0.16465905870E+03  0.16465905870E+03  0.00000000000E+00 0.  1.
          2   -1    0    0  502    0 -0.00000000000E+00 -0.00000000000E+00 -0.10993240146E+03  0.10993240146E+03  0.00000000000E+00 0. -1.
         24    2    1    2    0    0  0.39313496645E+02  0.52235961574E+02 -0.92282849203E+01  0.12570079130E+03  0.10696439123E+03 0.  0.
         23    2    1    2    0    0 -0.65048092682E+01 -0.40638040944E+02  0.52685649831E+02  0.11231309813E+03  0.90247944011E+02 0.  0.
        -11    1    3    3    0    0  0.49322299325E+02  0.78996121774E+02 -0.19846915677E+02  0.95220672797E+02  0.00000000000E+00 0.  1.
         12    1    3    3    0    0 -0.10008802681E+02 -0.26760160200E+02  0.10618630757E+02  0.30480118506E+02  0.00000000000E+00 0. -1.
        -11    1    4    4    0    0 -0.37016750593E+02 -0.14389963282E+02 -0.69972494847E+01  0.40327067437E+02  0.00000000000E+00 0. -1.
         11    1    4    4    0    0  0.30511941325E+02 -0.26248077662E+02  0.59682899316E+02  0.71986030694E+02  0.00000000000E+00 0.  1.
          1    1    1    2  501    0 -0.32808687377E+02 -0.11597920630E+02  0.11269292324E+02  0.36577570720E+02  0.00000000000E+00 0. -1.
<scales pt_clust_5="13000.00000" pt_clust_6="13000.00000" pt_clust_7="13000.00000" pt_clust_8="13000.00000" pt_clust_9="34.79830"></scales>
<clustering>
<clus scale="   34.798">  1  9  2 -1</clus>
<clus scale="   90.248">  7  8 -1 -1</clus>
<clus scale="  105.154">  1  7  2 -1</clus>
<clus scale="  106.964">  5  6 -1 -1</clus>
<clus scale="   34.798">  1  5  2 -1</clus>
</clustering>
</event>
<event>
 9    2  0.1654290E-004  0.1542187E+03  0.7546771E-02  0.1220024E+00
          2   -1    0    0  502    0 -0.00000000000E+00  0.00000000000E+00  0.95036017740E+03  0.95036017740E+03  0.00000000000E+00 0. -1.
         21   -1    0    0  501  502  0.00000000000E+00 -0.00000000000E+00 -0.34843275149E+02  0.34843275149E+02  0.00000000000E+00 0.  1.
         24    2    1    2    0    0  0.41169085664E+02  0.15560311920E+02  0.26343664320E+03  0.27868811094E+03  0.79568720477E+02 0.  0.
         23    2    1    2    0    0 -0.58571808720E+02 -0.11282632935E+03  0.32590857733E+03  0.36570527886E+03  0.10659977877E+03 0.  0.
        -11    1    3    3    0    0  0.54519973799E+02 -0.11968512214E+02  0.20810652793E+03  0.21546229321E+03  0.00000000000E+00 0.  1.
         12    1    3    3    0    0 -0.13350888136E+02  0.27528824134E+02  0.55330115272E+02  0.63225817735E+02  0.00000000000E+00 0. -1.
        -13    1    4    4    0    0 -0.79026629018E+02 -0.48216243640E+02  0.14009353891E+03  0.16791728287E+03  0.00000000000E+00 0.  1.
         13    1    4    4    0    0  0.20454820299E+02 -0.64610085711E+02  0.18581503843E+03  0.19778799598E+03  0.00000000000E+00 0. -1.
          1    1    1    2  501    0  0.17402723056E+02  0.97266017432E+02  0.32617168172E+03  0.34081006275E+03  0.00000000000E+00 0. -1.
<scales pt_clust_5="13000.00000" pt_clust_6="13000.00000" pt_clust_7="13000.00000" pt_clust_8="13000.00000" pt_clust_9="111.44466"></scales>
<clustering>
<clus scale="   79.569">  5  6 -1 -1</clus>
<clus scale="   90.930">  1  5  2 -1</clus>
<clus scale="  106.600">  7  8 -1 -1</clus>
<clus scale="  111.445">  2  9  1 -1</clus>
<clus scale="  111.445">  2  5  1 -1</clus>
</clustering>
</event>
<event>
 9    2  0.1654290E-004  0.9800613E+02  0.7546771E-02  0.1289558E+00
         21   -1    0    0  501  502  0.00000000000E+00  0.00000000000E+00  0.12728943936E+03  0.12728943936E+03  0.00000000000E+00 0. -1.
          2   -1    0    0  502    0 -0.00000000000E+00 -0.00000000000E+00 -0.63759324956E+03  0.63759324956E+03  0.00000000000E+00 0. -1.
         24    2    1    2    0    0 -0.18742137761E+02  0.25623000066E+02 -0.52279350238E+03  0.53009592476E+03  0.81736390037E+02 0.  0.
         23    2    1    2    0    0  0.57587255517E+02 -0.44049134916E+02 -0.74086978300E+02  0.13812247144E+03  0.91281534160E+02 0.  0.
        -13    1    3    3    0    0 -0.26826204796E+02  0.52704949807E+02 -0.33323665847E+03  0.33844368445E+03  0.00000000000E+00 0.  1.
         14    1    3    3    0    0  0.80840670347E+01 -0.27081949741E+02 -0.18955684391E+03  0.19165224030E+03  0.00000000000E+00 0. -1.
        -11    1    4    4    0    0  0.20081416641E+02  0.27701111846E+02 -0.32126804395E+02  0.46933425748E+02  0.00000000000E+00 0.  1.
         11    1    4    4    0    0  0.37505838876E+02 -0.71750246762E+02 -0.41960173905E+02  0.91189045693E+02  0.00000000000E+00 0. -1.
          1    1    1    2  501    0 -0.38845117756E+02  0.18426134850E+02  0.86576670472E+02  0.96664292730E+02  0.00000000000E+00 0. -1.
<scales pt_clust_5="13000.00000" pt_clust_6="13000.00000" pt_clust_7="13000.00000" pt_clust_8="13000.00000" pt_clust_9="42.99379"></scales>
<clustering>
<clus scale="   42.994">  1  9  2 -1</clus>
<clus scale="   81.736">  5  6 -1 -1</clus>
<clus scale="   89.184">  2  5  1 -1</clus>
<clus scale="   91.282">  7  8 -1 -1</clus>
<clus scale="   42.994">  1  5  2 -1</clus>
</clustering>
</event>
<event>
 9    2  0.1654290E-004  0.1351026E+03  0.7546771E-02  0.1223378E+00
          2   -1    0    0  502    0 -0.00000000000E+00  0.00000000000E+00  0.16406645334E+04  0.16406645334E+04  0.00000000000E+00 0. -1.
         21   -1    0    0  501  502  0.00000000000E+00 -0.00000000000E+00 -0.33130412080E+02  0.33130412080E+02  0.00000000000E+00 0. -1.
         24    2    1    2    0    0  0.55363817755E+02  0.79538099721E+02  0.86599696480E+03  0.87524109177E+03  0.81882623646E+02 0.  0.
         23    2    1    2    0    0 -0.13006484817E+03 -0.88665933825E+01  0.25904577230E+03  0.30522572599E+03  0.95197428818E+02 0.  0.
        -11    1    3    3    0    0 -0.19611063069E+02  0.19073819304E+02  0.12164173142E+03  0.12468005133E+03  0.00000000000E+00 0.  1.
         12    1    3    3    0    0  0.74974880823E+02  0.60464280418E+02  0.74435523338E+03  0.75056104044E+03  0.00000000000E+00 0. -1.
        -11    1    4    4    0    0 -0.48428584192E+02 -0.50344184412E+02  0.11199672133E+03  0.13199670549E+03  0.00000000000E+00 0.  1.
         11    1    4    4    0    0 -0.81636263976E+02  0.41477591030E+02  0.14704905097E+03  0.17322902050E+03  0.00000000000E+00 0. -1.
          1    1    1    2  501    0  0.74701030414E+02 -0.70671506339E+02  0.48249138423E+03  0.49332812773E+03  0.00000000000E+00 0. -1.
<scales pt_clust_5="13000.00000" pt_clust_6="13000.00000" pt_clust_7="13000.00000" pt_clust_8="13000.00000" pt_clust_9="102.83344"></scales>
<clustering>
<clus scale="   81.883">  5  6 -1 -1</clus>
<clus scale="   95.197">  7  8 -1 -1</clus>
<clus scale="  102.833">  2  9  1 -1</clus>
<clus scale="  126.075">  1  5  2 -1</clus>
<clus scale="  102.833">  2  5  1 -1</clus>
</clustering>
</event>
<event>
 9    2  0.1654290E-004  0.1178138E+03  0.7546771E-02  0.1250718E+00
         21   -1    0    0  501  502  0.00000000000E+00  0.00000000000E+00  0.10641349227E+03  0.10641349227E+03  0.00000000000E+00 0. -1.
          2   -1    0    0  502    0 -0.00000000000E+00 -0.00000000000E+00 -0.50419887331E+03  0.50419887331E+03  0.00000000000E+00 0. -1.
         24    2    1    2    0    0  0.29546513694E+02  0.62155930403E+02 -0.26448080383E+03  0.28517613624E+03  0.81479917328E+02 0.  0.
         23    2    1    2    0    0 -0.10330664801E+03 -0.22741385476E+02 -0.18080492505E+03  0.22925750606E+03  0.93161950518E+02 0.  0.
        -13    1    3    3    0    0 -0.86907519130E+01  0.25564637530E+02 -0.16572886432E+02  0.31681862722E+02  0.00000000000E+00 0.  1.
         14    1    3    3    0    0  0.38237265607E+02  0.36591292873E+02 -0.24790791740E+03  0.25349427352E+03  0.00000000000E+00 0. -1.
        -13    1    4    4    0    0 -0.48864171344E+02 -0.39715698243E+02 -0.15373611763E+03  0.16613198907E+03  0.00000000000E+00 0.  1.
         13    1    4    4    0    0 -0.54442476668E+02  0.16974312767E+02 -0.27068807416E+02  0.63125516985E+02  0.00000000000E+00 0. -1.
          1    1    1    2  501    0  0.73760134318E+02 -0.39414544927E+02  0.47500347841E+02  0.96178723278E+02  0.00000000000E+00 0. -1.
<scales pt_clust_5="13000.00000" pt_clust_6="13000.00000" pt_clust_7="13000.00000" pt_clust_8="13000.00000" pt_clust_9="83.63052"></scales>
<clustering>
<clus scale="   81.480">  5  6 -1 -1</clus>
<clus scale="   83.631">  1  9  2 -1</clus>
<clus scale="   93.162">  7  8 -1 -1</clus>
<clus scale="  108.811">  2  5  1 -1</clus>
<clus scale="   83.631">  1  5  2 -1</clus>
</clustering>
</event>
<event>
 9    2  0.1654290E-004  0.1029613E+03  0.7546771E-02  0.1280323E+00
         21   -1    0    0  501  502  0.00000000000E+00  0.00000000000E+00  0.98141678819E+03  0.98141678819E+03  0.00000000000E+00 0.  1.
         -3   -1    0    0    0  501 -0.00000000000E+00 -0.00000000000E+00 -0.68249944297E+02  0.68249944297E+02  0.00000000000E+00 0.  1.
         23    2    1    2    0    0  0.24082465206E+02  0.50437529707E+02 -0.87103583401E+01  0.10721384769E+03  0.91077051235E+02 0.  0.
         24    2    1    2    0    0 -0.48074747251E+02  0.30323555573E+02  0.30631785046E+03  0.32115480976E+03  0.77968499864E+02 0.  0.
        -11    1    4    4    0    0 -0.33048832266E+02  0.39387956219E+02  0.86426002480E+02  0.10056386187E+03  0.00000000000E+00 0.  1.
         12    1    4    4    0    0 -0.15025914985E+02 -0.90644006461E+01  0.21989184798E+03  0.22059094789E+03  0.00000000000E+00 0. -1.
        -11    1    3    3    0    0  0.21297119976E+02  0.37387615178E+01 -0.43725210136E+02  0.48779500391E+02  0.00000000000E+00 0.  1.
         11    1    3    3    0    0  0.27853452305E+01  0.46698768189E+02  0.35014851796E+02  0.58434347303E+02  0.00000000000E+00 0. -1.
         -4    1    1    2    0  502  0.23992282045E+02 -0.80761085280E+02  0.61555935177E+03  0.62129807503E+03  0.00000000000E+00 0.  1.
<scales pt_clust_5="13000.00000" pt_clust_6="13000.00000" pt_clust_7="13000.00000" pt_clust_8="13000.00000" pt_clust_9="84.24953"></scales>
<clustering>
<clus scale="   77.968">  5  6 -1 -1</clus>
<clus scale="   84.250">  1  9  2 -1</clus>
<clus scale="   91.077">  7  8 -1 -1</clus>
<clus scale="   91.570">  1  5  2 -1</clus>
<clus scale="   84.250">  1  5  2 -1</clus>
</clustering>
</event>
<event>
 9    2  0.1654290E-004  0.1373136E+03  0.7546771E-02  0.1220169E+00
         21   -1    0    0  501  502  0.00000000000E+00  0.00000000000E+00  0.37798028198E+03  0.37798028198E+03  0.00000000000E+00 0. -1.
          2   -1    0    0  502    0 -0.00000000000E+00 -0.00000000000E+00 -0.10344968290E+03  0.10344968290E+03  0.00000000000E+00 0. -1.
         23    2    1    2    0    0  0.68936035236E+01  0.93741402453E+02 -0.13175969930E+02  0.13427369392E+03  0.94978136394E+02 0.  0.
         24    2    1    2    0    0 -0.37021382346E+02 -0.11961946761E+03  0.25557438818E+03  0.29606973302E+03  0.81606489541E+02 0.  0.
        -11    1    4    4    0    0 -0.32072455841E+02 -0.10541944786E+03  0.13363089284E+03  0.17320253443E+03  0.00000000000E+00 0.  1.
         12    1    4    4    0    0 -0.49489265046E+01 -0.14200019750E+02  0.12194349534E+03  0.12286719859E+03  0.00000000000E+00 0. -1.
        -13    1    3    3    0    0 -0.17126730783E+02  0.40735888268E+02 -0.48963686426E+02  0.65955895026E+02  0.00000000000E+00 0. -1.
         13    1    3    3    0    0  0.24020334306E+02  0.53005514185E+02  0.35787716496E+02  0.68317798898E+02  0.00000000000E+00 0.  1.
          1    1    1    2  501    0  0.30127778822E+02  0.25878065157E+02  0.32132180836E+02  0.51086537936E+02  0.00000000000E+00 0. -1.
<scales pt_clust_5="13000.00000" pt_clust_6="13000.00000" pt_clust_7="13000.00000" pt_clust_8="13000.00000" pt_clust_9="39.71596"></scales>
<clustering>
<clus scale="   39.716">  1  9  2 -1</clus>
<clus scale="   81.606">  5  6 -1 -1</clus>
<clus scale="   94.978">  7  8 -1 -1</clus>
<clus scale="  128.428">  1  5  2 -1</clus>
<clus scale="   39.716">  1  5  2 -1</clus>
</clustering>
</event>
<event>
 9    2  0.1654290E-004  0.1329405E+03  0.7546771E-02  0.1225715E+00
         -3   -1    0    0    0  501 -0.00000000000E+00  0.00000000000E+00  0.91357359871E+02  0.91357359871E+02  0.00000000000E+00 0.  1.
         21   -1    0    0  501  502  0.00000000000E+00 -0.00000000000E+00 -0.32685278976E+03  0.32685278976E+03  0.00000000000E+00 0.  1.
         24    2    1    2    0    0 -0.36386495710E+02  0.92964431414E+02 -0.51728625234E+02  0.13861219742E+03  0.81062494583E+02 0.  0.
         23    2    1    2    0    0  0.85772582776E+02 -0.56323300543E+02 -0.16615986448E+03  0.21563263028E+03  0.91428007393E+02 0.  0.
        -11    1    3    3    0    0 -0.31642334410E+02  0.67164998733E+02 -0.73536776078E+02  0.10449895606E+03  0.00000000000E+00 0.  1.
         12    1    3    3    0    0 -0.47441612998E+01  0.25799432682E+02  0.21808150844E+02  0.34113241364E+02  0.00000000000E+00 0. -1.
        -13    1    4    4    0    0 -0.17195553091E+02 -0.22069961566E+02 -0.44932220460E+02  0.52930848142E+02  0.00000000000E+00 0. -1.
         13    1    4    4    0    0  0.10296813587E+03 -0.34253338977E+02 -0.12122764402E+03  0.16270178214E+03  0.00000000000E+00 0.  1.
         -4    1    1    2    0  502 -0.49386087066E+02 -0.36641130872E+02 -0.17606940175E+02  0.63965321930E+02  0.00000000000E+00 0.  1.
<scales pt_clust_5="13000.00000" pt_clust_6="13000.00000" pt_clust_7="13000.00000" pt_clust_8="13000.00000" pt_clust_9="61.49441"></scales>
<clustering>
<clus scale="   61.494">  2  9  1 -1</clus>
<clus scale="   81.062">  5  6 -1 -1</clus>
<clus scale="   91.428">  7  8 -1 -1</clus>
<clus scale="  126.037">  1  5  2 -1</clus>
<clus scale="   61.494">  2  5  1 -1</clus>
</clustering>
</event>
<event>
 9    2  0.1654290E-004  0.1107213E+03  0.7546771E-02  0.1265531E+00
         21   -1    0    0  501  502  0.00000000000E+00  0.00000000000E+00  0.13639800542E+03  0.13639800542E+03  0.00000000000E+00 0.  1.
         -1   -1    0    0    0  501 -0.00000000000E+00 -0.00000000000E+00 -0.11836361869E+03  0.11836361869E+03  0.00000000000E+00 0.  1.
         24    2    1    2    0    0  0.37412916769E+02 -0.60302590138E+02 -0.16986581948E+02  0.10784540442E+03  0.79410065919E+02 0.  0.
         23    2    1    2    0    0 -0.13584630613E+02  0.31963698395E+02  0.41840337927E+02  0.10926806166E+03  0.94776976198E+02 0.  0.
        -13    1    3    3    0    0  0.48939928617E+02 -0.53697089486E+02 -0.38754717521E+02  0.82343318869E+02  0.00000000000E+00 0.  1.
         14    1    3    3    0    0 -0.11527011848E+02 -0.66055006515E+01  0.21768135573E+02  0.25502085548E+02  0.00000000000E+00 0. -1.
        -13    1    4    4    0    0 -0.79417102587E+01 -0.32042876103E+02  0.79414857233E+00  0.33021922154E+02  0.00000000000E+00 0. -1.
         13    1    4    4    0    0 -0.56429203543E+01  0.64006574498E+02  0.41046189355E+02  0.76246139507E+02  0.00000000000E+00 0.  1.
         -2    1    1    2    0  502 -0.23828286156E+02  0.28338891743E+02 -0.68193692540E+01  0.37648158034E+02  0.00000000000E+00 0.  1.
<scales pt_clust_5="13000.00000" pt_clust_6="13000.00000" pt_clust_7="13000.00000" pt_clust_8="13000.00000" pt_clust_9="37.02542"></scales>
<clustering>
<clus scale="   37.025">  1  9  2 -1</clus>
<clus scale="   79.410">  5  6 -1 -1</clus>
<clus scale="   94.777">  7  8 -1 -1</clus>
<clus scale="   97.890">  2  5  1 -1</clus>
<clus scale="   37.025">  1  5  2 -1</clus>
</clustering>
</event>
<event>
 9    2  0.1654290E-004  0.1784396E+03  0.7546771E-02  0.1170491E+00
         21   -1    0    0  501  502  0.00000000000E+00  0.00000000000E+00  0.11022918930E+03  0.11022918930E+03  0.00000000000E+00 0. -1.
          2   -1    0    0  502    0 -0.00000000000E+00 -0.00000000000E+00 -0.87924823285E+03  0.87924823285E+03  0.00000000000E+00 0. -1.
         23    2    1    2    0    0  0.76272823784E+02  0.13150812813E+03 -0.61353577900E+03  0.63839134226E+03  0.89473025832E+02 0.  0.
         24    2    1    2    0    0 -0.10539224834E+03 -0.12367218185E+03 -0.21701183574E+03  0.28256522167E+03  0.79665758456E+02 0.  0.
        -13    1    4    4    0    0 -0.50554038119E+02 -0.11357537065E+03 -0.13647162491E+03  0.18460655458E+03  0.00000000000E+00 0.  1.
         14    1    4    4    0    0 -0.54838210226E+02 -0.10096811202E+02 -0.80540210823E+02  0.97958667083E+02  0.00000000000E+00 0. -1.
        -13    1    3    3    0    0  0.41903961690E+02  0.22748975437E+02 -0.82888389135E+02  0.95623966359E+02  0.00000000000E+00 0.  1.
         13    1    3    3    0    0  0.34368862094E+02  0.10875915269E+03 -0.53064738986E+03  0.54276737590E+03  0.00000000000E+00 0. -1.
          1    1    1    2  501    0  0.29119424560E+02 -0.78359462713E+01  0.61528571184E+02  0.68520858231E+02  0.00000000000E+00 0. -1.
<scales pt_clust_5="13000.00000" pt_clust_6="13000.00000" pt_clust_7="13000.00000" pt_clust_8="13000.00000" pt_clust_9="30.15531"></scales>
<clustering>
<clus scale="   30.155">  1  9  2 -1</clus>
<clus scale="   79.666">  5  6 -1 -1</clus>
<clus scale="   89.473">  7  8 -1 -1</clus>
<clus scale="  173.729">  1  5  2 -1</clus>
<clus scale="   30.155">  1  5  2 -1</clus>
</clustering>
</event>
<event>
 9    2  0.1654290E-004  0.1124550E+03  0.7546771E-02  0.1260088E+00
         21   -1    0    0  501  502  0.00000000000E+00  0.00000000000E+00  0.39668972348E+03  0.39668972348E+03  0.00000000000E+00 0. -1.
         -1   -1    0    0    0  501 -0.00000000000E+00 -0.00000000000E+00 -0.33225755701E+03  0.33225755701E+03  0.00000000000E+00 0.  1.
         24    2    1    2    0    0  0.45602987576E+02  0.46141617522E+02 -0.30424146173E+03  0.32138237097E+03  0.80716045438E+02 0.  0.
         23    2    1    2    0    0 -0.86642211973E+02 -0.35977660186E+02  0.29110574497E+03  0.31922295756E+03  0.91430175256E+02 0.  0.
        -13    1    3    3    0    0  0.65982922610E+01  0.60830855940E+02 -0.19876113743E+03  0.20796615169E+03  0.00000000000E+00 0.  1.
         14    1    3    3    0    0  0.39004695314E+02 -0.14689238418E+02 -0.10548032429E+03  0.11341621928E+03  0.00000000000E+00 0. -1.
        -13    1    4    4    0    0 -0.70076349119E+02 -0.48523539035E+02  0.28513402413E+03  0.29760147893E+03  0.00000000000E+00 0. -1.
         13    1    4    4    0    0 -0.16565862854E+02  0.12545878849E+02  0.59717208463E+01  0.21621478628E+02  0.00000000000E+00 0.  1.
         -2    1    1    2    0  502  0.41039224397E+02 -0.10163957336E+02  0.77567883226E+02  0.88341951960E+02  0.00000000000E+00 0.  1.
<scales pt_clust_5="13000.00000" pt_clust_6="13000.00000" pt_clust_7="13000.00000" pt_clust_8="13000.00000" pt_clust_9="42.27912"></scales>
<clustering>
<clus scale="   42.279">  1  9  2 -1</clus>
<clus scale="   80.716">  5  6 -1 -1</clus>
<clus scale="   91.430">  7  8 -1 -1</clus>
<clus scale="  103.931">  2  5  1 -1</clus>
<clus scale="   42.279">  1  5  2 -1</clus>
</clustering>
</event>
<event>
 9    2  0.1654290E-004  0.9512497E+02  0.7546771E-02  0.1297739E+00
         -1   -1    0    0    0  501 -0.00000000000E+00  0.00000000000E+00  0.50065701528E+03  0.50065701528E+03  0.00000000000E+00 0.  1.
         21   -1    0    0  501  502  0.00000000000E+00 -0.00000000000E+00 -0.32213972089E+02  0.32213972089E+02  0.00000000000E+00 0. -1.
         23    2    1    2    0    0  0.95206540728E+01 -0.30409546029E+02  0.35126547747E+03  0.36410157070E+03  0.90372201352E+02 0.  0.
         24    2    1    2    0    0 -0.21853663511E+02  0.14605205602E+02  0.45431685628E+02  0.94275446391E+02  0.78313007181E+02 0.  0.
        -13    1    4    4    0    0 -0.47022370804E+02  0.14451978539E+02  0.48302976503E+02  0.68943024149E+02  0.00000000000E+00 0.  1.
         14    1    4    4    0    0  0.25168707293E+02  0.15322706286E+00 -0.28712908756E+01  0.25332422242E+02  0.00000000000E+00 0. -1.
        -11    1    3    3    0    0 -0.22752916255E+02  0.17173557569E+02  0.51417810281E+02  0.58791304559E+02  0.00000000000E+00 0.  1.
         11    1    3    3    0    0  0.32273570328E+02 -0.47583103598E+02  0.29984766719E+03  0.30531026614E+03  0.00000000000E+00 0. -1.
         -2    1    1    2    0  502  0.12333009438E+02  0.15804340427E+02  0.71745880092E+02  0.74493970282E+02  0.00000000000E+00 0.  1.
<scales pt_clust_5="13000.00000" pt_clust_6="13000.00000" pt_clust_7="13000.00000" pt_clust_8="13000.00000" pt_clust_9="20.04696"></scales>
<clustering>
<clus scale="   20.047">  2  9  1 -1</clus>
<clus scale="   78.313">  5  6 -1 -1</clus>
<clus scale="   83.753">  2  5  1 -1</clus>
<clus scale="   90.372">  7  8 -1 -1</clus>
<clus scale="   20.047">  2  5  1 -1</clus>
</clustering>
</event>
<event>
 9    2  0.1654290E-004  0.1238067E+03  0.7546771E-02  0.1248530E+00
         21   -1    0    0  501  502  0.00000000000E+00  0.00000000000E+00  0.28467627587E+03  0.28467627587E+03  0.00000000000E+00 0.  1.
          2   -1    0    0  502    0 -0.00000000000E+00 -0.00000000000E+00 -0.21319618601E+03  0.21319618601E+03  0.00000000000E+00 0. -1.
         24    2    1    2    0    0  0.42959889764E+02 -0.38450458977E+02 -0.18214443840E+03  0.20722465079E+03  0.80258766057E+02 0.  0.
         23    2    1    2    0    0 -0.21741047088E+02  0.20837663970E+02  0.20350474023E+03  0.23344254048E+03  0.11033747795E+03 0.  0.
        -11    1    3    3    0    0  0.66494271436E+02 -0.29358701025E+02 -0.12214619932E+03  0.14213766379E+03  0.00000000000E+00 0.  1.
         12    1    3    3    0    0 -0.23534381672E+02 -0.90917579517E+01 -0.59998239080E+02  0.65086986995E+02  0.00000000000E+00 0. -1.
        -11    1    4    4    0    0 -0.63443982971E+02  0.29283728287E+02  0.10482289104E+03  0.12597822908E+03  0.00000000000E+00 0.  1.
         11    1    4    4    0    0  0.41702935883E+02 -0.84460643166E+01  0.98681849193E+02  0.10746431140E+03  0.00000000000E+00 0. -1.
          1    1    1    2  501    0 -0.21218842676E+02  0.17612795006E+02  0.50119788039E+02  0.57205270610E+02  0.00000000000E+00 0. -1.
<scales pt_clust_5="13000.00000" pt_clust_6="13000.00000" pt_clust_7="13000.00000" pt_clust_8="13000.00000" pt_clust_9="27.57625"></scales>
<clustering>
<clus scale="   27.576">  1  9  2 -1</clus>
<clus scale="   80.259">  5  6 -1 -1</clus>
<clus scale="   97.955">  2  5  1 -1</clus>
<clus scale="  110.337">  7  8 -1 -1</clus>
<clus scale="   27.576">  1  5  2 -1</clus>
</clustering>
</event>
<event>
 9    2  0.1654290E-004  0.1355278E+03  0.7546771E-02  0.1230924E+00
          4   -1    0    0  502    0 -0.00000000000E+00  0.00000000000E+00  0.23551500020E+03  0.23551500020E+03  0.00000000000E+00 0. -1.
         21   -1    0    0  501  502  0.00000000000E+00 -0.00000000000E+00 -0.20145821602E+03  0.20145821602E+03  0.00000000000E+00 0.  1.
         23    2    1    2    0    0 -0.23941745395E+01 -0.15858322069E+02 -0.10930654148E+03  0.15281577767E+03  0.10558183293E+03 0.  0.
         24    2    1    2    0    0 -0.26921179925E+02 -0.96731355424E+02  0.73715755434E+02  0.14856020581E+03  0.80959354626E+02 0.  0.
        -11    1    4    4    0    0 -0.46910642611E+02 -0.37296512130E+02  0.59108279471E+02  0.84174977929E+02  0.00000000000E+00 0.  1.
         12    1    4    4    0    0  0.19989462685E+02 -0.59434843294E+02  0.14607475963E+02  0.64385227885E+02  0.00000000000E+00 0. -1.
        -13    1    3    3    0    0  0.46724518591E+02 -0.28465192617E+02 -0.68865212402E+02  0.87953768012E+02  0.00000000000E+00 0.  1.
         13    1    3    3    0    0 -0.49118693131E+02  0.12606870548E+02 -0.40441329074E+02  0.64862009660E+02  0.00000000000E+00 0. -1.
          3    1    1    2  501    0  0.29315354465E+02  0.11258967749E+03  0.69647570221E+02  0.13559723273E+03  0.00000000000E+00 0. -1.
<scales pt_clust_5="13000.00000" pt_clust_6="13000.00000" pt_clust_7="13000.00000" pt_clust_8="13000.00000" pt_clust_9="108.68935"></scales>
<clustering>
<clus scale="   80.959">  5  6 -1 -1</clus>
<clus scale="  105.582">  7  8 -1 -1</clus>
<clus scale="  106.793">  1  7  2 -1</clus>
<clus scale="  108.689">  2  9  1 -1</clus>
<clus scale="  108.689">  2  5  1 -1</clus>
</clustering>
</event>
<event>
 9    2  0.1654290E-004  0.1659500E+03  0.7546771E-02  0.1182629E+00
         21   -1    0    0  501  502  0.00000000000E+00  0.00000000000E+00  0.61224926395E+02  0.61224926395E+02  0.00000000000E+00 0.  1.
          2   -1    0    0  502    0 -0.00000000000E+00 -0.00000000000E+00 -0.87052916404E+03  0.87052916404E+03  0.00000000000E+00 0. -1.
         24    2    1    2    0    0  0.13462037911E+03 -0.71575918107E+02 -0.57242289043E+03  0.59821807980E+03  0.83373538925E+02 0.  0.
         23    2    1    2    0    0 -0.79973359778E+02  0.99666619714E+02 -0.22170798725E+03  0.27024608180E+03  0.86886936655E+02 0.  0.
        -11    1    3    3    0    0  0.42008729468E+02 -0.62220419139E+02 -0.18249017301E+03  0.19732910874E+03  0.00000000000E+00 0.  1.
         12    1    3    3    0    0  0.92611649639E+02 -0.93554989681E+01 -0.38993271742E+03  0.40088897107E+03  0.00000000000E+00 0. -1.
        -13    1    4    4    0    0 -0.85352876447E+02  0.67894667796E+02 -0.11377623084E+03  0.15760656756E+03  0.00000000000E+00 0.  1.
         13    1    4    4    0    0  0.53795166692E+01  0.31771951918E+02 -0.10793175641E+03  0.11263951425E+03  0.00000000000E+00 0. -1.
          1    1    1    2  501    0 -0.54647019329E+02 -0.28090701607E+02 -0.15173359969E+02  0.63289928828E+02  0.00000000000E+00 0. -1.
<scales pt_clust_5="13000.00000" pt_clust_6="13000.00000" pt_clust_7="13000.00000" pt_clust_8="13000.00000" pt_clust_9="61.44416"></scales>
<clustering>
<clus scale="   61.444">  1  9  2 -1</clus>
<clus scale="   83.374">  5  6 -1 -1</clus>
<clus scale="   86.887">  7  8 -1 -1</clus>
<clus scale="  164.138">  2  5  1 -1</clus>
<clus scale="   61.444">  1  5  2 -1</clus>
</clustering>
</event>
<event>
 9    2  0.1654290E-004  0.9679752E+02  0.7546771E-02  0.1293205E+00
         21   -1    0    0  501  502  0.00000000000E+00  0.00000000000E+00  0.16617730678E+02  0.16617730678E+02  0.00000000000E+00 0. -1.
          2   -1    0    0  502    0 -0.00000000000E+00 -0.00000000000E+00 -0.92688945422E+03  0.92688945422E+03  0.00000000000E+00 0. -1.
         24    2    1    2    0    0 -0.31192751589E+02  0.24904166099E+02 -0.57379884539E+03  0.58092627870E+03  0.81467914392E+02 0.  0.
         23    2    1    2    0    0 -0.33116318302E+01 -0.12310665704E+02 -0.28088118787E+03  0.29595069717E+03  0.92358291758E+02 0.  0.
        -11    1    3    3    0    0 -0.23230815010E+02 -0.26736795010E+02 -0.16207106519E+03  0.16589622402E+03  0.00000000000E+00 0.  1.
         12    1    3    3    0    0 -0.79619365792E+01  0.51640961109E+02 -0.41172778020E+03  0.41503005468E+03  0.00000000000E+00 0. -1.
        -13    1    4    4    0    0  0.41475902513E+02 -0.16220278546E+02 -0.98331167592E+02  0.10794612751E+03  0.00000000000E+00 0.  1.
         13    1    4    4    0    0 -0.44787534343E+02  0.39096128417E+01 -0.18255002028E+03  0.18800456965E+03  0.00000000000E+00 0. -1.
          1    1    1    2  501    0  0.34504383420E+02 -0.12593500395E+02 -0.55591690277E+02  0.66630209029E+02  0.00000000000E+00 0. -1.
<scales pt_clust_5="13000.00000" pt_clust_6="13000.00000" pt_clust_7="13000.00000" pt_clust_8="13000.00000" pt_clust_9="36.73076"></scales>
<clustering>
<clus scale="   36.731">  1  9  2 -1</clus>
<clus scale="   81.468">  5  6 -1 -1</clus>
<clus scale="   86.468">  2  5  1 -1</clus>
<clus scale="   92.358">  7  8 -1 -1</clus>
<clus scale="   36.731">  1  5  2 -1</clus>
</clustering>
</event>
<event>
 9    2  0.1654290E-004  0.1236063E+03  0.7546771E-02  0.1240263E+00
         -1   -1    0    0    0  501 -0.00000000000E+00  0.00000000000E+00  0.30206714036E+03  0.30206714036E+03  0.00000000000E+00 0.  1.
         21   -1    0    0  501  502  0.00000000000E+00 -0.00000000000E+00 -0.13962529003E+03  0.13962529003E+03  0.00000000000E+00 0.  1.
         24    2    1    2    0    0 -0.23318103846E+02 -0.79579838586E+02  0.19793641554E+03  0.22917976969E+03  0.80422991486E+02 0.  0.
         23    2    1    2    0    0 -0.76124047986E+01  0.91605993641E+02  0.35693936591E+02  0.13396886681E+03  0.90686235933E+02 0.  0.
        -13    1    3    3    0    0 -0.47681288771E+02 -0.77393444554E+02  0.16066940383E+03  0.18460202568E+03  0.00000000000E+00 0.  1.
         14    1    3    3    0    0  0.24363184925E+02 -0.21863940318E+01  0.37267011708E+02  0.44577744001E+02  0.00000000000E+00 0. -1.
        -13    1    4    4    0    0 -0.32784954946E+02  0.56942543779E+02  0.56211225370E+02  0.86469696544E+02  0.00000000000E+00 0.  1.
         13    1    4    4    0    0  0.25172550147E+02  0.34663449862E+02 -0.20517288779E+02  0.47499170267E+02  0.00000000000E+00 0. -1.
         -2    1    1    2    0  502  0.30930508644E+02 -0.12026155055E+02 -0.71188501801E+02  0.78543793892E+02  0.00000000000E+00 0.  1.
<scales pt_clust_5="13000.00000" pt_clust_6="13000.00000" pt_clust_7="13000.00000" pt_clust_8="13000.00000" pt_clust_9="33.18621"></scales>
<clustering>
<clus scale="   33.186">  2  9  1 -1</clus>
<clus scale="   80.423">  5  6 -1 -1</clus>
<clus scale="   90.686">  7  8 -1 -1</clus>
<clus scale="  116.286">  1  5  2 -1</clus>
<clus scale="   33.186">  2  5  1 -1</clus>
</clustering>
</event>
<event>
 9    2  0.1654290E-004  0.1650548E+03  0.7546771E-02  0.1186001E+00
         21   -1    0    0  501  502  0.00000000000E+00  0.00000000000E+00  0.11011346027E+03  0.11011346027E+03  0.00000000000E+00 0. -1.
          2   -1    0    0  502    0 -0.00000000000E+00 -0.00000000000E+00 -0.67944887537E+03  0.67944887537E+03  0.00000000000E+00 0. -1.
         23    2    1    2    0    0  0.14666311820E+03  0.40837329288E+02 -0.19569391706E+03  0.26379560318E+03  0.90079150654E+02 0.  0.
         24    2    1    2    0    0 -0.78144416086E+02 -0.10138427972E+03 -0.47102821268E+01  0.14567333891E+03  0.69377323188E+02 0.  0.
        -13    1    4    4    0    0 -0.55351100826E+02 -0.58369832268E+02  0.30034693523E+02  0.85865385905E+02  0.00000000000E+00 0.  1.
         14    1    4    4    0    0 -0.22793315260E+02 -0.43014447448E+02 -0.34744975650E+02  0.59807953005E+02  0.00000000000E+00 0. -1.
        -13    1    3    3    0    0  0.76933321062E+02 -0.18656916946E+01 -0.15366889323E+03  0.17186141347E+03  0.00000000000E+00 0.  1.
         13    1    3    3    0    0  0.69729797135E+02  0.42703020983E+02 -0.42025023828E+02  0.91934189709E+02  0.00000000000E+00 0. -1.
          1    1    1    2  501    0 -0.68518702111E+02  0.60546950427E+02 -0.36893121592E+03  0.38009339355E+03  0.00000000000E+00 0. -1.
<scales pt_clust_5="13000.00000" pt_clust_6="13000.00000" pt_clust_7="13000.00000" pt_clust_8="13000.00000" pt_clust_9="91.43716"></scales>
<clustering>
<clus scale="   69.377">  5  6 -1 -1</clus>
<clus scale="   90.079">  7  8 -1 -1</clus>
<clus scale="   91.437">  1  9  2 -1</clus>
<clus scale="  154.732">  1  5  2 -1</clus>
<clus scale="   91.437">  1  5  2 -1</clus>
</clustering>
</event>
<event>
 9    2  0.1654290E-004  0.1839876E+03  0.7546771E-02  0.1191973E+00
          2   -1    0    0  502    0 -0.00000000000E+00  0.00000000000E+00  0.13049081807E+03  0.13049081807E+03  0.00000000000E+00 0. -1.
         21   -1    0    0  501  502  0.00000000000E+00 -0.00000000000E+00 -0.73245367063E+03  0.73245367063E+03  0.00000000000E+00 0. -1.
         23    2    1    2    0    0  0.14289567086E+02 -0.27718480247E+02  0.56138438293E+02  0.11283724451E+03  0.92780459256E+02 0.  0.
         24    2    1    2    0    0  0.15094455640E+03 -0.41894285894E+02 -0.38679233991E+03  0.42490453873E+03  0.79976012173E+02 0.  0.
        -13    1    4    4    0    0  0.15414747736E+02 -0.36513229454E+02 -0.73333660451E+02  0.83358599605E+02  0.00000000000E+00 0.  1.
         14    1    4    4    0    0  0.13552980867E+03 -0.53810564398E+01 -0.31345867946E+03  0.34154593913E+03  0.00000000000E+00 0. -1.
        -11    1    3    3    0    0  0.48459929922E+02 -0.21979886901E+02  0.57263298107E+02  0.78170106475E+02  0.00000000000E+00 0. -1.
         11    1    3    3    0    0 -0.34170362836E+02 -0.57385933458E+01 -0.11248598134E+01  0.34667138035E+02  0.00000000000E+00 0.  1.
          1    1    1    2  501    0 -0.16523412349E+03  0.69612766140E+02 -0.27130895094E+03  0.32520270545E+03  0.00000000000E+00 0. -1.
<scales pt_clust_5="13000.00000" pt_clust_6="13000.00000" pt_clust_7="13000.00000" pt_clust_8="13000.00000" pt_clust_9="165.69644"></scales>
<clustering>
<clus scale="   79.976">  5  6 -1 -1</clus>
<clus scale="   92.780">  7  8 -1 -1</clus>
<clus scale="   97.881">  1  7  2 -1</clus>
<clus scale="  165.696">  2  9  1 -1</clus>
<clus scale="  165.696">  2  5  1 -1</clus>
</clustering>
</event>
<event>
 9    2  0.1654290E-004  0.1117978E+03  0.7546771E-02  0.1259895E+00
          2   -1    0    0  502    0 -0.00000000000E+00  0.00000000000E+00  0.13833035321E+04  0.13833035321E+04  0.00000000000E+00 0. -1.
         21   -1    0    0  501  502  0.00000000000E+00 -0.00000000000E+00 -0.46731003818E+02  0.46731003818E+02  0.00000000000E+00 0. -1.
         24    2    1    2    0    0 -0.56350302842E+02 -0.39128561076E+02  0.11754527465E+04  0.11803096964E+04  0.82069599874E+02 0.  0.
         23    2    1    2    0    0  0.62110337108E+02  0.14199602887E+02  0.18479219994E+03  0.21486778393E+03  0.89222669288E+02 0.  0.
        -11    1    3    3    0    0 -0.12096298299E+02  0.16733027633E+02  0.82809245497E+02  0.85344512337E+02  0.00000000000E+00 0.  1.
         12    1    3    3    0    0 -0.44254004544E+02 -0.55861588709E+02  0.10926435010E+04  0.10949651840E+04  0.00000000000E+00 0. -1.
        -11    1    4    4    0    0  0.84320735915E+02  0.16467375426E+02  0.13137968429E+03  0.15697701234E+03  0.00000000000E+00 0.  1.
         11    1    4    4    0    0 -0.22210398807E+02 -0.22677725393E+01  0.53412515654E+02  0.57890771595E+02  0.00000000000E+00 0. -1.
          1    1    1    2  501    0 -0.57600342658E+01  0.24928958190E+02 -0.23672418089E+02  0.34857055661E+02  0.00000000000E+00 0. -1.
<scales pt_clust_5="13000.00000" pt_clust_6="13000.00000" pt_clust_7="13000.00000" pt_clust_8="13000.00000" pt_clust_9="25.58576"></scales>
<clustering>
<clus scale="   25.586">  2  9  1 -1</clus>
<clus scale="   82.070">  5  6 -1 -1</clus>
<clus scale="   89.223">  7  8 -1 -1</clus>
<clus scale="  106.177">  1  5  2 -1</clus>
<clus scale="   25.586">  2  5  1 -1</clus>
</clustering>
</event>
<event>
 9    2  0.1654290E-004  0.2324864E+03  0.7546771E-02  0.1125864E+00
         21   -1    0    0  501  502  0.00000000000E+00  0.00000000000E+00  0.10020063960E+03  0.10020063960E+03  0.00000000000E+00 0. -1.
          2   -1    0    0  502    0 -0.00000000000E+00 -0.00000000000E+00 -0.14717664753E+04  0.14717664753E+04  0.00000000000E+00 0. -1.
         24    2    1    2    0    0 -0.24468083439E+03 -0.11105173377E+02 -0.85851568217E+03  0.89635338801E+03  0.80051134114E+02 0.  0.
         23    2    1    2    0    0  0.11622088747E+03 -0.15683037911E+03 -0.18352597283E+03  0.28409042821E+03  0.94459124495E+02 0.  0.
        -13    1    3    3    0    0 -0.41898556560E+02 -0.14281550678E+02 -0.75690557081E+02  0.87684161413E+02  0.00000000000E+00 0.  1.
         14    1    3    3    0    0 -0.20278227783E+03  0.31763773004E+01 -0.78282512509E+03  0.80866922660E+03  0.00000000000E+00 0. -1.
        -13    1    4    4    0    0  0.71350649543E+02 -0.15601918124E+03 -0.13812840860E+03  0.22025520962E+03  0.00000000000E+00 0. -1.
         13    1    4    4    0    0  0.44870237924E+02 -0.81119787051E+00 -0.45397564234E+02  0.63835218585E+02  0.00000000000E+00 0.  1.
          1    1    1    2  501    0  0.12845994692E+03  0.16793555248E+03 -0.32952418073E+03  0.39152329872E+03  0.00000000000E+00 0. -1.
<scales pt_clust_5="13000.00000" pt_clust_6="13000.00000" pt_clust_7="13000.00000" pt_clust_8="13000.00000" pt_clust_9="211.43393"></scales>
<clustering>
<clus scale="   80.051">  5  6 -1 -1</clus>
<clus scale="   94.459">  7  8 -1 -1</clus>
<clus scale="  211.434">  1  9  2 -1</clus>
<clus scale="  227.015">  2  5  1 -1</clus>
<clus scale="  211.434">  1  5  2 -1</clus>
</clustering>
</event>
<event>
 9    2  0.1654290E-004  0.1158347E+03  0.7546771E-02  0.1250663E+00
         21   -1    0    0  501  502  0.00000000000E+00  0.00000000000E+00  0.24838619599E+03  0.24838619599E+03  0.00000000000E+00 0.  1.
          2   -1    0    0  502    0 -0.00000000000E+00 -0.00000000000E+00 -0.88409133257E+02  0.88409133257E+02  0.00000000000E+00 0. -1.
         23    2    1    2    0    0 -0.75717712066E+02  0.10206556489E+02  0.18492720453E+02  0.11818190522E+03  0.88247585213E+02 0.  0.
         24    2    1    2    0    0  0.67193146684E+02 -0.30661843749E+02  0.15525521261E+03  0.19252273868E+03  0.86635767693E+02 0.  0.
        -13    1    4    4    0    0  0.38256745671E+02 -0.53985603477E+02  0.13464559009E+03  0.15002486095E+03  0.00000000000E+00 0.  1.
         14    1    4    4    0    0  0.28936401013E+02  0.23323759727E+02  0.20609622519E+02  0.42497877733E+02  0.00000000000E+00 0. -1.
        -11    1    3    3    0    0 -0.38776747182E+02 -0.28721106234E+02  0.37644101841E+02  0.61201441721E+02  0.00000000000E+00 0.  1.
         11    1    3    3    0    0 -0.36940964884E+02  0.38927662722E+02 -0.19151381388E+02  0.56980463500E+02  0.00000000000E+00 0. -1.
          1    1    1    2  501    0  0.85245653825E+01  0.20455287261E+02 -0.13770870331E+02  0.26090685341E+02  0.00000000000E+00 0. -1.
<scales pt_clust_5="13000.00000" pt_clust_6="13000.00000" pt_clust_7="13000.00000" pt_clust_8="13000.00000" pt_clust_9="22.16049"></scales>
<clustering>
<clus scale="   22.160">  1  9  2 -1</clus>
<clus scale="   86.636">  5  6 -1 -1</clus>
<clus scale="   88.248">  7  8 -1 -1</clus>
<clus scale="  114.611">  1  5  2 -1</clus>
<clus scale="   22.160">  1  5  2 -1</clus>
</clustering>
</event>
<event>
 9    2  0.1654290E-004  0.1493239E+03  0.7546771E-02  0.1217740E+00
          2   -1    0    0  502    0 -0.00000000000E+00  0.00000000000E+00  0.76738024553E+03  0.76738024553E+03  0.00000000000E+00 0. -1.
         21   -1    0    0  501  502  0.00000000000E+00 -0.00000000000E+00 -0.51333574837E+02  0.51333574837E+02  0.00000000000E+00 0. -1.
         24    2    1    2    0    0 -0.49650918074E+02  0.45886272664E+02  0.17435642945E+03  0.20358223125E+03  0.80466121459E+02 0.  0.
         23    2    1    2    0    0 -0.80506741226E+02 -0.60070977260E+02  0.40022389968E+03  0.42237540137E+03  0.90177337078E+02 0.  0.
        -11    1    3    3    0    0 -0.19740629404E+02  0.40892089988E+01 -0.16479364949E+01  0.20226956622E+02  0.00000000000E+00 0.  1.
         12    1    3    3    0    0 -0.29910288670E+02  0.41797063665E+02  0.17600436595E+03  0.18335527462E+03  0.00000000000E+00 0. -1.
        -13    1    4    4    0    0 -0.10031163941E+03 -0.53318020816E+02  0.32433004894E+03  0.34364984648E+03  0.00000000000E+00 0. -1.
         13    1    4    4    0    0  0.19804898184E+02 -0.67529564443E+01  0.75893850739E+02  0.78725554891E+02  0.00000000000E+00 0.  1.
          1    1    1    2  501    0  0.13015765930E+03  0.14184704597E+02  0.14146634156E+03  0.19275618774E+03  0.00000000000E+00 0. -1.
<scales pt_clust_5="13000.00000" pt_clust_6="13000.00000" pt_clust_7="13000.00000" pt_clust_8="13000.00000" pt_clust_9="119.01958"></scales>
<clustering>
<clus scale="   80.466">  5  6 -1 -1</clus>
<clus scale="   90.177">  7  8 -1 -1</clus>
<clus scale="  105.098">  1  5  2 -1</clus>
<clus scale="  119.020">  2  9  1 -1</clus>
<clus scale="  119.020">  2  5  1 -1</clus>
</clustering>
</event>
<event>
 9    2  0.1654290E-004  0.1083741E+03  0.7546771E-02  0.1268253E+00
         -1   -1    0    0    0  501 -0.00000000000E+00  0.00000000000E+00  0.84776323943E+03  0.84776323943E+03  0.00000000000E+00 0.  1.
         21   -1    0    0  501  502  0.00000000000E+00 -0.00000000000E+00 -0.68115639648E+02  0.68115639648E+02  0.00000000000E+00 0.  1.
         23    2    1    2    0    0 -0.67048130570E+02 -0.27637101574E+02  0.50814918604E+03  0.52136237232E+03  0.91344768854E+02 0.  0.
         24    2    1    2    0    0  0.38735794166E+02  0.22594560035E+02  0.32286876281E+03  0.33564437090E+03  0.80012060518E+02 0.  0.
        -13    1    4    4    0    0  0.61117892878E+01  0.48345809026E+02  0.20326849964E+03  0.20902811812E+03  0.00000000000E+00 0.  1.
         14    1    4    4    0    0  0.32624004878E+02 -0.25751248991E+02  0.11960026317E+03  0.12661625278E+03  0.00000000000E+00 0. -1.
        -11    1    3    3    0    0 -0.31779992100E+02  0.30752308339E+02  0.13588540603E+03  0.14290037067E+03  0.00000000000E+00 0. -1.
         11    1    3    3    0    0 -0.35268138470E+02 -0.58389409913E+02  0.37226378001E+03  0.37846200165E+03  0.00000000000E+00 0.  1.
         -2    1    1    2    0  502  0.28312336404E+02  0.50425415393E+01 -0.51370349065E+02  0.58872135861E+02  0.00000000000E+00 0.  1.
<scales pt_clust_5="13000.00000" pt_clust_6="13000.00000" pt_clust_7="13000.00000" pt_clust_8="13000.00000" pt_clust_9="28.75788"></scales>
<clustering>
<clus scale="   28.758">  2  9  1 -1</clus>
<clus scale="   80.012">  5  6 -1 -1</clus>
<clus scale="   91.345">  7  8 -1 -1</clus>
<clus scale="   99.010">  2  5  1 -1</clus>
<clus scale="   28.758">  2  5  1 -1</clus>
</clustering>
</event>
<event>
 9    2  0.1654290E-004  0.9479242E+02  0.7546771E-02  0.1298081E+00
         -3   -1    0    0    0  501 -0.00000000000E+00  0.00000000000E+00  0.13541464453E+03  0.13541464453E+03  0.00000000000E+00 0.  1.
         21   -1    0    0  501  502  0.00000000000E+00 -0.00000000000E+00 -0.48002772589E+03  0.48002772589E+03  0.00000000000E+00 0. -1.
         23    2    1    2    0    0 -0.22338078348E+02 -0.62257483249E+01  0.10804723970E+03  0.14344089618E+03  0.91451271189E+02 0.  0.
         24    2    1    2    0    0  0.55549890752E+02  0.15859167251E+02 -0.32341331612E+03  0.33820829232E+03  0.80320435741E+02 0.  0.
        -13    1    4    4    0    0  0.12041579723E+02 -0.30818240431E+02 -0.14500319616E+03  0.14873026082E+03  0.00000000000E+00 0.  1.
         14    1    4    4    0    0  0.43508311029E+02  0.46677407682E+02 -0.17841011996E+03  0.18947803150E+03  0.00000000000E+00 0. -1.
        -11    1    3    3    0    0 -0.53407768758E+02 -0.18658512509E+02  0.45880622997E+02  0.72839284863E+02  0.00000000000E+00 0.  1.
         11    1    3    3    0    0  0.31069690410E+02  0.12432764184E+02  0.62166616707E+02  0.70601611315E+02  0.00000000000E+00 0. -1.
         -4    1    1    2    0  502 -0.33211812404E+02 -0.96334189263E+01 -0.12924700495E+03  0.13379318193E+03  0.00000000000E+00 0.  1.
<scales pt_clust_5="13000.00000" pt_clust_6="13000.00000" pt_clust_7="13000.00000" pt_clust_8="13000.00000" pt_clust_9="34.58074"></scales>
<clustering>
<clus scale="   34.581">  2  9  1 -1</clus>
<clus scale="   80.320">  5  6 -1 -1</clus>
<clus scale="   84.105">  2  5  1 -1</clus>
<clus scale="   91.451">  7  8 -1 -1</clus>
<clus scale="   34.581">  2  5  1 -1</clus>
</clustering>
</event>
<event>
 9    2  0.1654290E-004  0.1359224E+03  0.7546771E-02  0.1243120E+00
         21   -1    0    0  501  502  0.00000000000E+00  0.00000000000E+00  0.38801434894E+03  0.38801434894E+03  0.00000000000E+00 0.  1.
         -1   -1    0    0    0  501 -0.00000000000E+00 -0.00000000000E+00 -0.91479020382E+02  0.91479020382E+02  0.00000000000E+00 0.  1.
         24    2    1    2    0    0 -0.15138523325E+02  0.12898043027E+02  0.20373347712E+03  0.21981748925E+03  0.80105333656E+02 0.  0.
         23    2    1    2    0    0  0.78883216507E+02  0.69205995354E+02  0.36797399850E+02  0.14160404759E+03  0.87667702253E+02 0.  0.
        -13    1    3    3    0    0 -0.43667996114E+02  0.10986830765E+02  0.16865030188E+03  0.17455809537E+03  0.00000000000E+00 0.  1.
         14    1    3    3    0    0  0.28529472789E+02  0.19112122625E+01  0.35083175244E+02  0.45259393888E+02  0.00000000000E+00 0. -1.
        -13    1    4    4    0    0  0.94724115316E+02  0.40873640987E+02  0.20119055510E+02  0.10510988985E+03  0.00000000000E+00 0.  1.
         13    1    4    4    0    0 -0.15840898809E+02  0.28332354367E+02  0.16678344340E+02  0.36494157737E+02  0.00000000000E+00 0. -1.
         -2    1    1    2    0  502 -0.63744693183E+02 -0.82104038381E+02  0.56004451589E+02  0.11807183248E+03  0.00000000000E+00 0.  1.
<scales pt_clust_5="13000.00000" pt_clust_6="13000.00000" pt_clust_7="13000.00000" pt_clust_8="13000.00000" pt_clust_9="103.87139"></scales>
<clustering>
<clus scale="   80.105">  5  6 -1 -1</clus>
<clus scale="   82.537">  2  5  1 -1</clus>
<clus scale="   87.668">  7  8 -1 -1</clus>
<clus scale="  103.871">  1  9  2 -1</clus>
<clus scale="  103.871">  1  5  2 -1</clus>
</clustering>
</event>
<event>
 9    2  0.1654290E-004  0.9303043E+02  0.7546771E-02  0.1301898E+00
          2   -1    0    0  502    0 -0.00000000000E+00  0.00000000000E+00  0.26289273887E+03  0.26289273887E+03  0.00000000000E+00 0. -1.
         21   -1    0    0  501  502  0.00000000000E+00 -0.00000000000E+00 -0.90084513379E+02  0.90084513379E+02  0.00000000000E+00 0. -1.
         24    2    1    2    0    0 -0.23997426261E+00 -0.78491739744E+01  0.14057529247E+03  0.16328614613E+03  0.82699973068E+02 0.  0.
         23    2    1    2    0    0  0.38429517025E+02 -0.30793716060E+02 -0.27828294316E+02  0.10870305048E+03  0.92827035350E+02 0.  0.
        -11    1    3    3    0    0 -0.34666821272E+02  0.17499415269E+01  0.11280702600E+03  0.11802658984E+03  0.00000000000E+00 0.  1.
         12    1    3    3    0    0  0.34426847009E+02 -0.95991155013E+01  0.27768266463E+02  0.45259556292E+02  0.00000000000E+00 0. -1.
        -11    1    4    4    0    0 -0.17438835671E+02 -0.39938365443E+02 -0.28528234622E+02  0.52086910011E+02  0.00000000000E+00 0.  1.
         11    1    4    4    0    0  0.55868352696E+02  0.91446493835E+01  0.69994030642E+00  0.56616140470E+02  0.00000000000E+00 0. -1.
          1    1    1    2  501    0 -0.38189542763E+02  0.38642890034E+02  0.60061227339E+02  0.80988055638E+02  0.00000000000E+00 0. -1.
<scales pt_clust_5="13000.00000" pt_clust_6="13000.00000" pt_clust_7="13000.00000" pt_clust_8="13000.00000" pt_clust_9="54.32971"></scales>
<clustering>
<clus scale="   54.330">  2  9  1 -1</clus>
<clus scale="   82.700">  5  6 -1 -1</clus>
<clus scale="   82.928">  1  5  2 -1</clus>
<clus scale="   92.827">  7  8 -1 -1</clus>
<clus scale="   54.330">  2  5  1 -1</clus>
</clustering>
</event>
<event>
 9    2  0.1654290E-004  0.1958531E+03  0.7546771E-02  0.1178700E+00
         21   -1    0    0  501  502  0.00000000000E+00  0.00000000000E+00  0.34618475414E+02  0.34618475414E+02  0.00000000000E+00 0. -1.
          2   -1    0    0  502    0 -0.00000000000E+00 -0.00000000000E+00 -0.17466295959E+04  0.17466295959E+04  0.00000000000E+00 0. -1.
         24    2    1    2    0    0 -0.62385556262E+02 -0.36216150452E+02 -0.52034753767E+03  0.53165338186E+03  0.81793589553E+02 0.  0.
         23    2    1    2    0    0 -0.11044237796E+02 -0.14806043886E+03 -0.64110231571E+03  0.66438745706E+03  0.91403747928E+02 0.  0.
        -13    1    3    3    0    0 -0.56754233348E+02 -0.29766736705E+02 -0.17777186059E+03  0.18897072798E+03  0.00000000000E+00 0.  1.
         14    1    3    3    0    0 -0.56313229140E+01 -0.64494137470E+01 -0.34257567709E+03  0.34268265388E+03  0.00000000000E+00 0. -1.
        -13    1    4    4    0    0  0.17093471644E+02 -0.14375484467E+03 -0.50501091364E+03  0.52535099223E+03  0.00000000000E+00 0. -1.
         13    1    4    4    0    0 -0.28137709440E+02 -0.43055941961E+01 -0.13609140207E+03  0.13903646483E+03  0.00000000000E+00 0.  1.
          1    1    1    2  501    0  0.73429794058E+02  0.18427658932E+03 -0.55056126708E+03  0.58520723238E+03  0.00000000000E+00 0. -1.
<scales pt_clust_5="13000.00000" pt_clust_6="13000.00000" pt_clust_7="13000.00000" pt_clust_8="13000.00000" pt_clust_9="173.21605"></scales>
<clustering>
<clus scale="   81.794">  5  6 -1 -1</clus>
<clus scale="   91.404">  7  8 -1 -1</clus>
<clus scale="  109.059">  2  5  1 -1</clus>
<clus scale="  173.216">  1  9  2 -1</clus>
<clus scale="  173.216">  1  5  2 -1</clus>
</clustering>
</event>
<event>
 9    2  0.1654290E-004  0.1688189E+03  0.7546771E-02  0.1197457E+00
          2   -1    0    0  502    0 -0.00000000000E+00  0.00000000000E+00  0.45539482911E+03  0.45539482911E+03  0.00000000000E+00 0. -1.
         21   -1    0    0  501  502  0.00000000000E+00 -0.00000000000E+00 -0.14011948337E+03  0.14011948337E+03  0.00000000000E+00 0. -1.
         23    2    1    2    0    0 -0.34127733494E+02  0.55535927031E+02  0.17732225552E+03  0.20992264473E+03  0.91517173709E+02 0.  0.
         24    2    1    2    0    0 -0.69321154897E+02  0.10842452318E+03  0.73812155592E+01  0.15185310397E+03  0.80271932205E+02 0.  0.
        -13    1    4    4    0    0 -0.62511597666E+02  0.28539483686E+02 -0.11013483817E+02  0.69595249820E+02  0.00000000000E+00 0.  1.
         14    1    4    4    0    0 -0.68095572314E+01  0.79885039494E+02  0.18394699376E+02  0.82257854152E+02  0.00000000000E+00 0. -1.
        -13    1    3    3    0    0  0.52890410144E+01  0.62350890548E+02  0.14688310294E+03  0.15965667364E+03  0.00000000000E+00 0.  1.
         13    1    3    3    0    0 -0.39416774508E+02 -0.68149635163E+01  0.30439152577E+02  0.50265971094E+02  0.00000000000E+00 0. -1.
          1    1    1    2  501    0  0.10344888839E+03 -0.16396045021E+03  0.13057187466E+03  0.23373856377E+03  0.00000000000E+00 0. -1.
<scales pt_clust_5="13000.00000" pt_clust_6="13000.00000" pt_clust_7="13000.00000" pt_clust_8="13000.00000" pt_clust_9="148.51352"></scales>
<clustering>
<clus scale="   80.272">  5  6 -1 -1</clus>
<clus scale="   91.517">  7  8 -1 -1</clus>
<clus scale="  112.358">  1  7  2 -1</clus>
<clus scale="  148.514">  2  9  1 -1</clus>
<clus scale="  148.514">  2  5  1 -1</clus>
</clustering>
</event>
<event>
 9    2  0.1654290E-004  0.1184171E+03  0.7546771E-02  0.1248942E+00
         21   -1    0    0  501  502  0.00000000000E+00  0.00000000000E+00  0.27601497287E+03  0.27601497287E+03  0.00000000000E+00 0. -1.
          2   -1    0    0  502    0 -0.00000000000E+00 -0.00000000000E+00 -0.58281562931E+03  0.58281562931E+03  0.00000000000E+00 0. -1.
         24    2    1    2    0    0  0.76960022184E+02 -0.25305428674E+02 -0.37290162838E+03  0.38986402475E+03  0.79844371218E+02 0.  0.
         23    2    1    2    0    0 -0.46331032408E+02  0.64845999059E+02 -0.18080080660E+03  0.21704976583E+03  0.89833740991E+02 0.  0.
        -13    1    3    3    0    0  0.38426250037E+02 -0.26737392842E-01 -0.46948526648E+02  0.60669115382E+02  0.00000000000E+00 0.  1.
         14    1    3    3    0    0  0.38533772146E+02 -0.25278691281E+02 -0.32595310173E+03  0.32919490937E+03  0.00000000000E+00 0. -1.
        -11    1    4    4    0    0  0.14794078339E+02  0.55994571876E+02 -0.96487986276E+02  0.11253527593E+03  0.00000000000E+00 0. -1.
         11    1    4    4    0    0 -0.61125110747E+02  0.88514271833E+01 -0.84312820323E+02  0.10451448989E+03  0.00000000000E+00 0.  1.
          1    1    1    2  501    0 -0.30628989776E+02 -0.39540570385E+02  0.24690177854E+03  0.25191681160E+03  0.00000000000E+00 0. -1.
<scales pt_clust_5="13000.00000" pt_clust_6="13000.00000" pt_clust_7="13000.00000" pt_clust_8="13000.00000" pt_clust_9="50.01591"></scales>
<clustering>
<clus scale="   50.016">  1  9  2 -1</clus>
<clus scale="   79.844">  5  6 -1 -1</clus>
<clus scale="   89.834">  7  8 -1 -1</clus>
<clus scale="  111.030">  2  5  1 -1</clus>
<clus scale="   50.016">  1  5  2 -1</clus>
</clustering>
</event>
<event>
 9    2  0.1654290E-004  0.4050606E+03  0.7546771E-02  0.1042041E+00
          2   -1    0    0  502    0 -0.00000000000E+00  0.00000000000E+00  0.57566171852E+03  0.57566171852E+03  0.00000000000E+00 0. -1.
         21   -1    0    0  501  502  0.00000000000E+00 -0.00000000000E+00 -0.39911494075E+03  0.39911494075E+03  0.00000000000E+00 0.  1.
         24    2    1    2    0    0 -0.19426511030E+03 -0.17181777739E+03 -0.93555805052E+02  0.28738204769E+03  0.81089277780E+02 0.  0.
         23    2    1    2    0    0 -0.69729478277E+02 -0.33163963738E+02 -0.12257543275E+03  0.17173321017E+03  0.92225322608E+02 0.  0.
        -13    1    3    3    0    0 -0.18842423515E+03 -0.17379666772E+03 -0.73893951139E+02  0.26677573000E+03  0.00000000000E+00 0.  1.
         14    1    3    3    0    0 -0.58408751469E+01  0.19788903320E+01 -0.19661853914E+02  0.20606317690E+02  0.00000000000E+00 0. -1.
        -11    1    4    4    0    0 -0.72183502635E+02  0.10249107210E+02 -0.96801969007E+02  0.12118631711E+03  0.00000000000E+00 0.  1.
         11    1    4    4    0    0  0.24540243584E+01 -0.43413070948E+02 -0.25773463742E+02  0.50546893059E+02  0.00000000000E+00 0. -1.
          1    1    1    2  501    0  0.26399458857E+03  0.20498174113E+03  0.39267801556E+03  0.51566140141E+03  0.00000000000E+00 0. -1.
<scales pt_clust_5="13000.00000" pt_clust_6="13000.00000" pt_clust_7="13000.00000" pt_clust_8="13000.00000" pt_clust_9="334.23161"></scales>
<clustering>
<clus scale="   81.089">  5  6 -1 -1</clus>
<clus scale="   92.225">  7  8 -1 -1</clus>
<clus scale="  119.434">  5  7 -1 -1</clus>
<clus scale="  334.232">  2  9  1 -1</clus>
<clus scale="  334.232">  2  5  1 -1</clus>
</clustering>
</event>
<event>
 9    2  0.1654290E-004  0.1119067E+03  0.7546771E-02  0.1262751E+00
         21   -1    0    0  501  502  0.00000000000E+00  0.00000000000E+00  0.56831038793E+02  0.56831038793E+02  0.00000000000E+00 0. -1.
          2   -1    0    0  502    0 -0.00000000000E+00 -0.00000000000E+00 -0.46558848687E+03  0.46558848687E+03  0.00000000000E+00 0. -1.
         24    2    1    2    0    0 -0.12466483315E+02 -0.10003422416E+03 -0.25296225548E+03  0.28325311273E+03  0.77975406171E+02 0.  0.
         23    2    1    2    0    0  0.30657775070E+01  0.13999233325E+02 -0.94498392463E+02  0.13311128281E+03  0.92646046367E+02 0.  0.
        -13    1    3    3    0    0 -0.18675738973E+01 -0.79769248595E+02 -0.96898626243E+02  0.12552276535E+03  0.00000000000E+00 0.  1.
         14    1    3    3    0    0 -0.10598909417E+02 -0.20264975564E+02 -0.15606362923E+03  0.15773034738E+03  0.00000000000E+00 0. -1.
        -13    1    4    4    0    0 -0.16971677336E+02  0.43004683350E+02 -0.84741051259E+02  0.96532307494E+02  0.00000000000E+00 0. -1.
         13    1    4    4    0    0  0.20037454843E+02 -0.29005450025E+02 -0.97573412041E+01  0.36578975315E+02  0.00000000000E+00 0.  1.
          1    1    1    2  501    0  0.94007058077E+01  0.86034990834E+02 -0.61296800133E+02  0.10605513012E+03  0.00000000000E+00 0. -1.
<scales pt_clust_5="13000.00000" pt_clust_6="13000.00000" pt_clust_7="13000.00000" pt_clust_8="13000.00000" pt_clust_9="86.54706"></scales>
<clustering>
<clus scale="   77.975">  5  6 -1 -1</clus>
<clus scale="   86.547">  1  9  2 -1</clus>
<clus scale="   92.646">  7  8 -1 -1</clus>
<clus scale="  100.100">  2  5  1 -1</clus>
<clus scale="   86.547">  1  5  2 -1</clus>
</clustering>
</event>
<event>
 9    2  0.1654290E-004  0.9452688E+02  0.7546771E-02  0.1297953E+00
         21   -1    0    0  501  502  0.00000000000E+00  0.00000000000E+00  0.10164665990E+03  0.10164665990E+03  0.00000000000E+00 0. -1.
          2   -1    0    0  502    0 -0.00000000000E+00 -0.00000000000E+00 -0.15724872910E+03  0.15724872910E+03  0.00000000000E+00 0. -1.
         23    2    1    2    0    0 -0.17656883681E+02  0.12991655997E+02 -0.79629037483E+02  0.12260575223E+03  0.90613675582E+02 0.  0.
         24    2    1    2    0    0  0.31734966046E+02 -0.31521674267E+02  0.47074711297E+02  0.10353673708E+03  0.80641822041E+02 0.  0.
        -13    1    4    4    0    0  0.36035861500E+02  0.14281827211E+02  0.42157658614E+02  0.57269730944E+02  0.00000000000E+00 0.  1.
         14    1    4    4    0    0 -0.43008954537E+01 -0.45803501478E+02  0.49170526822E+01  0.46267006132E+02  0.00000000000E+00 0. -1.
        -13    1    3    3    0    0 -0.29928055149E+02 -0.23394631003E+02 -0.74813695343E+02  0.83905221862E+02  0.00000000000E+00 0.  1.
         13    1    3    3    0    0  0.12271171469E+02  0.36386287000E+02 -0.48153421404E+01  0.38700530368E+02  0.00000000000E+00 0. -1.
          1    1    1    2  501    0 -0.14078082366E+02  0.18530018270E+02 -0.23047743019E+02  0.32752899695E+02  0.00000000000E+00 0. -1.
<scales pt_clust_5="13000.00000" pt_clust_6="13000.00000" pt_clust_7="13000.00000" pt_clust_8="13000.00000" pt_clust_9="23.27132"></scales>
<clustering>
<clus scale="   23.271">  1  9  2 -1</clus>
<clus scale="   80.642">  5  6 -1 -1</clus>
<clus scale="   85.015">  1  5  2 -1</clus>
<clus scale="   90.614">  7  8 -1 -1</clus>
<clus scale="   23.271">  1  5  2 -1</clus>
</clustering>
</event>
<event>
 9    2  0.1654290E-004  0.2402947E+03  0.7546771E-02  0.1150293E+00
          2   -1    0    0  502    0 -0.00000000000E+00  0.00000000000E+00  0.57409954719E+03  0.57409954719E+03  0.00000000000E+00 0. -1.
         21   -1    0    0  501  502  0.00000000000E+00 -0.00000000000E+00 -0.15133721671E+03  0.15133721671E+03  0.00000000000E+00 0. -1.
         24    2    1    2    0    0 -0.58849109525E+02  0.47651504734E+02  0.88925116496E+02  0.14443289429E+03  0.84966469944E+02 0.  0.
         23    2    1    2    0    0  0.40951348062E+02 -0.24064371603E+03  0.10750258479E+03  0.28302117236E+03  0.94645482179E+02 0.  0.
        -11    1    3    3    0    0 -0.50860482394E+02  0.43009457856E+02  0.12896391820E+02  0.67844815987E+02  0.00000000000E+00 0.  1.
         12    1    3    3    0    0 -0.79886271316E+01  0.46420468783E+01  0.76028724677E+02  0.76588078306E+02  0.00000000000E+00 0. -1.
        -11    1    4    4    0    0 -0.22755144682E+02 -0.72406476282E+02  0.52098537712E+01  0.76076520645E+02  0.00000000000E+00 0.  1.
         11    1    4    4    0    0  0.63706492745E+02 -0.16823723975E+03  0.10229273102E+03  0.20694465172E+03  0.00000000000E+00 0. -1.
          1    1    1    2  501    0  0.17897761463E+02  0.19299221130E+03  0.22633462919E+03  0.29798269724E+03  0.00000000000E+00 0. -1.
<scales pt_clust_5="13000.00000" pt_clust_6="13000.00000" pt_clust_7="13000.00000" pt_clust_8="13000.00000" pt_clust_9="220.87055"></scales>
<clustering>
<clus scale="   84.966">  5  6 -1 -1</clus>
<clus scale="   94.645">  7  8 -1 -1</clus>
<clus scale="  113.812">  1  5  2 -1</clus>
<clus scale="  220.871">  2  9  1 -1</clus>
<clus scale="  220.871">  2  5  1 -1</clus>
</clustering>
</event>
<event>
 9    2  0.1654290E-004  0.1643175E+03  0.7546771E-02  0.1203767E+00
         21   -1    0    0  501  502  0.00000000000E+00  0.00000000000E+00  0.13398954794E+03  0.13398954794E+03  0.00000000000E+00 0. -1.
          2   -1    0    0  502    0 -0.00000000000E+00 -0.00000000000E+00 -0.57208570225E+03  0.57208570225E+03  0.00000000000E+00 0. -1.
         24    2    1    2    0    0  0.49548441402E+02 -0.48079813458E+02 -0.30622609889E+03  0.32413677718E+03  0.80768249785E+02 0.  0.
         23    2    1    2    0    0 -0.97201943718E+02 -0.95668727874E+02  0.23174524205E+02  0.16520517817E+03  0.90304866802E+02 0.  0.
        -11    1    3    3    0    0 -0.55379340825E+01 -0.43261990850E+02 -0.78596740711E+02  0.89887241679E+02  0.00000000000E+00 0.  1.
         12    1    3    3    0    0  0.55086375485E+02 -0.48178226079E+01 -0.22762935818E+03  0.23424953551E+03  0.00000000000E+00 0. -1.
        -11    1    4    4    0    0 -0.29626124870E+02  0.20501616510E+01  0.34893638133E+02  0.45820043865E+02  0.00000000000E+00 0.  1.
         11    1    4    4    0    0 -0.67575818847E+02 -0.97718889525E+02 -0.11719113928E+02  0.11938513431E+03  0.00000000000E+00 0. -1.
          1    1    1    2  501    0  0.47653502316E+02  0.14374854133E+03 -0.15504457962E+03  0.21673329483E+03  0.00000000000E+00 0. -1.
<scales pt_clust_5="13000.00000" pt_clust_6="13000.00000" pt_clust_7="13000.00000" pt_clust_8="13000.00000" pt_clust_9="137.27818"></scales>
<clustering>
<clus scale="   80.768">  5  6 -1 -1</clus>
<clus scale="   90.305">  7  8 -1 -1</clus>
<clus scale="  106.255">  2  5  1 -1</clus>
<clus scale="  137.278">  1  9  2 -1</clus>
<clus scale="  137.278">  1  5  2 -1</clus>
</clustering>
</event>
<event>
 9    2  0.1654290E-004  0.9815741E+02  0.7546771E-02  0.1288534E+00
         21   -1    0    0  501  502  0.00000000000E+00  0.00000000000E+00  0.21192113981E+02  0.21192113981E+02  0.00000000000E+00 0. -1.
          2   -1    0    0  502    0 -0.00000000000E+00 -0.00000000000E+00 -0.84059559901E+03  0.84059559901E+03  0.00000000000E+00 0. -1.
         24    2    1    2    0    0  0.25478655405E+02 -0.37162114080E+02 -0.61514320418E+03  0.62208403204E+03  0.80976519248E+02 0.  0.
         23    2    1    2    0    0 -0.26700390498E+01  0.28488323480E+02 -0.18864515808E+03  0.21073301160E+03  0.89457771201E+02 0.  0.
        -11    1    3    3    0    0  0.45530208034E+02 -0.85986326402E+00 -0.21332756342E+03  0.21813387752E+03  0.00000000000E+00 0.  1.
         12    1    3    3    0    0 -0.20051552629E+02 -0.36302250816E+02 -0.40181564076E+03  0.40395015452E+03  0.00000000000E+00 0. -1.
        -11    1    4    4    0    0  0.25692797598E+02 -0.16508141636E+02 -0.27713495219E+02  0.41239258067E+02  0.00000000000E+00 0. -1.
         11    1    4    4    0    0 -0.28362836648E+02  0.44996465116E+02 -0.16093166286E+03  0.16949375354E+03  0.00000000000E+00 0.  1.
          1    1    1    2  501    0 -0.22808616355E+02  0.86737905998E+01 -0.15615122772E+02  0.28970669350E+02  0.00000000000E+00 0. -1.
<scales pt_clust_5="13000.00000" pt_clust_6="13000.00000" pt_clust_7="13000.00000" pt_clust_8="13000.00000" pt_clust_9="24.40221"></scales>
<clustering>
<clus scale="   24.402">  1  9  2 -1</clus>
<clus scale="   80.977">  5  6 -1 -1</clus>
<clus scale="   89.458">  7  8 -1 -1</clus>
<clus scale="   90.495">  2  5  1 -1</clus>
<clus scale="   24.402">  1  5  2 -1</clus>
</clustering>
</event>
<event>
 9    2  0.1654290E-004  0.1007936E+03  0.7546771E-02  0.1280748E+00
         21   -1    0    0  501  502  0.00000000000E+00  0.00000000000E+00  0.63166206713E+02  0.63166206713E+02  0.00000000000E+00 0.  1.
          2   -1    0    0  502    0 -0.00000000000E+00 -0.00000000000E+00 -0.31356243244E+03  0.31356243244E+03  0.00000000000E+00 0. -1.
         23    2    1    2    0    0  0.90021579397E+01  0.37228984230E+01 -0.64840268906E+02  0.11188096236E+03  0.90654235673E+02 0.  0.
         24    2    1    2    0    0  0.18199419462E+02 -0.68054001290E+02 -0.10352274140E+03  0.15710787430E+03  0.94886038069E+02 0.  0.
        -11    1    4    4    0    0  0.21874168636E+02 -0.80924552122E+02 -0.11300599362E+03  0.14070400486E+03  0.00000000000E+00 0.  1.
         12    1    4    4    0    0 -0.36747491739E+01  0.12870550831E+02  0.94832522158E+01  0.16403869445E+02  0.00000000000E+00 0. -1.
        -11    1    3    3    0    0 -0.36597741766E+02  0.10188962733E+01 -0.53476485592E+02  0.64808698207E+02  0.00000000000E+00 0.  1.
         11    1    3    3    0    0  0.45599899706E+02  0.27040021497E+01 -0.11363783314E+02  0.47072264148E+02  0.00000000000E+00 0. -1.
          1    1    1    2  501    0 -0.27201577402E+02  0.64331102867E+02 -0.82033215416E+02  0.10773980249E+03  0.00000000000E+00 0. -1.
<scales pt_clust_5="13000.00000" pt_clust_6="13000.00000" pt_clust_7="13000.00000" pt_clust_8="13000.00000" pt_clust_9="69.84570"></scales>
<clustering>
<clus scale="   69.846">  1  9  2 -1</clus>
<clus scale="   90.654">  7  8 -1 -1</clus>
<clus scale="   94.886">  5  6 -1 -1</clus>
<clus scale="   96.820">  2  7  1 -1</clus>
<clus scale="   69.846">  1  5  2 -1</clus>
</clustering>
</event>
<event>
 9    2  0.1654290E-004  0.1820746E+03  0.7546771E-02  0.1167244E+00
          2   -1    0    0  502    0 -0.00000000000E+00  0.00000000000E+00  0.19841325299E+03  0.19841325299E+03  0.00000000000E+00 0. -1.
         21   -1    0    0  501  502  0.00000000000E+00 -0.00000000000E+00 -0.35261997832E+03  0.35261997832E+03  0.00000000000E+00 0. -1.
         23    2    1    2    0    0 -0.75414720980E+02  0.84026753551E+02 -0.37777895218E+02  0.15035856109E+03  0.91829472794E+02 0.  0.
         24    2    1    2    0    0  0.11842111547E+03 -0.20797330432E+03 -0.74871502035E+02  0.26305450842E+03  0.79469973482E+02 0.  0.
        -13    1    4    4    0    0  0.59703140007E+02 -0.37706929288E+02 -0.33980340341E+02  0.78364156173E+02  0.00000000000E+00 0.  1.
         14    1    4    4    0    0  0.58717975463E+02 -0.17026637503E+03 -0.40891161694E+02  0.18469035225E+03  0.00000000000E+00 0. -1.
        -11    1    3    3    0    0 -0.15320075249E+02  0.26230984596E+02  0.30160608363E+02  0.42806910135E+02  0.00000000000E+00 0.  1.
         11    1    3    3    0    0 -0.60094645731E+02  0.57795768955E+02 -0.67938503581E+02  0.10755165096E+03  0.00000000000E+00 0. -1.
          1    1    1    2  501    0 -0.43006394490E+02  0.12394655077E+03 -0.41557328085E+02  0.13762016180E+03  0.00000000000E+00 0. -1.
<scales pt_clust_5="13000.00000" pt_clust_6="13000.00000" pt_clust_7="13000.00000" pt_clust_8="13000.00000" pt_clust_9="131.19565"></scales>
<clustering>
<clus scale="   79.470">  5  6 -1 -1</clus>
<clus scale="   91.829">  7  8 -1 -1</clus>
<clus scale="  131.196">  2  9  1 -1</clus>
<clus scale="  176.165">  2  5  1 -1</clus>
<clus scale="  131.196">  2  5  1 -1</clus>
</clustering>
</event>
<event>
 9    2  0.1654290E-004  0.1314740E+03  0.7546771E-02  0.1227150E+00
         21   -1    0    0  501  502  0.00000000000E+00  0.00000000000E+00  0.63548156253E+02  0.63548156253E+02  0.00000000000E+00 0. -1.
          2   -1    0    0  502    0 -0.00000000000E+00 -0.00000000000E+00 -0.32915000690E+03  0.32915000690E+03  0.00000000000E+00 0. -1.
         24    2    1    2    0    0  0.25159243570E+02 -0.85169606367E+02 -0.13516098070E+03  0.18106876884E+03  0.81428244253E+02 0.  0.
         23    2    1    2    0    0 -0.18429883152E+02  0.10823629061E+03 -0.10144181721E+03  0.17396905345E+03  0.88994573339E+02 0.  0.
        -13    1    3    3    0    0 -0.11933256483E+02 -0.80122883584E+02 -0.76110646632E+02  0.11115264106E+03  0.00000000000E+00 0.  1.
         14    1    3    3    0    0  0.37092500054E+02 -0.50467227832E+01 -0.59050334065E+02  0.69916127783E+02  0.00000000000E+00 0. -1.
        -11    1    4    4    0    0  0.29879709258E+02  0.22044099108E+02 -0.50845972788E+02  0.62960720132E+02  0.00000000000E+00 0.  1.
         11    1    4    4    0    0 -0.48309592410E+02  0.86192191499E+02 -0.50595844421E+02  0.11100833332E+03  0.00000000000E+00 0. -1.
          1    1    1    2  501    0 -0.67293604188E+01 -0.23066684240E+02 -0.28999052744E+02  0.37660340858E+02  0.00000000000E+00 0. -1.
<scales pt_clust_5="13000.00000" pt_clust_6="13000.00000" pt_clust_7="13000.00000" pt_clust_8="13000.00000" pt_clust_9="24.02825"></scales>
<clustering>
<clus scale="   24.028">  1  9  2 -1</clus>
<clus scale="   81.428">  5  6 -1 -1</clus>
<clus scale="   88.995">  7  8 -1 -1</clus>
<clus scale="  126.475">  2  5  1 -1</clus>
<clus scale="   24.028">  1  5  2 -1</clus>
</clustering>
</event>
<event>
 9    2  0.1654290E-004  0.9252947E+02  0.7546771E-02  0.1304911E+00
          2   -1    0    0  502    0 -0.00000000000E+00  0.00000000000E+00  0.27815320328E+03  0.27815320328E+03  0.00000000000E+00 0. -1.
         21   -1    0    0  501  502  0.00000000000E+00 -0.00000000000E+00 -0.20384579065E+03  0.20384579065E+03  0.00000000000E+00 0. -1.
         23    2    1    2    0    0 -0.98133164045E+00  0.23718240122E+01  0.23429539976E+03  0.25181338283E+03  0.92244549225E+02 0.  0.
         24    2    1    2    0    0  0.25108615534E+02 -0.31927190067E+02 -0.29070752758E+02  0.93822244519E+02  0.79421136110E+02 0.  0.
        -13    1    4    4    0    0 -0.68462639359E+01  0.23697789157E+02 -0.42121233900E+01  0.25023959005E+02  0.00000000000E+00 0.  1.
         14    1    4    4    0    0  0.31954879470E+02 -0.55624979224E+02 -0.24858629368E+02  0.68798285514E+02  0.00000000000E+00 0. -1.
        -11    1    3    3    0    0 -0.29686835128E+02 -0.16011589702E+02  0.20219960438E+03  0.20499355892E+03  0.00000000000E+00 0. -1.
         11    1    3    3    0    0  0.28705503488E+02  0.18383413714E+02  0.32095795379E+02  0.46819823913E+02  0.00000000000E+00 0.  1.
          1    1    1    2  501    0 -0.24127283894E+02  0.29555366054E+02 -0.13091723437E+03  0.13636336658E+03  0.00000000000E+00 0. -1.
<scales pt_clust_5="13000.00000" pt_clust_6="13000.00000" pt_clust_7="13000.00000" pt_clust_8="13000.00000" pt_clust_9="38.15292"></scales>
<clustering>
<clus scale="   38.153">  2  9  1 -1</clus>
<clus scale="   79.421">  5  6 -1 -1</clus>
<clus scale="   79.752">  2  5  1 -1</clus>
<clus scale="   92.245">  7  8 -1 -1</clus>
<clus scale="   38.153">  2  5  1 -1</clus>
</clustering>
</event>
<event>
 9    2  0.1654290E-004  0.1467819E+03  0.7546771E-02  0.1212294E+00
         21   -1    0    0  501  502  0.00000000000E+00  0.00000000000E+00  0.13718271002E+03  0.13718271002E+03  0.00000000000E+00 0. -1.
          2   -1    0    0  502    0 -0.00000000000E+00 -0.00000000000E+00 -0.55038771126E+03  0.55038771126E+03  0.00000000000E+00 0. -1.
         24    2    1    2    0    0 -0.74636566399E+02  0.58765908148E+02  0.30511699852E+02  0.12787097674E+03  0.79974832671E+02 0.  0.
         23    2    1    2    0    0 -0.47798514384E+02 -0.11056467072E+03 -0.74507433285E+02  0.16728519372E+03  0.89015358414E+02 0.  0.
        -11    1    3    3    0    0 -0.20611038008E+01  0.32507925106E+02  0.38324606427E+02  0.50297005888E+02  0.00000000000E+00 0.  1.
         12    1    3    3    0    0 -0.72575462598E+02  0.26257983042E+02 -0.78129065748E+01  0.77573970853E+02  0.00000000000E+00 0. -1.
        -13    1    4    4    0    0  0.13978667590E+02 -0.76119572643E+02 -0.26512556363E+02  0.81807751050E+02  0.00000000000E+00 0. -1.
         13    1    4    4    0    0 -0.61777181974E+02 -0.34445098076E+02 -0.47994876922E+02  0.85477442667E+02  0.00000000000E+00 0.  1.
          1    1    1    2  501    0  0.12243508078E+03  0.51798762572E+02 -0.36920926780E+03  0.39241425082E+03  0.00000000000E+00 0. -1.
<scales pt_clust_5="13000.00000" pt_clust_6="13000.00000" pt_clust_7="13000.00000" pt_clust_8="13000.00000" pt_clust_9="116.70994"></scales>
<clustering>
<clus scale="   79.975">  5  6 -1 -1</clus>
<clus scale="   89.015">  7  8 -1 -1</clus>
<clus scale="  124.177">  2  5  1 -1</clus>
<clus scale="  116.710">  1  9  2 -1</clus>
<clus scale="  116.710">  1  5  2 -1</clus>
</clustering>
</event>
<event>
 9    2  0.1654290E-004  0.1016436E+03  0.7546771E-02  0.1284466E+00
         21   -1    0    0  501  502  0.00000000000E+00  0.00000000000E+00  0.21406658254E+02  0.21406658254E+02  0.00000000000E+00 0. -1.
         -1   -1    0    0    0  501 -0.00000000000E+00 -0.00000000000E+00 -0.91281338020E+03  0.91281338020E+03  0.00000000000E+00 0.  1.
         24    2    1    2    0    0  0.30667305291E+00 -0.34432833884E+02 -0.55971620866E+03  0.56639475661E+03  0.79593165440E+02 0.  0.
         23    2    1    2    0    0 -0.27334365007E+02  0.50869912443E+02 -0.16867725201E+03  0.20177108275E+03  0.94470307429E+02 0.  0.
        -11    1    3    3    0    0 -0.28718950081E+02 -0.44183284856E+02 -0.27230315492E+03  0.27735527566E+03  0.00000000000E+00 0.  1.
         12    1    3    3    0    0  0.29025623133E+02  0.97504509718E+01 -0.28741305373E+03  0.28903948095E+03  0.00000000000E+00 0. -1.
        -11    1    4    4    0    0  0.20312648689E+02 -0.16644194107E+02 -0.57820131657E+02  0.63504334648E+02  0.00000000000E+00 0.  1.
         11    1    4    4    0    0 -0.47647013696E+02  0.67514106550E+02 -0.11085712035E+03  0.13826674810E+03  0.00000000000E+00 0. -1.
         -2    1    1    2    0  502  0.27027691954E+02 -0.16437078559E+02 -0.16301326128E+03  0.16605419910E+03  0.00000000000E+00 0.  1.
<scales pt_clust_5="13000.00000" pt_clust_6="13000.00000" pt_clust_7="13000.00000" pt_clust_8="13000.00000" pt_clust_9="31.63344"></scales>
<clustering>
<clus scale="   31.633">  1  9  2 -1</clus>
<clus scale="   79.593">  5  6 -1 -1</clus>
<clus scale="   87.988">  2  5  1 -1</clus>
<clus scale="   94.470">  7  8 -1 -1</clus>
<clus scale="   31.633">  1  5  2 -1</clus>
</clustering>
</event>
<event>
 9    2  0.1654290E-004  0.1652005E+03  0.7546771E-02  0.1184301E+00
         21   -1    0    0  501  502  0.00000000000E+00  0.00000000000E+00  0.27424196163E+02  0.27424196163E+02  0.00000000000E+00 0. -1.
          2   -1    0    0  502    0 -0.00000000000E+00 -0.00000000000E+00 -0.13072595497E+04  0.13072595497E+04  0.00000000000E+00 0. -1.
         24    2    1    2    0    0  0.14058033541E+03 -0.35858899266E+02 -0.60855456501E+03  0.63096625255E+03  0.82043049064E+02 0.  0.
         23    2    1    2    0    0 -0.13106821544E+03 -0.39555471352E+01 -0.42463862600E+03  0.45370144001E+03  0.91282586142E+02 0.  0.
        -11    1    3    3    0    0  0.34301446548E+02 -0.40099828039E+02 -0.29969496865E+03  0.30430520810E+03  0.00000000000E+00 0.  1.
         12    1    3    3    0    0  0.10627888887E+03  0.42409287733E+01 -0.30885959637E+03  0.32666104445E+03  0.00000000000E+00 0. -1.
        -11    1    4    4    0    0 -0.65160915558E+02 -0.41647709546E+02 -0.27822875582E+03  0.28877624070E+03  0.00000000000E+00 0. -1.
         11    1    4    4    0    0 -0.65907299880E+02  0.37692162411E+02 -0.14640987018E+03  0.16492519932E+03  0.00000000000E+00 0.  1.
          1    1    1    2  501    0 -0.95121199773E+01  0.39814446401E+02 -0.24664216249E+03  0.25001605326E+03  0.00000000000E+00 0. -1.
<scales pt_clust_5="13000.00000" pt_clust_6="13000.00000" pt_clust_7="13000.00000" pt_clust_8="13000.00000" pt_clust_9="40.93498"></scales>
<clustering>
<clus scale="   40.935">  1  9  2 -1</clus>
<clus scale="   82.043">  5  6 -1 -1</clus>
<clus scale="   91.283">  7  8 -1 -1</clus>
<clus scale="  160.280">  2  5  1 -1</clus>
<clus scale="   40.935">  1  5  2 -1</clus>
</clustering>
</event>
<event>
 9    2  0.1654290E-004  0.1358819E+03  0.7546771E-02  0.1221482E+00
         21   -1    0    0  501  502  0.00000000000E+00  0.00000000000E+00  0.14345081657E+03  0.14345081657E+03  0.00000000000E+00 0.  1.
          2   -1    0    0  502    0 -0.00000000000E+00 -0.00000000000E+00 -0.26790827933E+03  0.26790827933E+03  0.00000000000E+00 0. -1.
         24    2    1    2    0    0 -0.68354853201E+02  0.70611749138E+02 -0.14183217888E+03  0.19047594658E+03  0.80661726889E+02 0.  0.
         23    2    1    2    0    0  0.10472161261E+03 -0.41580203618E+02 -0.36611967807E+02  0.14960949453E+03  0.91362110242E+02 0.  0.
        -11    1    3    3    0    0 -0.26759694350E+02 -0.15277577108E+02 -0.25409953141E+02  0.39939345546E+02  0.00000000000E+00 0.  1.
         12    1    3    3    0    0 -0.41595158851E+02  0.85889326247E+02 -0.11642222574E+03  0.15053660103E+03  0.00000000000E+00 0. -1.
        -11    1    4    4    0    0  0.89953992271E+02 -0.77867266225E+01 -0.57675138932E+02  0.10713904745E+03  0.00000000000E+00 0. -1.
         11    1    4    4    0    0  0.14767620335E+02 -0.33793476995E+02  0.21063171125E+02  0.42470447085E+02  0.00000000000E+00 0.  1.
          1    1    1    2  501    0 -0.36366759404E+02 -0.29031545521E+02  0.53986683930E+02  0.71273654786E+02  0.00000000000E+00 0. -1.
<scales pt_clust_5="13000.00000" pt_clust_6="13000.00000" pt_clust_7="13000.00000" pt_clust_8="13000.00000" pt_clust_9="46.53356"></scales>
<clustering>
<clus scale="   46.534">  1  9  2 -1</clus>
<clus scale="   80.662">  5  6 -1 -1</clus>
<clus scale="   91.362">  7  8 -1 -1</clus>
<clus scale="  128.931">  2  5  1 -1</clus>
<clus scale="   46.534">  1  5  2 -1</clus>
</clustering>
</event>
<event>
 9    2  0.1654290E-004  0.1035722E+03  0.7546771E-02  0.1277800E+00
         21   -1    0    0  501  502  0.00000000000E+00  0.00000000000E+00  0.46251855970E+02  0.46251855970E+02  0.00000000000E+00 0. -1.
          2   -1    0    0  502    0 -0.00000000000E+00 -0.00000000000E+00 -0.82180020920E+03  0.82180020920E+03  0.00000000000E+00 0. -1.
         24    2    1    2    0    0 -0.28700713085E+02  0.51054190298E+02 -0.56706790467E+03  0.57574888411E+03  0.80563687668E+02 0.  0.
         23    2    1    2    0    0 -0.21056207604E+02  0.13360672739E+02 -0.35170297115E+02  0.10083142249E+03  0.91149078474E+02 0.  0.
        -13    1    3    3    0    0 -0.25463711237E+02 -0.12867840772E+02 -0.90190008383E+02  0.94595029088E+02  0.00000000000E+00 0.  1.
         14    1    3    3    0    0 -0.32370018481E+01  0.63922031070E+02 -0.47687789629E+03  0.48115385502E+03  0.00000000000E+00 0. -1.
        -11    1    4    4    0    0  0.28030924481E+02  0.38341938767E+01  0.13237229463E+02  0.31235524868E+02  0.00000000000E+00 0.  1.
         11    1    4    4    0    0 -0.49087132085E+02  0.95264788625E+01 -0.48407526578E+02  0.69595897618E+02  0.00000000000E+00 0. -1.
          1    1    1    2  501    0  0.49756920689E+02 -0.64414863037E+02 -0.17331015145E+03  0.19147175857E+03  0.00000000000E+00 0. -1.
<scales pt_clust_5="13000.00000" pt_clust_6="13000.00000" pt_clust_7="13000.00000" pt_clust_8="13000.00000" pt_clust_9="81.39430"></scales>
<clustering>
<clus scale="   80.564">  5  6 -1 -1</clus>
<clus scale="   81.394">  1  9  2 -1</clus>
<clus scale="   91.149">  7  8 -1 -1</clus>
<clus scale="   94.390">  2  5  1 -1</clus>
<clus scale="   81.394">  1  5  2 -1</clus>
</clustering>
</event>
<event>
 9    2  0.1654290E-004  0.1946027E+03  0.7546771E-02  0.1165213E+00
         -3   -1    0    0    0  501 -0.00000000000E+00  0.00000000000E+00  0.25850329658E+03  0.25850329658E+03  0.00000000000E+00 0.  1.
         21   -1    0    0  501  502  0.00000000000E+00 -0.00000000000E+00 -0.42571112256E+03  0.42571112256E+03  0.00000000000E+00 0.  1.
         23    2    1    2    0    0 -0.40727778844E+02  0.11361689847E+03  0.12156714618E+03  0.19400327543E+03  0.91055742593E+02 0.  0.
         24    2    1    2    0    0  0.11552016835E+03  0.84300299852E+02 -0.49436278205E+02  0.17076141473E+03  0.79145848324E+02 0.  0.
        -13    1    4    4    0    0  0.10574197631E+03  0.45657787586E+02 -0.11528519819E+02  0.11575364310E+03  0.00000000000E+00 0.  1.
         14    1    4    4    0    0  0.97781920369E+01  0.38642512267E+02 -0.37907758386E+02  0.55007771630E+02  0.00000000000E+00 0. -1.
        -11    1    3    3    0    0 -0.62464833513E+02  0.11253478274E+03  0.96898921313E+02  0.16110659112E+03  0.00000000000E+00 0.  1.
         11    1    3    3    0    0  0.21737054669E+02  0.10821157302E+01  0.24668224866E+02  0.32896684304E+02  0.00000000000E+00 0. -1.
         -4    1    1    2    0  502 -0.74792389503E+02 -0.19791719832E+03 -0.23933869396E+03  0.31944972898E+03  0.00000000000E+00 0.  1.
<scales pt_clust_5="13000.00000" pt_clust_6="13000.00000" pt_clust_7="13000.00000" pt_clust_8="13000.00000" pt_clust_9="177.78120"></scales>
<clustering>
<clus scale="   79.146">  5  6 -1 -1</clus>
<clus scale="   91.056">  7  8 -1 -1</clus>
<clus scale="  151.191">  1  7  2 -1</clus>
<clus scale="  177.781">  2  9  1 -1</clus>
<clus scale="  177.781">  2  5  1 -1</clus>
</clustering>
</event>
<event>
 9    2  0.1654290E-004  0.1170967E+03  0.7546771E-02  0.1251576E+00
         21   -1    0    0  501  502  0.00000000000E+00  0.00000000000E+00  0.85810116962E+02  0.85810116962E+02  0.00000000000E+00 0. -1.
          2   -1    0    0  502    0 -0.00000000000E+00 -0.00000000000E+00 -0.63373208444E+03  0.63373208444E+03  0.00000000000E+00 0. -1.
         24    2    1    2    0    0  0.70341835439E+02  0.26498163429E+02 -0.17329687984E+03  0.20568404124E+03  0.81387897011E+02 0.  0.
         23    2    1    2    0    0 -0.27830011641E+02 -0.82166692335E+02  0.62292212728E+01  0.12661631727E+03  0.92016377477E+02 0.  0.
        -13    1    3    3    0    0  0.10741423432E+02  0.43169869690E+02 -0.45196575326E+02  0.63417239356E+02  0.00000000000E+00 0.  1.
         14    1    3    3    0    0  0.59600412007E+02 -0.16671706261E+02 -0.12810030452E+03  0.14226680189E+03  0.00000000000E+00 0. -1.
        -11    1    4    4    0    0  0.13100950713E+02 -0.49622465200E+02  0.39389967643E+02  0.64696163047E+02  0.00000000000E+00 0. -1.
         11    1    4    4    0    0 -0.40930962354E+02 -0.32544227135E+02 -0.33160746370E+02  0.61920154222E+02  0.00000000000E+00 0.  1.
          1    1    1    2  501    0 -0.42511823799E+02  0.55668528906E+02 -0.38085430890E+03  0.38724184289E+03  0.00000000000E+00 0. -1.
<scales pt_clust_5="13000.00000" pt_clust_6="13000.00000" pt_clust_7="13000.00000" pt_clust_8="13000.00000" pt_clust_9="70.04459"></scales>
<clustering>
<clus scale="   70.045">  1  9  2 -1</clus>
<clus scale="   81.388">  5  6 -1 -1</clus>
<clus scale="   92.016">  7  8 -1 -1</clus>
<clus scale="  108.943">  2  5  1 -1</clus>
<clus scale="   70.045">  1  5  2 -1</clus>
</clustering>
</event>
<event>
 9    2  0.1654290E-004  0.2599279E+03  0.7546771E-02  0.1155119E+00
         21   -1    0    0  501  502  0.00000000000E+00  0.00000000000E+00  0.27434526409E+03  0.27434526409E+03  0.00000000000E+00 0. -1.
         -1   -1    0    0    0  501 -0.00000000000E+00 -0.00000000000E+00 -0.37217254686E+03  0.37217254686E+03  0.00000000000E+00 0.  1.
         24    2    1    2    0    0 -0.61075657123E+01  0.51782645674E+01 -0.59901508658E+02  0.10014077806E+03  0.79849031977E+02 0.  0.
         23    2    1    2    0    0  0.22025970209E+03  0.10632309461E+03  0.86365059506E+02  0.27482243076E+03  0.90826802945E+02 0.  0.
        -13    1    3    3    0    0 -0.10722174240E+02 -0.34944863479E+02 -0.14364821147E+02  0.39274121130E+02  0.00000000000E+00 0.  1.
         14    1    3    3    0    0  0.46146085278E+01  0.40123128046E+02 -0.45536687511E+02  0.60866656928E+02  0.00000000000E+00 0. -1.
        -13    1    4    4    0    0  0.69892010634E+02  0.69087596513E+02  0.17080722398E+01  0.98289911249E+02  0.00000000000E+00 0.  1.
         13    1    4    4    0    0  0.15036769146E+03  0.37235498099E+02  0.84656987266E+02  0.17653251951E+03  0.00000000000E+00 0. -1.
         -2    1    1    2    0  502 -0.21415213638E+03 -0.11150135918E+03 -0.12429083362E+03  0.27155460212E+03  0.00000000000E+00 0.  1.
<scales pt_clust_5="13000.00000" pt_clust_6="13000.00000" pt_clust_7="13000.00000" pt_clust_8="13000.00000" pt_clust_9="243.54269"></scales>
<clustering>
<clus scale="   79.849">  5  6 -1 -1</clus>
<clus scale="   80.250">  2  5  1 -1</clus>
<clus scale="   90.827">  7  8 -1 -1</clus>
<clus scale="  243.543">  1  9  2 -1</clus>
<clus scale="  243.543">  1  5  2 -1</clus>
</clustering>
</event>
<event>
 9    2  0.1654290E-004  0.1745787E+03  0.7546771E-02  0.1173954E+00
         21   -1    0    0  501  502  0.00000000000E+00  0.00000000000E+00  0.28054012590E+03  0.28054012590E+03  0.00000000000E+00 0.  1.
          2   -1    0    0  502    0 -0.00000000000E+00 -0.00000000000E+00 -0.31512448108E+03  0.31512448108E+03  0.00000000000E+00 0. -1.
         24    2    1    2    0    0  0.11616703038E+03 -0.85056089250E+02 -0.22046320706E+03  0.27671373828E+03  0.85071440709E+02 0.  0.
         23    2    1    2    0    0 -0.12879268868E+03  0.13496694490E+03  0.15095917032E+03  0.25674246959E+03  0.91238104512E+02 0.  0.
        -11    1    3    3    0    0  0.11416467033E+03 -0.38926837910E+02 -0.15018860329E+03  0.19262784643E+03  0.00000000000E+00 0.  1.
         12    1    3    3    0    0  0.20023600492E+01 -0.46129251340E+02 -0.70274603762E+02  0.84085891854E+02  0.00000000000E+00 0. -1.
        -13    1    4    4    0    0 -0.84053816501E+01  0.25524852695E+02  0.70068317040E+02  0.75044903882E+02  0.00000000000E+00 0.  1.
         13    1    4    4    0    0 -0.12038730703E+03  0.10944209220E+03  0.80890853275E+02  0.18169756571E+03  0.00000000000E+00 0. -1.
          1    1    1    2  501    0  0.12625658307E+02 -0.49910855649E+02  0.34919681560E+02  0.62208399107E+02  0.00000000000E+00 0. -1.
<scales pt_clust_5="13000.00000" pt_clust_6="13000.00000" pt_clust_7="13000.00000" pt_clust_8="13000.00000" pt_clust_9="51.48301"></scales>
<clustering>
<clus scale="   51.483">  1  9  2 -1</clus>
<clus scale="   85.071">  5  6 -1 -1</clus>
<clus scale="   91.238">  7  8 -1 -1</clus>
<clus scale="  171.437">  2  5  1 -1</clus>
<clus scale="   51.483">  1  5  2 -1</clus>
</clustering>
</event>
<event>
 9    2  0.1654290E-004  0.3205917E+03  0.7546771E-02  0.1088219E+00
          2   -1    0    0  502    0 -0.00000000000E+00  0.00000000000E+00  0.16780127043E+04  0.16780127043E+04  0.00000000000E+00 0. -1.
         21   -1    0    0  501  502  0.00000000000E+00 -0.00000000000E+00 -0.12824897883E+03  0.12824897883E+03  0.00000000000E+00 0. -1.
         23    2    1    2    0    0  0.20792675413E+03  0.71770854479E+00  0.61672007489E+03  0.65720646295E+03  0.91338020472E+02 0.  0.
         24    2    1    2    0    0  0.50057801195E+01 -0.28415046831E+03  0.56791569644E+03  0.64014185196E+03  0.80540709487E+02 0.  0.
        -11    1    4    4    0    0 -0.19960330256E+02 -0.10455488927E+03  0.14395614307E+03  0.17903494291E+03  0.00000000000E+00 0.  1.
         12    1    4    4    0    0  0.24966110375E+02 -0.17959557904E+03  0.42395955337E+03  0.46110690905E+03  0.00000000000E+00 0. -1.
        -13    1    3    3    0    0  0.10762153112E+03  0.31997605806E+02  0.22248607257E+03  0.24921134249E+03  0.00000000000E+00 0. -1.
         13    1    3    3    0    0  0.10030522302E+03 -0.31279897261E+02  0.39423400232E+03  0.40799512046E+03  0.00000000000E+00 0.  1.
          1    1    1    2  501    0 -0.21293253425E+03  0.28343275976E+03  0.36512795410E+03  0.50891336818E+03  0.00000000000E+00 0. -1.
<scales pt_clust_5="13000.00000" pt_clust_6="13000.00000" pt_clust_7="13000.00000" pt_clust_8="13000.00000" pt_clust_9="310.30991"></scales>
<clustering>
<clus scale="   80.541">  5  6 -1 -1</clus>
<clus scale="   91.338">  7  8 -1 -1</clus>
<clus scale="  227.105">  1  7  2 -1</clus>
<clus scale="  310.310">  2  9  1 -1</clus>
<clus scale="  310.310">  2  5  1 -1</clus>
</clustering>
</event>
<event>
 9    2  0.1654290E-004  0.3300852E+03  0.7546771E-02  0.1071099E+00
          2   -1    0    0  502    0 -0.00000000000E+00  0.00000000000E+00  0.59466865395E+03  0.59466865395E+03  0.00000000000E+00 0. -1.
         21   -1    0    0  501  502  0.00000000000E+00 -0.00000000000E+00 -0.15515734133E+03  0.15515734133E+03  0.00000000000E+00 0. -1.
         24    2    1    2    0    0 -0.76075662844E+02  0.58078389197E+02  0.17426683733E+03  0.21396278344E+03  0.79060333509E+02 0.  0.
         23    2    1    2    0    0 -0.14205461840E+03  0.98379307850E+02  0.13137001799E+03  0.23589287851E+03  0.92354565044E+02 0.  0.
        -13    1    3    3    0    0 -0.42068482339E+02  0.74780219079E+02  0.11221484951E+03  0.14125866636E+03  0.00000000000E+00 0.  1.
         14    1    3    3    0    0 -0.34007180505E+02 -0.16701829882E+02  0.62051987828E+02  0.72704117082E+02  0.00000000000E+00 0. -1.
        -13    1    4    4    0    0 -0.24922758700E+01  0.42982402581E+02  0.13884782343E+02  0.45238098450E+02  0.00000000000E+00 0.  1.
         13    1    4    4    0    0 -0.13956234253E+03  0.55396905269E+02  0.11748523564E+03  0.19065478006E+03  0.00000000000E+00 0. -1.
          1    1    1    2  501    0  0.21813028124E+03 -0.15645769705E+03  0.13387445730E+03  0.29997033333E+03  0.00000000000E+00 0. -1.
<scales pt_clust_5="13000.00000" pt_clust_6="13000.00000" pt_clust_7="13000.00000" pt_clust_8="13000.00000" pt_clust_9="268.43962"></scales>
<clustering>
<clus scale="   79.060">  5  6 -1 -1</clus>
<clus scale="   92.355">  7  8 -1 -1</clus>
<clus scale="  111.699">  5  7 -1 -1</clus>
<clus scale="  268.440">  2  9  1 -1</clus>
<clus scale="  268.440">  2  5  1 -1</clus>
</clustering>
</event>
<event>
 9    2  0.1654290E-004  0.1418126E+03  0.7546771E-02  0.1212914E+00
          2   -1    0    0  502    0 -0.00000000000E+00  0.00000000000E+00  0.77822109601E+03  0.77822109601E+03  0.00000000000E+00 0. -1.
         21   -1    0    0  501  502  0.00000000000E+00 -0.00000000000E+00 -0.38846278309E+02  0.38846278309E+02  0.00000000000E+00 0.  1.
         23    2    1    2    0    0  0.75562184768E+02 -0.69943346381E+02  0.41076796840E+03  0.43279251459E+03  0.89315851583E+02 0.  0.
         24    2    1    2    0    0 -0.11702914517E+03  0.49338248102E+02  0.27693638998E+03  0.31489247547E+03  0.79582808864E+02 0.  0.
        -13    1    4    4    0    0 -0.78070626467E+02  0.25881274968E+01  0.21183030017E+03  0.22577377436E+03  0.00000000000E+00 0.  1.
         14    1    4    4    0    0 -0.38958518706E+02  0.46750120605E+02  0.65106089812E+02  0.89118701107E+02  0.00000000000E+00 0. -1.
        -11    1    3    3    0    0  0.74669386517E+02 -0.12184696387E+02  0.18788914008E+03  0.20254953238E+03  0.00000000000E+00 0.  1.
         11    1    3    3    0    0  0.89279825163E+00 -0.57758649994E+02  0.22287882832E+03  0.23024298220E+03  0.00000000000E+00 0. -1.
          1    1    1    2  501    0  0.41466960405E+02  0.20605098279E+02  0.51670459323E+02  0.69382384270E+02  0.00000000000E+00 0. -1.
<scales pt_clust_5="13000.00000" pt_clust_6="13000.00000" pt_clust_7="13000.00000" pt_clust_8="13000.00000" pt_clust_9="46.30420"></scales>
<clustering>
<clus scale="   46.304">  2  9  1 -1</clus>
<clus scale="   79.583">  5  6 -1 -1</clus>
<clus scale="   89.316">  7  8 -1 -1</clus>
<clus scale="  135.893">  2  5  1 -1</clus>
<clus scale="   46.304">  2  5  1 -1</clus>
</clustering>
</event>
<event>
 9    2  0.1654290E-004  0.1134662E+03  0.7546771E-02  0.1258803E+00
         -3   -1    0    0    0  501 -0.00000000000E+00  0.00000000000E+00  0.60872417124E+02  0.60872417124E+02  0.00000000000E+00 0.  1.
         21   -1    0    0  501  502  0.00000000000E+00 -0.00000000000E+00 -0.40684748049E+03  0.40684748049E+03  0.00000000000E+00 0. -1.
         24    2    1    2    0    0  0.73151838965E+02 -0.20896556031E+02 -0.39033713550E+02  0.11646782309E+03  0.79077591156E+02 0.  0.
         23    2    1    2    0    0 -0.36629013033E+02 -0.64168862540E+01 -0.28304880277E+03  0.29976620513E+03  0.91434632187E+02 0.  0.
        -11    1    3    3    0    0  0.16766323664E+02 -0.26825350476E+02  0.17709635519E+02  0.36253830523E+02  0.00000000000E+00 0.  1.
         12    1    3    3    0    0  0.56385515301E+02  0.59287944452E+01 -0.56743349070E+02  0.80213992563E+02  0.00000000000E+00 0. -1.
        -13    1    4    4    0    0  0.28455672559E+02  0.12025170609E+02 -0.97031037467E+02  0.10183001650E+03  0.00000000000E+00 0. -1.
         13    1    4    4    0    0 -0.65084685592E+02 -0.18442056863E+02 -0.18601776530E+03  0.19793618863E+03  0.00000000000E+00 0.  1.
         -4    1    1    2    0  502 -0.36522825932E+02  0.27313442285E+02 -0.23892547048E+02  0.51485869401E+02  0.00000000000E+00 0.  1.
<scales pt_clust_5="13000.00000" pt_clust_6="13000.00000" pt_clust_7="13000.00000" pt_clust_8="13000.00000" pt_clust_9="45.60639"></scales>
<clustering>
<clus scale="   45.606">  2  9  1 -1</clus>
<clus scale="   79.078">  5  6 -1 -1</clus>
<clus scale="   91.435">  7  8 -1 -1</clus>
<clus scale="  103.767">  1  5  2 -1</clus>
<clus scale="   45.606">  2  5  1 -1</clus>
</clustering>
</event>
<event>
 9    2  0.1654290E-004  0.1364749E+03  0.7546771E-02  0.1234100E+00
          2   -1    0    0  502    0 -0.00000000000E+00  0.00000000000E+00  0.37865010237E+03  0.37865010237E+03  0.00000000000E+00 0. -1.
         21   -1    0    0  501  502  0.00000000000E+00 -0.00000000000E+00 -0.93495135232E+02  0.93495135232E+02  0.00000000000E+00 0. -1.
         23    2    1    2    0    0 -0.24189488350E+01 -0.36101905011E+02  0.15148199272E+02  0.99138283968E+02  0.91047968391E+02 0.  0.
         24    2    1    2    0    0 -0.98891974323E+02  0.77004724515E+02  0.12049805279E+03  0.18783190219E+03  0.71075259907E+02 0.  0.
        -11    1    4    4    0    0 -0.31654869927E+02  0.24502423221E+02 -0.19966998646E+00  0.40030480910E+02  0.00000000000E+00 0.  1.
         12    1    4    4    0    0 -0.67237104396E+02  0.52502301293E+02  0.12069772278E+03  0.14780142128E+03  0.00000000000E+00 0. -1.
        -13    1    3    3    0    0  0.44079619560E+02 -0.19800227604E+02  0.31491431163E+01  0.48424982974E+02  0.00000000000E+00 0. -1.
         13    1    3    3    0    0 -0.46498568395E+02 -0.16301677407E+02  0.11999056156E+02  0.50713300994E+02  0.00000000000E+00 0.  1.
          1    1    1    2  501    0  0.10131092316E+03 -0.40902819504E+02  0.14950871508E+03  0.18517505145E+03  0.00000000000E+00 0. -1.
<scales pt_clust_5="13000.00000" pt_clust_6="13000.00000" pt_clust_7="13000.00000" pt_clust_8="13000.00000" pt_clust_9="116.50629"></scales>
<clustering>
<clus scale="   71.075">  5  6 -1 -1</clus>
<clus scale="   91.048">  7  8 -1 -1</clus>
<clus scale="   97.974">  1  7  2 -1</clus>
<clus scale="  116.506">  2  9  1 -1</clus>
<clus scale="  116.506">  2  5  1 -1</clus>
</clustering>
</event>
<event>
 9    2  0.1654290E-004  0.9917926E+02  0.7546771E-02  0.1288138E+00
         -1   -1    0    0    0  501 -0.00000000000E+00  0.00000000000E+00  0.32926708366E+03  0.32926708366E+03  0.00000000000E+00 0.  1.
         21   -1    0    0  501  502  0.00000000000E+00 -0.00000000000E+00 -0.12592240150E+03  0.12592240150E+03  0.00000000000E+00 0. -1.
         23    2    1    2    0    0 -0.41087510820E+02 -0.10890577448E+02  0.28536893224E+03  0.30251260261E+03  0.90948661494E+02 0.  0.
         24    2    1    2    0    0  0.20375043569E+02  0.10091607293E+02 -0.16400948201E+02  0.83857827033E+02  0.79032658532E+02 0.  0.
        -11    1    4    4    0    0  0.25452521563E+02 -0.26866277206E+02  0.97843383755E+01  0.38280033729E+02  0.00000000000E+00 0.  1.
         12    1    4    4    0    0 -0.50774779937E+01  0.36957884499E+02 -0.26185286576E+02  0.45577793305E+02  0.00000000000E+00 0. -1.
        -11    1    3    3    0    0 -0.47148395417E+02 -0.41871162105E+02  0.23284478265E+03  0.24123195935E+03  0.00000000000E+00 0.  1.
         11    1    3    3    0    0  0.60608845969E+01  0.30980584657E+02  0.52524149592E+02  0.61280643258E+02  0.00000000000E+00 0. -1.
         -2    1    1    2    0  502  0.20712467251E+02  0.79897015506E+00 -0.65623301877E+02  0.68819055516E+02  0.00000000000E+00 0.  1.
<scales pt_clust_5="13000.00000" pt_clust_6="13000.00000" pt_clust_7="13000.00000" pt_clust_8="13000.00000" pt_clust_9="20.72787"></scales>
<clustering>
<clus scale="   20.728">  2  9  1 -1</clus>
<clus scale="   79.033">  5  6 -1 -1</clus>
<clus scale="   88.380">  2  5  1 -1</clus>
<clus scale="   90.949">  7  8 -1 -1</clus>
<clus scale="   20.728">  2  5  1 -1</clus>
</clustering>
</event>
<event>
 9    2  0.1654290E-004  0.9717913E+02  0.7546771E-02  0.1291378E+00
         21   -1    0    0  501  502  0.00000000000E+00  0.00000000000E+00  0.32610590668E+03  0.32610590668E+03  0.00000000000E+00 0.  1.
         -3   -1    0    0    0  501 -0.00000000000E+00 -0.00000000000E+00 -0.47176680503E+02  0.47176680503E+02  0.00000000000E+00 0.  1.
         24    2    1    2    0    0  0.92191567029E+01  0.37404942799E+02  0.66097531760E+02  0.11087066369E+03  0.80245235165E+02 0.  0.
         23    2    1    2    0    0  0.37122348382E+02 -0.33849240234E+02  0.11640830773E+03  0.15537152171E+03  0.89808551011E+02 0.  0.
        -13    1    3    3    0    0  0.20803718564E+02 -0.19370579994E+02  0.35062871942E+02  0.45137778680E+02  0.00000000000E+00 0.  1.
         14    1    3    3    0    0 -0.11584561862E+02  0.56775522793E+02  0.31034659818E+02  0.65732885012E+02  0.00000000000E+00 0. -1.
        -11    1    4    4    0    0  0.19890777613E+02  0.22709459523E+02  0.69702526696E+01  0.30983011606E+02  0.00000000000E+00 0.  1.
         11    1    4    4    0    0  0.17231570769E+02 -0.56558699757E+02  0.10943805506E+03  0.12438851010E+03  0.00000000000E+00 0. -1.
         -4    1    1    2    0  502 -0.46341505085E+02 -0.35557025656E+01  0.96423386683E+02  0.10704040178E+03  0.00000000000E+00 0.  1.
<scales pt_clust_5="13000.00000" pt_clust_6="13000.00000" pt_clust_7="13000.00000" pt_clust_8="13000.00000" pt_clust_9="46.47772"></scales>
<clustering>
<clus scale="   46.478">  1  9  2 -1</clus>
<clus scale="   80.245">  5  6 -1 -1</clus>
<clus scale="   88.417">  2  5  1 -1</clus>
<clus scale="   89.809">  7  8 -1 -1</clus>
<clus scale="   46.478">  1  5  2 -1</clus>
</clustering>
</event>
<event>
 9    2  0.1654290E-004  0.1201439E+03  0.7546771E-02  0.1247432E+00
         21   -1    0    0  501  502  0.00000000000E+00  0.00000000000E+00  0.78587126025E+02  0.78587126025E+02  0.00000000000E+00 0.  1.
         -3   -1    0    0    0  501 -0.00000000000E+00 -0.00000000000E+00 -0.22213370675E+03  0.22213370675E+03  0.00000000000E+00 0.  1.
         24    2    1    2    0    0 -0.76122279645E+02  0.24677637448E+02 -0.68256597179E+02  0.13351666838E+03  0.82244455297E+02 0.  0.
         23    2    1    2    0    0  0.53879820587E+02 -0.33936621497E+02 -0.35067454324E+02  0.12031805102E+03  0.95874802237E+02 0.  0.
        -13    1    3    3    0    0 -0.47775044051E+02 -0.23860166582E+02 -0.13581142698E+02  0.55101813223E+02  0.00000000000E+00 0.  1.
         14    1    3    3    0    0 -0.28347235594E+02  0.48537804031E+02 -0.54675454481E+02  0.78414855152E+02  0.00000000000E+00 0. -1.
        -13    1    4    4    0    0  0.31002265407E+02 -0.13380387875E+02  0.32008761212E+02  0.46526723874E+02  0.00000000000E+00 0.  1.
         13    1    4    4    0    0  0.22877555180E+02 -0.20556233623E+02 -0.67076215537E+02  0.73791327149E+02  0.00000000000E+00 0. -1.
         -4    1    1    2    0  502  0.22242459058E+02  0.92589840487E+01 -0.40222529223E+02  0.46886113378E+02  0.00000000000E+00 0.  1.
<scales pt_clust_5="13000.00000" pt_clust_6="13000.00000" pt_clust_7="13000.00000" pt_clust_8="13000.00000" pt_clust_9="24.09266"></scales>
<clustering>
<clus scale="   24.093">  1  9  2 -1</clus>
<clus scale="   82.244">  5  6 -1 -1</clus>
<clus scale="   95.875">  7  8 -1 -1</clus>
<clus scale="  109.575">  2  5  1 -1</clus>
<clus scale="   24.093">  1  5  2 -1</clus>
</clustering>
</event>
<event>
 9    2  0.1654290E-004  0.1015096E+03  0.7546771E-02  0.1281828E+00
          2   -1    0    0  502    0 -0.00000000000E+00  0.00000000000E+00  0.83927177310E+03  0.83927177310E+03  0.00000000000E+00 0. -1.
         21   -1    0    0  501  502  0.00000000000E+00 -0.00000000000E+00 -0.21148307202E+02  0.21148307202E+02  0.00000000000E+00 0.  1.
         23    2    1    2    0    0  0.31702653012E+02  0.97242865161E+01  0.53394212037E+03  0.54288841495E+03  0.92379777157E+02 0.  0.
         24    2    1    2    0    0 -0.65100319031E+02 -0.44319739407E+01  0.23796683856E+03  0.26026742413E+03  0.82784188587E+02 0.  0.
        -13    1    4    4    0    0 -0.70366269409E+02 -0.78654774071E+01  0.10206198131E+03  0.12421725176E+03  0.00000000000E+00 0.  1.
         14    1    4    4    0    0  0.52659503789E+01  0.34335034664E+01  0.13590485724E+03  0.13605017237E+03  0.00000000000E+00 0. -1.
        -11    1    3    3    0    0  0.50195121166E+02 -0.27021783258E+02  0.31351865409E+03  0.31865918067E+03  0.00000000000E+00 0. -1.
         11    1    3    3    0    0 -0.18492468154E+02  0.36746069774E+02  0.22042346628E+03  0.22422923428E+03  0.00000000000E+00 0.  1.
          1    1    1    2  501    0  0.33397666019E+02 -0.52923125754E+01  0.46214506976E+02  0.57264241224E+02  0.00000000000E+00 0. -1.
<scales pt_clust_5="13000.00000" pt_clust_6="13000.00000" pt_clust_7="13000.00000" pt_clust_8="13000.00000" pt_clust_9="33.81439"></scales>
<clustering>
<clus scale="   33.814">  2  9  1 -1</clus>
<clus scale="   82.784">  5  6 -1 -1</clus>
<clus scale="   92.380">  7  8 -1 -1</clus>
<clus scale="   92.862">  2  5  1 -1</clus>
<clus scale="   33.814">  2  5  1 -1</clus>
</clustering>
</event>
<event>
 9    2  0.1654290E-004  0.1287423E+03  0.7546771E-02  0.1234048E+00
          2   -1    0    0  502    0 -0.00000000000E+00  0.00000000000E+00  0.20686747109E+03  0.20686747109E+03  0.00000000000E+00 0. -1.
         21   -1    0    0  501  502  0.00000000000E+00 -0.00000000000E+00 -0.25603307352E+03  0.25603307352E+03  0.00000000000E+00 0.  1.
         23    2    1    2    0    0  0.67160856472E+01  0.77813460155E+02  0.13803580945E+03  0.18680330725E+03  0.98699293418E+02 0.  0.
         24    2    1    2    0    0 -0.85034766547E+01 -0.10059279044E+03 -0.54337431220E+02  0.14128280931E+03  0.82565472027E+02 0.  0.
        -11    1    4    4    0    0 -0.32136940028E+02 -0.42979571334E+02 -0.57853204331E+02  0.78911467593E+02  0.00000000000E+00 0.  1.
         12    1    4    4    0    0  0.23633463373E+02 -0.57613219111E+02  0.35157731112E+01  0.62371341719E+02  0.00000000000E+00 0. -1.
        -11    1    3    3    0    0 -0.10364069316E+02 -0.20683094246E+02  0.12396932939E+02  0.26246681060E+02  0.00000000000E+00 0.  1.
         11    1    3    3    0    0  0.17080154963E+02  0.98496554401E+02  0.12563887651E+03  0.16055662619E+03  0.00000000000E+00 0. -1.
          1    1    1    2  501    0  0.17873910075E+01  0.22779330290E+02 -0.13286398066E+03  0.13481442805E+03  0.00000000000E+00 0. -1.
<scales pt_clust_5="13000.00000" pt_clust_6="13000.00000" pt_clust_7="13000.00000" pt_clust_8="13000.00000" pt_clust_9="22.84935"></scales>
<clustering>
<clus scale="   22.849">  2  9  1 -1</clus>
<clus scale="   82.565">  5  6 -1 -1</clus>
<clus scale="   98.699">  7  8 -1 -1</clus>
<clus scale="  116.834">  2  5  1 -1</clus>
<clus scale="   22.849">  2  5  1 -1</clus>
</clustering>
</event>
<event>
 9    2  0.1654290E-004  0.1123895E+03  0.7546771E-02  0.1259774E+00
          2   -1    0    0  502    0 -0.00000000000E+00  0.00000000000E+00  0.68253428791E+03  0.68253428791E+03  0.00000000000E+00 0. -1.
         21   -1    0    0  501  502  0.00000000000E+00 -0.00000000000E+00 -0.39234267798E+02  0.39234267798E+02  0.00000000000E+00 0. -1.
         24    2    1    2    0    0 -0.73553661895E+02 -0.92964430369E+01  0.47703492261E+03  0.48939280729E+03  0.80289709243E+02 0.  0.
         23    2    1    2    0    0  0.46051838217E+02 -0.37344507923E+02  0.11825197906E+03  0.16000871065E+03  0.90021513302E+02 0.  0.
        -11    1    3    3    0    0 -0.88912094821E+02 -0.11424713989E+01  0.34750757959E+03  0.35870347604E+03  0.00000000000E+00 0.  1.
         12    1    3    3    0    0  0.15358432926E+02 -0.81539716380E+01  0.12952734302E+03  0.13068933126E+03  0.00000000000E+00 0. -1.
        -11    1    4    4    0    0  0.29142429097E+02  0.16359113611E+02  0.53485590943E+01  0.33845366835E+02  0.00000000000E+00 0.  1.
         11    1    4    4    0    0  0.16909409120E+02 -0.53703621534E+02  0.11290341996E+03  0.12616334381E+03  0.00000000000E+00 0. -1.
          1    1    1    2  501    0  0.27501823678E+02  0.46640950960E+02  0.48013118440E+02  0.72367037762E+02  0.00000000000E+00 0. -1.
<scales pt_clust_5="13000.00000" pt_clust_6="13000.00000" pt_clust_7="13000.00000" pt_clust_8="13000.00000" pt_clust_9="54.14544"></scales>
<clustering>
<clus scale="   54.145">  2  9  1 -1</clus>
<clus scale="   80.290">  5  6 -1 -1</clus>
<clus scale="   90.022">  7  8 -1 -1</clus>
<clus scale="  104.757">  1  5  2 -1</clus>
<clus scale="   54.145">  2  5  1 -1</clus>
</clustering>
</event>
<event>
 9    2  0.1654290E-004  0.1369795E+03  0.7546771E-02  0.1220505E+00
          2   -1    0    0  502    0 -0.00000000000E+00  0.00000000000E+00  0.78790632351E+03  0.78790632351E+03  0.00000000000E+00 0. -1.
         21   -1    0    0  501  502  0.00000000000E+00 -0.00000000000E+00 -0.84338088954E+02  0.84338088954E+02  0.00000000000E+00 0.  1.
         24    2    1    2    0    0 -0.77279274628E+02  0.65147522466E+02  0.65583522773E+03  0.66843731374E+03  0.80450671166E+02 0.  0.
         23    2    1    2    0    0  0.93136999988E+02 -0.34690711959E+02  0.78760081155E+02  0.15752790144E+03  0.93455567441E+02 0.  0.
        -13    1    3    3    0    0 -0.56929717524E+02  0.14573827374E+02  0.17680830167E+03  0.18631844976E+03  0.00000000000E+00 0.  1.
         14    1    3    3    0    0 -0.20349557104E+02  0.50573695092E+02  0.47902692606E+03  0.48211886398E+03  0.00000000000E+00 0. -1.
        -13    1    4    4    0    0 -0.50024480917E+00 -0.39265543649E+02  0.40085702821E+02  0.56115031262E+02  0.00000000000E+00 0. -1.
         13    1    4    4    0    0  0.93637244797E+02  0.45748316902E+01  0.38674378334E+02  0.10141287018E+03  0.00000000000E+00 0.  1.
          1    1    1    2  501    0 -0.15857725360E+02 -0.30456810507E+02 -0.31027074332E+02  0.46279197286E+02  0.00000000000E+00 0. -1.
<scales pt_clust_5="13000.00000" pt_clust_6="13000.00000" pt_clust_7="13000.00000" pt_clust_8="13000.00000" pt_clust_9="34.33780"></scales>
<clustering>
<clus scale="   34.338">  2  9  1 -1</clus>
<clus scale="   80.451">  5  6 -1 -1</clus>
<clus scale="   93.456">  7  8 -1 -1</clus>
<clus scale="  128.459">  1  5  2 -1</clus>
<clus scale="   34.338">  2  5  1 -1</clus>
</clustering>
</event>
<event>
 9    2  0.1654290E-004  0.9474909E+02  0.7546771E-02  0.1292048E+00
         21   -1    0    0  501  502  0.00000000000E+00  0.00000000000E+00  0.11861153127E+03  0.11861153127E+03  0.00000000000E+00 0.  1.
          2   -1    0    0  502    0 -0.00000000000E+00 -0.00000000000E+00 -0.48128168425E+03  0.48128168425E+03  0.00000000000E+00 0. -1.
         23    2    1    2    0    0  0.12936838535E+02 -0.21738419474E+02 -0.19981764944E+03  0.22190050623E+03  0.93127981650E+02 0.  0.
         24    2    1    2    0    0  0.48853020458E+02 -0.50447839373E+02  0.69105215534E+02  0.12732714308E+03  0.80654004521E+02 0.  0.
        -11    1    4    4    0    0  0.11122783047E+02 -0.64235320013E+02  0.31914354336E+02  0.72583873226E+02  0.00000000000E+00 0.  1.
         12    1    4    4    0    0  0.37730237411E+02  0.13787480640E+02  0.37190861198E+02  0.54743269853E+02  0.00000000000E+00 0. -1.
        -11    1    3    3    0    0  0.48234310711E+02 -0.69139093235E+01 -0.15735782393E+03  0.16472958333E+03  0.00000000000E+00 0.  1.
         11    1    3    3    0    0 -0.35297472176E+02 -0.14824510151E+02 -0.42459825508E+02  0.57170922902E+02  0.00000000000E+00 0. -1.
          1    1    1    2  501    0 -0.61789858993E+02  0.72186258847E+02 -0.23195771907E+03  0.25066556620E+03  0.00000000000E+00 0. -1.
<scales pt_clust_5="13000.00000" pt_clust_6="13000.00000" pt_clust_7="13000.00000" pt_clust_8="13000.00000" pt_clust_9="95.02027"></scales>
<clustering>
<clus scale="   80.654">  5  6 -1 -1</clus>
<clus scale="   93.128">  7  8 -1 -1</clus>
<clus scale="   95.020">  1  9  2 -1</clus>
<clus scale="   95.020">  1  5  2 -1</clus>
<clus scale="   94.749">  1  5  2 -1</clus>
</clustering>
</event>
<event>
 9    2  0.1654290E-004  0.1974149E+03  0.7546771E-02  0.1181861E+00
         21   -1    0    0  501  502  0.00000000000E+00  0.00000000000E+00  0.12728127703E+03  0.12728127703E+03  0.00000000000E+00 0. -1.
          2   -1    0    0  502    0 -0.00000000000E+00 -0.00000000000E+00 -0.59446082598E+03  0.59446082598E+03  0.00000000000E+00 0. -1.
         24    2    1    2    0    0  0.57783391021E+02  0.15665980345E+02 -0.26722045861E+03  0.28503578178E+03  0.79084007085E+02 0.  0.
         23    2    1    2    0    0  0.65618660578E+02 -0.15135178865E+03 -0.16351645697E+03  0.24971228271E+03  0.91681077090E+02 0.  0.
        -13    1    3    3    0    0  0.12504143292E+02  0.43894496508E+02 -0.11441694779E+03  0.12318408325E+03  0.00000000000E+00 0.  1.
         14    1    3    3    0    0  0.45279247729E+02 -0.28228516164E+02 -0.15280351082E+03  0.16185169853E+03  0.00000000000E+00 0. -1.
        -13    1    4    4    0    0  0.37996123822E+02 -0.87910294939E+02 -0.15186972728E+03  0.17954481181E+03  0.00000000000E+00 0. -1.
         13    1    4    4    0    0  0.27622536756E+02 -0.63441493711E+02 -0.11646729680E+02  0.70167470906E+02  0.00000000000E+00 0.  1.
          1    1    1    2  501    0 -0.12340205160E+03  0.13568580830E+03 -0.36442633381E+02  0.18699403852E+03  0.00000000000E+00 0. -1.
<scales pt_clust_5="13000.00000" pt_clust_6="13000.00000" pt_clust_7="13000.00000" pt_clust_8="13000.00000" pt_clust_9="174.83484"></scales>
<clustering>
<clus scale="   79.084">  5  6 -1 -1</clus>
<clus scale="   91.681">  7  8 -1 -1</clus>
<clus scale="   99.190">  2  5  1 -1</clus>
<clus scale="  174.835">  1  9  2 -1</clus>
<clus scale="  174.835">  1  5  2 -1</clus>
</clustering>
</event>
<event>
 9    2  0.1654290E-004  0.1326372E+03  0.7546771E-02  0.1227719E+00
         -3   -1    0    0    0  501 -0.00000000000E+00  0.00000000000E+00  0.66478168806E+02  0.66478168806E+02  0.00000000000E+00 0.  1.
         21   -1    0    0  501  502  0.00000000000E+00 -0.00000000000E+00 -0.88576307070E+03  0.88576307070E+03  0.00000000000E+00 0.  1.
         24    2    1    2    0    0  0.29024004652E+02  0.85668665446E+02 -0.33435995201E+02  0.12278792315E+03  0.76009178460E+02 0.  0.
         23    2    1    2    0    0  0.43370392963E+02 -0.14020246034E+03 -0.47605088619E+03  0.50666902755E+03  0.92473436029E+02 0.  0.
        -11    1    3    3    0    0  0.39118474644E+02  0.95263027095E+02 -0.23359257726E+02  0.10559807911E+03  0.00000000000E+00 0.  1.
         12    1    3    3    0    0 -0.10094469992E+02 -0.95943616498E+01 -0.10076737475E+02  0.17189844037E+02  0.00000000000E+00 0. -1.
        -13    1    4    4    0    0  0.65935304356E+02 -0.12530364153E+03 -0.34626175440E+03  0.37409312945E+03  0.00000000000E+00 0.  1.
         13    1    4    4    0    0 -0.22564911392E+02 -0.14898818811E+02 -0.12978913178E+03  0.13257589810E+03  0.00000000000E+00 0. -1.
         -4    1    1    2    0  502 -0.72394397615E+02  0.54533794894E+02 -0.30979802050E+03  0.32278428880E+03  0.00000000000E+00 0.  1.
<scales pt_clust_5="13000.00000" pt_clust_6="13000.00000" pt_clust_7="13000.00000" pt_clust_8="13000.00000" pt_clust_9="90.63600"></scales>
<clustering>
<clus scale="   76.009">  5  6 -1 -1</clus>
<clus scale="   90.636">  2  9  1 -1</clus>
<clus scale="   92.473">  7  8 -1 -1</clus>
<clus scale="  121.732">  1  5  2 -1</clus>
<clus scale="   90.636">  2  5  1 -1</clus>
</clustering>
</event>
<event>
 9    2  0.1654290E-004  0.9197659E+02  0.7546771E-02  0.1306818E+00
         -3   -1    0    0    0  501 -0.00000000000E+00  0.00000000000E+00  0.13271957352E+03  0.13271957352E+03  0.00000000000E+00 0.  1.
         21   -1    0    0  501  502  0.00000000000E+00 -0.00000000000E+00 -0.12474620670E+03  0.12474620670E+03  0.00000000000E+00 0.  1.
         23    2    1    2    0    0  0.17079599520E+02  0.80843939488E+01  0.11588295053E+02  0.93307923012E+02  0.90636691076E+02 0.  0.
         24    2    1    2    0    0  0.44223503275E+02  0.26616536127E+02  0.73737576703E+01  0.92862863153E+02  0.76843872974E+02 0.  0.
        -13    1    4    4    0    0  0.32248174157E+02 -0.21363453366E+02  0.17381934532E+02  0.42408413366E+02  0.00000000000E+00 0.  1.
         14    1    4    4    0    0  0.11975329118E+02  0.47979989493E+02 -0.10008176862E+02  0.50454449787E+02  0.00000000000E+00 0. -1.
        -13    1    3    3    0    0  0.11686202459E+02  0.34589899481E+02 -0.27545514649E+02  0.45736023563E+02  0.00000000000E+00 0.  1.
         13    1    3    3    0    0  0.53933970610E+01 -0.26505505532E+02  0.39133809703E+02  0.47571899449E+02  0.00000000000E+00 0. -1.
         -4    1    1    2    0  502 -0.61303102795E+02 -0.34700930076E+02 -0.10988685902E+02  0.71294994062E+02  0.00000000000E+00 0.  1.
<scales pt_clust_5="13000.00000" pt_clust_6="13000.00000" pt_clust_7="13000.00000" pt_clust_8="13000.00000" pt_clust_9="70.44306"></scales>
<clustering>
<clus scale="   70.443">  2  9  1 -1</clus>
<clus scale="   76.844">  5  6 -1 -1</clus>
<clus scale="   78.420">  2  5  1 -1</clus>
<clus scale="   90.637">  7  8 -1 -1</clus>
<clus scale="   70.443">  2  5  1 -1</clus>
</clustering>
</event>
<event>
 9    2  0.1654290E-004  0.1177714E+03  0.7546771E-02  0.1250053E+00
         21   -1    0    0  501  502  0.00000000000E+00  0.00000000000E+00  0.16839571716E+03  0.16839571716E+03  0.00000000000E+00 0.  1.
         -1   -1    0    0    0  501 -0.00000000000E+00 -0.00000000000E+00 -0.10785543799E+03  0.10785543799E+03  0.00000000000E+00 0.  1.
         23    2    1    2    0    0 -0.71766382001E+02  0.34482200869E+02 -0.16535584474E+02  0.12047286375E+03  0.88886723330E+02 0.  0.
         24    2    1    2    0    0  0.54738062551E+02 -0.52245772121E+02  0.53382848461E+02  0.12161885500E+03  0.78838703602E+02 0.  0.
        -11    1    4    4    0    0  0.23025044528E+02 -0.58794083570E+02  0.49203913384E+01  0.63333302372E+02  0.00000000000E+00 0.  1.
         12    1    4    4    0    0  0.31713018024E+02  0.65483114497E+01  0.48462457122E+02  0.58285552630E+02  0.00000000000E+00 0. -1.
        -13    1    3    3    0    0 -0.34632094653E+02  0.58903615635E+02 -0.29126181302E+02  0.74278882276E+02  0.00000000000E+00 0.  1.
         13    1    3    3    0    0 -0.37134287348E+02 -0.24421414766E+02  0.12590596829E+02  0.46193981475E+02  0.00000000000E+00 0. -1.
         -2    1    1    2    0  502  0.17028319449E+02  0.17763571251E+02  0.23693015182E+02  0.34159436402E+02  0.00000000000E+00 0.  1.
<scales pt_clust_5="13000.00000" pt_clust_6="13000.00000" pt_clust_7="13000.00000" pt_clust_8="13000.00000" pt_clust_9="24.60707"></scales>
<clustering>
<clus scale="   24.607">  1  9  2 -1</clus>
<clus scale="   78.839">  5  6 -1 -1</clus>
<clus scale="   88.887">  7  8 -1 -1</clus>
<clus scale="  110.385">  1  5  2 -1</clus>
<clus scale="   24.607">  1  5  2 -1</clus>
</clustering>
</event>
<event>
 9    2  0.1654290E-004  0.1649306E+03  0.7546771E-02  0.1185026E+00
         -1   -1    0    0    0  501 -0.00000000000E+00  0.00000000000E+00  0.33449401826E+03  0.33449401826E+03  0.00000000000E+00 0.  1.
         21   -1    0    0  501  502  0.00000000000E+00 -0.00000000000E+00 -0.12019832020E+03  0.12019832020E+03  0.00000000000E+00 0.  1.
         23    2    1    2    0    0  0.11297403499E+03 -0.60372918900E+02  0.79726192495E+02  0.17688745114E+03  0.92330291254E+02 0.  0.
         24    2    1    2    0    0 -0.10880279510E+03  0.10542552671E+03  0.44677688973E+02  0.17716853502E+03  0.80249635547E+02 0.  0.
        -11    1    4    4    0    0 -0.58911993206E+02  0.71834975854E+02 -0.13035328597E+02  0.93812613710E+02  0.00000000000E+00 0.  1.
         12    1    4    4    0    0 -0.49890801899E+02  0.33590550859E+02  0.57713017570E+02  0.83355921315E+02  0.00000000000E+00 0. -1.
        -11    1    3    3    0    0  0.44856361576E+02  0.17649177806E+02  0.35824232928E+01  0.48336532848E+02  0.00000000000E+00 0. -1.
         11    1    3    3    0    0  0.68117673409E+02 -0.78022096706E+02  0.76143769202E+02  0.12855091829E+03  0.00000000000E+00 0.  1.
         -2    1    1    2    0  502 -0.41712398812E+01 -0.45052607814E+02  0.89891816594E+02  0.10063635230E+03  0.00000000000E+00 0.  1.
<scales pt_clust_5="13000.00000" pt_clust_6="13000.00000" pt_clust_7="13000.00000" pt_clust_8="13000.00000" pt_clust_9="45.24532"></scales>
<clustering>
<clus scale="   45.245">  2  9  1 -1</clus>
<clus scale="   80.250">  5  6 -1 -1</clus>
<clus scale="   92.330">  7  8 -1 -1</clus>
<clus scale="  158.484">  2  5  1 -1</clus>
<clus scale="   45.245">  2  5  1 -1</clus>
</clustering>
</event>
<event>
 9    2  0.1654290E-004  0.1650545E+03  0.7546771E-02  0.1186082E+00
          2   -1    0    0  502    0 -0.00000000000E+00  0.00000000000E+00  0.39648144266E+03  0.39648144266E+03  0.00000000000E+00 0. -1.
         21   -1    0    0  501  502  0.00000000000E+00 -0.00000000000E+00 -0.90677834713E+02  0.90677834713E+02  0.00000000000E+00 0. -1.
         23    2    1    2    0    0  0.10525290498E+03  0.45258846811E+02  0.11727025372E+03  0.18771075826E+03  0.91413779805E+02 0.  0.
         24    2    1    2    0    0 -0.14952761554E+03 -0.72392802370E+02  0.14048823266E+03  0.22870365890E+03  0.70492513343E+02 0.  0.
        -11    1    4    4    0    0 -0.50482516462E+01 -0.19828388611E+02  0.32840747447E-01  0.20460960830E+02  0.00000000000E+00 0.  1.
         12    1    4    4    0    0 -0.14447936389E+03 -0.52564413760E+02  0.14045539191E+03  0.20824269807E+03  0.00000000000E+00 0. -1.
        -11    1    3    3    0    0 -0.54457227271E+01  0.28646212860E+02  0.47724965742E+02  0.55927933650E+02  0.00000000000E+00 0.  1.
         11    1    3    3    0    0  0.11069862770E+03  0.16612633951E+02  0.69545287977E+02  0.13178282461E+03  0.00000000000E+00 0. -1.
          1    1    1    2  501    0  0.44274710561E+02  0.27133955559E+02  0.48045121562E+02  0.70744860205E+02  0.00000000000E+00 0. -1.
<scales pt_clust_5="13000.00000" pt_clust_6="13000.00000" pt_clust_7="13000.00000" pt_clust_8="13000.00000" pt_clust_9="51.92788"></scales>
<clustering>
<clus scale="   51.928">  2  9  1 -1</clus>
<clus scale="   70.493">  5  6 -1 -1</clus>
<clus scale="   91.414">  7  8 -1 -1</clus>
<clus scale="  154.453">  2  5  1 -1</clus>
<clus scale="   51.928">  2  5  1 -1</clus>
</clustering>
</event>
<event>
 9    2  0.1654290E-004  0.3871474E+03  0.7546771E-02  0.1069666E+00
          2   -1    0    0  502    0 -0.00000000000E+00  0.00000000000E+00  0.16053326055E+04  0.16053326055E+04  0.00000000000E+00 0. -1.
         21   -1    0    0  501  502  0.00000000000E+00 -0.00000000000E+00 -0.16945449388E+03  0.16945449388E+03  0.00000000000E+00 0. -1.
         24    2    1    2    0    0  0.13527988047E+03 -0.14290635344E+03  0.48141157686E+03  0.52634211388E+03  0.80969392932E+02 0.  0.
         23    2    1    2    0    0  0.20824410129E+02  0.44863107885E+03  0.59643530073E+03  0.75243841113E+03  0.93407674375E+02 0.  0.
        -13    1    3    3    0    0  0.86528224806E+02 -0.33897110059E+02  0.22765889282E+03  0.24589574872E+03  0.00000000000E+00 0.  1.
         14    1    3    3    0    0  0.48751655668E+02 -0.10900924338E+03  0.25375268404E+03  0.28044636516E+03  0.00000000000E+00 0. -1.
        -11    1    4    4    0    0  0.12641529732E+02  0.39547733252E+03  0.46583901248E+03  0.61120218779E+03  0.00000000000E+00 0. -1.
         11    1    4    4    0    0  0.81828803966E+01  0.53153746322E+02  0.13059628825E+03  0.14123622334E+03  0.00000000000E+00 0.  1.
          1    1    1    2  501    0 -0.15610429060E+03 -0.30572472541E+03  0.35803123405E+03  0.49600657438E+03  0.00000000000E+00 0. -1.
<scales pt_clust_5="13000.00000" pt_clust_6="13000.00000" pt_clust_7="13000.00000" pt_clust_8="13000.00000" pt_clust_9="375.71012"></scales>
<clustering>
<clus scale="   80.969">  5  6 -1 -1</clus>
<clus scale="   93.408">  7  8 -1 -1</clus>
<clus scale="  212.788">  1  5  2 -1</clus>
<clus scale="  375.710">  2  9  1 -1</clus>
<clus scale="  375.710">  2  5  1 -1</clus>
</clustering>
</event>
<event>
 9    2  0.1654290E-004  0.2864115E+03  0.7546771E-02  0.1092837E+00
         21   -1    0    0  501  502  0.00000000000E+00  0.00000000000E+00  0.39892994652E+03  0.39892994652E+03  0.00000000000E+00 0.  1.
         -3   -1    0    0    0  501 -0.00000000000E+00 -0.00000000000E+00 -0.32039372336E+03  0.32039372336E+03  0.00000000000E+00 0.  1.
         24    2    1    2    0    0 -0.19872393469E+03 -0.17432432732E+03 -0.57136359235E+02  0.28133810853E+03  0.77500931925E+02 0.  0.
         23    2    1    2    0    0  0.21062640814E+03  0.19675510698E+03  0.20404353467E+03  0.36505137276E+03  0.92480726588E+02 0.  0.
        -13    1    3    3    0    0 -0.14010876102E+03 -0.13016009948E+03 -0.49822066181E+01  0.19130326394E+03  0.00000000000E+00 0.  1.
         14    1    3    3    0    0 -0.58615173673E+02 -0.44164227845E+02 -0.52154152617E+02  0.90034844594E+02  0.00000000000E+00 0. -1.
        -13    1    4    4    0    0  0.47467295010E+02  0.59276265999E+02  0.98954194359E+01  0.76581584812E+02  0.00000000000E+00 0. -1.
         13    1    4    4    0    0  0.16315911312E+03  0.13747884098E+03  0.19414811523E+03  0.28846978795E+03  0.00000000000E+00 0.  1.
         -4    1    1    2    0  502 -0.11902473444E+02 -0.22430779658E+02 -0.68370952276E+02  0.72934188590E+02  0.00000000000E+00 0.  1.
<scales pt_clust_5="13000.00000" pt_clust_6="13000.00000" pt_clust_7="13000.00000" pt_clust_8="13000.00000" pt_clust_9="25.39310"></scales>
<clustering>
<clus scale="   25.393">  1  9  2 -1</clus>
<clus scale="   77.501">  5  6 -1 -1</clus>
<clus scale="   92.481">  7  8 -1 -1</clus>
<clus scale="  281.931">  2  5  1 -1</clus>
<clus scale="   25.393">  1  5  2 -1</clus>
</clustering>
</event>
<event>
 9    2  0.1654290E-004  0.1305550E+03  0.7546771E-02  0.1229411E+00
         21   -1    0    0  501  502  0.00000000000E+00  0.00000000000E+00  0.11709509014E+03  0.11709509014E+03  0.00000000000E+00 0.  1.
          2   -1    0    0  502    0 -0.00000000000E+00 -0.00000000000E+00 -0.24536767457E+03  0.24536767457E+03  0.00000000000E+00 0. -1.
         23    2    1    2    0    0 -0.19422724773E+02  0.64533872586E+02 -0.91404966126E+02  0.15016594010E+03  0.98250082882E+02 0.  0.
         24    2    1    2    0    0  0.32651869681E+02 -0.11333168528E+03 -0.56848861263E+02  0.15793243489E+03  0.88321262907E+02 0.  0.
        -13    1    4    4    0    0  0.44082663303E+02 -0.12490400573E+02 -0.15964658275E+02  0.48519703464E+02  0.00000000000E+00 0.  1.
         14    1    4    4    0    0 -0.11430793621E+02 -0.10084128471E+03 -0.40884202988E+02  0.10941273143E+03  0.00000000000E+00 0. -1.
        -11    1    3    3    0    0 -0.29583910600E+02 -0.18729046043E+02 -0.22582216238E+02  0.41664630351E+02  0.00000000000E+00 0.  1.
         11    1    3    3    0    0  0.10161185827E+02  0.83262918629E+02 -0.68822749888E+02  0.10850130975E+03  0.00000000000E+00 0. -1.
          1    1    1    2  501    0 -0.13229144908E+02  0.48797812698E+02  0.19981242957E+02  0.54364389716E+02  0.00000000000E+00 0. -1.
<scales pt_clust_5="13000.00000" pt_clust_6="13000.00000" pt_clust_7="13000.00000" pt_clust_8="13000.00000" pt_clust_9="50.55924"></scales>
<clustering>
<clus scale="   50.559">  1  9  2 -1</clus>
<clus scale="   88.321">  5  6 -1 -1</clus>
<clus scale="   98.250">  7  8 -1 -1</clus>
<clus scale="  123.257">  1  5  2 -1</clus>
<clus scale="   50.559">  1  5  2 -1</clus>
</clustering>
</event>
<event>
 9    2  0.1654290E-004  0.1891282E+03  0.7546771E-02  0.1160397E+00
         21   -1    0    0  501  502  0.00000000000E+00  0.00000000000E+00  0.91884855301E+02  0.91884855301E+02  0.00000000000E+00 0. -1.
          2   -1    0    0  502    0 -0.00000000000E+00 -0.00000000000E+00 -0.51227223230E+03  0.51227223230E+03  0.00000000000E+00 0. -1.
         24    2    1    2    0    0 -0.17916347171E+02 -0.16016008736E+03 -0.17921790246E+03  0.25429800630E+03  0.81093590173E+02 0.  0.
         23    2    1    2    0    0 -0.36468231169E+02  0.17101015174E+03 -0.17908345038E+03  0.26661197532E+03  0.91851289062E+02 0.  0.
        -13    1    3    3    0    0  0.20464298544E+02 -0.77244579241E+01 -0.33147282787E+02  0.39713941145E+02  0.00000000000E+00 0.  1.
         14    1    3    3    0    0 -0.38380645715E+02 -0.15243562944E+03 -0.14607061967E+03  0.21458406515E+03  0.00000000000E+00 0. -1.
        -11    1    4    4    0    0  0.24591000298E+02  0.65804126458E+02 -0.36414124838E+02  0.79125778620E+02  0.00000000000E+00 0.  1.
         11    1    4    4    0    0 -0.61059231467E+02  0.10520602528E+03 -0.14266932554E+03  0.18748619670E+03  0.00000000000E+00 0. -1.
          1    1    1    2  501    0  0.54384578340E+02 -0.10850064380E+02 -0.62086024165E+02  0.83247105985E+02  0.00000000000E+00 0. -1.
<scales pt_clust_5="13000.00000" pt_clust_6="13000.00000" pt_clust_7="13000.00000" pt_clust_8="13000.00000" pt_clust_9="55.45637"></scales>
<clustering>
<clus scale="   55.456">  1  9  2 -1</clus>
<clus scale="   81.094">  5  6 -1 -1</clus>
<clus scale="   91.851">  7  8 -1 -1</clus>
<clus scale="  184.144">  2  5  1 -1</clus>
<clus scale="   55.456">  1  5  2 -1</clus>
</clustering>
</event>
<event>
 9    2  0.1654290E-004  0.3386123E+03  0.7546771E-02  0.1067660E+00
         21   -1    0    0  501  502  0.00000000000E+00  0.00000000000E+00  0.15192380064E+03  0.15192380064E+03  0.00000000000E+00 0. -1.
          2   -1    0    0  502    0 -0.00000000000E+00 -0.00000000000E+00 -0.84546765131E+03  0.84546765131E+03  0.00000000000E+00 0. -1.
         23    2    1    2    0    0  0.42653830384E+02  0.31165707194E+03 -0.32278193776E+03  0.45920901811E+03  0.87950345289E+02 0.  0.
         24    2    1    2    0    0 -0.73417603691E+02 -0.33372520442E+03 -0.31769571888E+03  0.47299475733E+03  0.77658316217E+02 0.  0.
        -13    1    4    4    0    0 -0.52956090415E+02 -0.11602793722E+03 -0.82705000624E+02  0.15200969330E+03  0.00000000000E+00 0.  1.
         14    1    4    4    0    0 -0.20461513276E+02 -0.21769726719E+03 -0.23499071825E+03  0.32098506404E+03  0.00000000000E+00 0. -1.
        -11    1    3    3    0    0  0.23303204187E+02  0.13624458676E+02 -0.37384661944E+02  0.46111583667E+02  0.00000000000E+00 0.  1.
         11    1    3    3    0    0  0.19350626197E+02  0.29803261327E+03 -0.28539727581E+03  0.41309743445E+03  0.00000000000E+00 0. -1.
          1    1    1    2  501    0  0.30763773306E+02  0.22068132474E+02 -0.53066194037E+02  0.65187676508E+02  0.00000000000E+00 0. -1.
<scales pt_clust_5="13000.00000" pt_clust_6="13000.00000" pt_clust_7="13000.00000" pt_clust_8="13000.00000" pt_clust_9="37.86045"></scales>
<clustering>
<clus scale="   37.860">  1  9  2 -1</clus>
<clus scale="   77.658">  5  6 -1 -1</clus>
<clus scale="   87.950">  7  8 -1 -1</clus>
<clus scale="  336.086">  1  5  2 -1</clus>
<clus scale="   37.860">  1  5  2 -1</clus>
</clustering>
</event>
<event>
 9    2  0.1654290E-004  0.1765725E+03  0.7546771E-02  0.1184754E+00
         21   -1    0    0  501  502  0.00000000000E+00  0.00000000000E+00  0.11838333089E+03  0.11838333089E+03  0.00000000000E+00 0. -1.
          2   -1    0    0  502    0 -0.00000000000E+00 -0.00000000000E+00 -0.97818858933E+03  0.97818858933E+03  0.00000000000E+00 0. -1.
         24    2    1    2    0    0  0.77143006259E+02 -0.65640514482E+02 -0.50123150606E+03  0.51780178059E+03  0.81399881802E+02 0.  0.
         23    2    1    2    0    0  0.48143423670E+02  0.15224810268E+03 -0.38203841843E+03  0.42466577755E+03  0.94288893601E+02 0.  0.
        -13    1    3    3    0    0  0.21748131993E+02 -0.58360949621E+02 -0.15422174125E+03  0.16632296041E+03  0.00000000000E+00 0.  1.
         14    1    3    3    0    0  0.55394874266E+02 -0.72795648610E+01 -0.34700976482E+03  0.35147882018E+03  0.00000000000E+00 0. -1.
        -13    1    4    4    0    0  0.28707954996E+02 -0.16192584854E+00 -0.35957101428E+02  0.46011803302E+02  0.00000000000E+00 0.  1.
         13    1    4    4    0    0  0.19435468674E+02  0.15241002852E+03 -0.34608131700E+03  0.37865397425E+03  0.00000000000E+00 0. -1.
          1    1    1    2  501    0 -0.12528642993E+03 -0.86607588194E+02  0.23464666048E+02  0.15410436207E+03  0.00000000000E+00 0. -1.
<scales pt_clust_5="13000.00000" pt_clust_6="13000.00000" pt_clust_7="13000.00000" pt_clust_8="13000.00000" pt_clust_9="149.28982"></scales>
<clustering>
<clus scale="   81.400">  5  6 -1 -1</clus>
<clus scale="   94.289">  7  8 -1 -1</clus>
<clus scale="  129.945">  2  5  1 -1</clus>
<clus scale="  149.290">  1  9  2 -1</clus>
<clus scale="  149.290">  1  5  2 -1</clus>
</clustering>
</event>
<event>
 9    2  0.1654290E-004  0.1360782E+03  0.7546771E-02  0.1220219E+00
         21   -1    0    0  501  502  0.00000000000E+00  0.00000000000E+00  0.19828232895E+03  0.19828232895E+03  0.00000000000E+00 0.  1.
         -3   -1    0    0    0  501 -0.00000000000E+00 -0.00000000000E+00 -0.23323906813E+03  0.23323906813E+03  0.00000000000E+00 0.  1.
         23    2    1    2    0    0 -0.42607700923E+02 -0.93416124566E+02 -0.12762098654E+03  0.18755467907E+03  0.91365490900E+02 0.  0.
         24    2    1    2    0    0  0.10359358792E+03  0.50153407709E+02  0.29364238043E+02  0.14599819113E+03  0.84889443238E+02 0.  0.
        -13    1    4    4    0    0  0.43628248018E+02  0.31455707869E+02  0.56112695739E+02  0.77727216635E+02  0.00000000000E+00 0.  1.
         14    1    4    4    0    0  0.59965339903E+02  0.18697699841E+02 -0.26748457696E+02  0.68270974492E+02  0.00000000000E+00 0. -1.
        -13    1    3    3    0    0 -0.62409383827E+02 -0.28481093136E+02 -0.75154499366E+02  0.10175609383E+03  0.00000000000E+00 0. -1.
         13    1    3    3    0    0  0.19801682904E+02 -0.64935031431E+02 -0.52466487173E+02  0.85798585239E+02  0.00000000000E+00 0.  1.
         -4    1    1    2    0  502 -0.60985886998E+02  0.43262716857E+02  0.63300009309E+02  0.97968526891E+02  0.00000000000E+00 0.  1.
<scales pt_clust_5="13000.00000" pt_clust_6="13000.00000" pt_clust_7="13000.00000" pt_clust_8="13000.00000" pt_clust_9="74.77260"></scales>
<clustering>
<clus scale="   74.773">  1  9  2 -1</clus>
<clus scale="   84.889">  5  6 -1 -1</clus>
<clus scale="   91.365">  7  8 -1 -1</clus>
<clus scale="  131.818">  1  5  2 -1</clus>
<clus scale="   74.773">  1  5  2 -1</clus>
</clustering>
</event>
<event>
 9    2  0.1654290E-004  0.1503683E+03  0.7546771E-02  0.1214888E+00
          4   -1    0    0  502    0 -0.00000000000E+00  0.00000000000E+00  0.19388804220E+03  0.19388804220E+03  0.00000000000E+00 0. -1.
         21   -1    0    0  501  502  0.00000000000E+00 -0.00000000000E+00 -0.22805778138E+03  0.22805778138E+03  0.00000000000E+00 0. -1.
         23    2    1    2    0    0 -0.48294776629E+02  0.33472461180E+02  0.12853427458E+02  0.11007033003E+03  0.92181754419E+02 0.  0.
         24    2    1    2    0    0  0.67880140833E+02  0.99537810282E+02  0.42900601360E+02  0.15013000565E+03  0.78632485675E+02 0.  0.
        -11    1    4    4    0    0  0.58874594008E+02  0.18238786036E+02  0.12653917458E+02  0.62920527356E+02  0.00000000000E+00 0.  1.
         12    1    4    4    0    0  0.90055468250E+01  0.81299024245E+02  0.30246683902E+02  0.87209478292E+02  0.00000000000E+00 0. -1.
        -11    1    3    3    0    0 -0.39299396192E+02 -0.73924242813E+01 -0.30140908618E+02  0.50075591360E+02  0.00000000000E+00 0. -1.
         11    1    3    3    0    0 -0.89953804375E+01  0.40864885462E+02  0.42994336076E+02  0.59994738666E+02  0.00000000000E+00 0.  1.
          3    1    1    2  501    0 -0.19585364204E+02 -0.13301027146E+03 -0.89923768002E+02  0.16174548790E+03  0.00000000000E+00 0. -1.
<scales pt_clust_5="13000.00000" pt_clust_6="13000.00000" pt_clust_7="13000.00000" pt_clust_8="13000.00000" pt_clust_9="128.17007"></scales>
<clustering>
<clus scale="   78.632">  5  6 -1 -1</clus>
<clus scale="   92.182">  7  8 -1 -1</clus>
<clus scale="  109.317">  1  7  2 -1</clus>
<clus scale="  128.170">  2  9  1 -1</clus>
<clus scale="  128.170">  2  5  1 -1</clus>
</clustering>
</event>
<event>
 9    2  0.1654290E-004  0.1894229E+03  0.7546771E-02  0.1193453E+00
          2   -1    0    0  502    0 -0.00000000000E+00  0.00000000000E+00  0.42935259474E+03  0.42935259474E+03  0.00000000000E+00 0. -1.
         21   -1    0    0  501  502  0.00000000000E+00 -0.00000000000E+00 -0.12282634654E+03  0.12282634654E+03  0.00000000000E+00 0.  1.
         24    2    1    2    0    0 -0.28898877008E+02  0.35761446442E+01  0.84663798856E+01  0.87234354219E+02  0.81793759327E+02 0.  0.
         23    2    1    2    0    0  0.17095842410E+03  0.56520259966E+02  0.17174378431E+03  0.26557496590E+03  0.92805239637E+02 0.  0.
        -13    1    3    3    0    0 -0.30928158958E+02 -0.31454399320E+02 -0.13137891401E+02  0.46027540056E+02  0.00000000000E+00 0.  1.
         14    1    3    3    0    0  0.20292819501E+01  0.35030543964E+02  0.21604271286E+02  0.41206814163E+02  0.00000000000E+00 0. -1.
        -11    1    4    4    0    0  0.11009251179E+03  0.44157704038E+02  0.16484179992E+03  0.20308393087E+03  0.00000000000E+00 0.  1.
         11    1    4    4    0    0  0.60865912305E+02  0.12362555928E+02  0.69019843969E+01  0.62491035024E+02  0.00000000000E+00 0. -1.
          1    1    1    2  501    0 -0.14205954709E+03 -0.60096404610E+02  0.12631608400E+03  0.19936962117E+03  0.00000000000E+00 0. -1.
<scales pt_clust_5="13000.00000" pt_clust_6="13000.00000" pt_clust_7="13000.00000" pt_clust_8="13000.00000" pt_clust_9="165.13095"></scales>
<clustering>
<clus scale="   81.794">  5  6 -1 -1</clus>
<clus scale="   86.823">  1  5  2 -1</clus>
<clus scale="   92.805">  7  8 -1 -1</clus>
<clus scale="  165.131">  2  9  1 -1</clus>
<clus scale="  165.131">  2  5  1 -1</clus>
</clustering>
</event>
<event>
 9    2  0.1654290E-004  0.9608962E+02  0.7546771E-02  0.1294032E+00
          2   -1    0    0  502    0 -0.00000000000E+00  0.00000000000E+00  0.44119025322E+03  0.44119025322E+03  0.00000000000E+00 0. -1.
         21   -1    0    0  501  502  0.00000000000E+00 -0.00000000000E+00 -0.56107277078E+02  0.56107277078E+02  0.00000000000E+00 0.  1.
         24    2    1    2    0    0 -0.13133457657E+02  0.24269204473E+02  0.36059908264E+03  0.37079371689E+03  0.81821758013E+02 0.  0.
         23    2    1    2    0    0  0.14709270519E+02 -0.45252847940E+02  0.21479431893E+02  0.10524767856E+03  0.91386678251E+02 0.  0.
        -11    1    3    3    0    0 -0.19409540146E+02 -0.27795593313E+02  0.13939269471E+03  0.14345608595E+03  0.00000000000E+00 0.  1.
         12    1    3    3    0    0  0.62760824885E+01  0.52064797786E+02  0.22120638793E+03  0.22733763094E+03  0.00000000000E+00 0. -1.
        -11    1    4    4    0    0  0.33960967556E+02 -0.52657082401E+02 -0.14004132216E+02  0.64204605470E+02  0.00000000000E+00 0.  1.
         11    1    4    4    0    0 -0.19251697037E+02  0.74042344618E+01  0.35483564108E+02  0.41043073089E+02  0.00000000000E+00 0. -1.
          1    1    1    2  501    0 -0.15758128614E+01  0.20983643466E+02  0.30044616057E+01  0.21256134852E+02  0.00000000000E+00 0. -1.
<scales pt_clust_5="13000.00000" pt_clust_6="13000.00000" pt_clust_7="13000.00000" pt_clust_8="13000.00000" pt_clust_9="21.04273"></scales>
<clustering>
<clus scale="   21.043">  2  9  1 -1</clus>
<clus scale="   81.822">  5  6 -1 -1</clus>
<clus scale="   87.043">  1  5  2 -1</clus>
<clus scale="   91.387">  7  8 -1 -1</clus>
<clus scale="   21.043">  2  5  1 -1</clus>
</clustering>
</event>
<event>
 9    2  0.1654290E-004  0.9384457E+02  0.7546771E-02  0.1301057E+00
         -3   -1    0    0    0  501 -0.00000000000E+00  0.00000000000E+00  0.19583746040E+03  0.19583746040E+03  0.00000000000E+00 0.  1.
         21   -1    0    0  501  502  0.00000000000E+00 -0.00000000000E+00 -0.95310411042E+02  0.95310411042E+02  0.00000000000E+00 0.  1.
         24    2    1    2    0    0 -0.12743399079E+02  0.16029475084E+02  0.11797274860E+03  0.14428847557E+03  0.80512461645E+02 0.  0.
         23    2    1    2    0    0  0.10847612007E+02  0.23581614017E+02 -0.36608548443E+02  0.10281569963E+03  0.92504697534E+02 0.  0.
        -11    1    3    3    0    0 -0.44018425157E+01  0.29652821289E+02  0.12372894840E+03  0.12730875343E+03  0.00000000000E+00 0.  1.
         12    1    3    3    0    0 -0.83415565634E+01 -0.13623346205E+02 -0.57561998057E+01  0.16979722139E+02  0.00000000000E+00 0. -1.
        -11    1    4    4    0    0 -0.21571136726E+02  0.11957637573E+02 -0.57478098460E+02  0.62546229612E+02  0.00000000000E+00 0.  1.
         11    1    4    4    0    0  0.32418748733E+02  0.11623976444E+02  0.20869550018E+02  0.40269470020E+02  0.00000000000E+00 0. -1.
         -4    1    1    2    0  502  0.18957870723E+01 -0.39611089101E+02  0.19162849200E+02  0.44043696233E+02  0.00000000000E+00 0.  1.
<scales pt_clust_5="13000.00000" pt_clust_6="13000.00000" pt_clust_7="13000.00000" pt_clust_8="13000.00000" pt_clust_9="39.65645"></scales>
<clustering>
<clus scale="   39.656">  2  9  1 -1</clus>
<clus scale="   80.512">  5  6 -1 -1</clus>
<clus scale="   82.048">  1  5  2 -1</clus>
<clus scale="   92.505">  7  8 -1 -1</clus>
<clus scale="   39.656">  2  5  1 -1</clus>
</clustering>
</event>
<event>
 9    2  0.1654290E-004  0.1800288E+03  0.7546771E-02  0.1169074E+00
          2   -1    0    0  502    0 -0.00000000000E+00  0.00000000000E+00  0.15314453607E+04  0.15314453607E+04  0.00000000000E+00 0. -1.
         21   -1    0    0  501  502  0.00000000000E+00 -0.00000000000E+00 -0.48580531481E+02  0.48580531481E+02  0.00000000000E+00 0. -1.
         23    2    1    2    0    0 -0.70097317487E+02 -0.15070011043E+03  0.52869256357E+03  0.56158945792E+03  0.90789510807E+02 0.  0.
         24    2    1    2    0    0 -0.34505620574E+02  0.15480729406E+03  0.25061832441E+03  0.30713706560E+03  0.79797847056E+02 0.  0.
        -11    1    4    4    0    0 -0.22829777885E+01  0.10064642296E+03  0.91687704049E+02  0.13616735848E+03  0.00000000000E+00 0.  1.
         12    1    4    4    0    0 -0.32222642786E+02  0.54160871100E+02  0.15893062036E+03  0.17096970712E+03  0.00000000000E+00 0. -1.
        -11    1    3    3    0    0 -0.29019044393E+02 -0.14456655826E+03  0.39672130713E+03  0.42323680161E+03  0.00000000000E+00 0. -1.
         11    1    3    3    0    0 -0.41078273094E+02 -0.61335521682E+01  0.13197125644E+03  0.13835265632E+03  0.00000000000E+00 0.  1.
          1    1    1    2  501    0  0.10460293806E+03 -0.41071836294E+01  0.70355394128E+03  0.71129936869E+03  0.00000000000E+00 0. -1.
<scales pt_clust_5="13000.00000" pt_clust_6="13000.00000" pt_clust_7="13000.00000" pt_clust_8="13000.00000" pt_clust_9="104.68359"></scales>
<clustering>
<clus scale="   79.798">  5  6 -1 -1</clus>
<clus scale="   90.790">  7  8 -1 -1</clus>
<clus scale="  104.684">  2  9  1 -1</clus>
<clus scale="  174.744">  2  5  1 -1</clus>
<clus scale="  104.684">  2  5  1 -1</clus>
</clustering>
</event>
<event>
 9    2  0.1654290E-004  0.8390550E+02  0.7546771E-02  0.1321770E+00
         -1   -1    0    0    0  501 -0.00000000000E+00  0.00000000000E+00  0.39165825636E+03  0.39165825636E+03  0.00000000000E+00 0.  1.
         21   -1    0    0  501  502  0.00000000000E+00 -0.00000000000E+00 -0.12315217076E+03  0.12315217076E+03  0.00000000000E+00 0.  1.
         24    2    1    2    0    0 -0.94876083490E+01 -0.24515701576E+01  0.29210562300E+03  0.30256886674E+03  0.78270040414E+02 0.  0.
         23    2    1    2    0    0  0.91962478485E+01 -0.23893834259E+02  0.72011842278E+02  0.11306645690E+03  0.83323657854E+02 0.  0.
        -11    1    3    3    0    0  0.15889864821E+02 -0.32888447517E+02  0.17990875562E+03  0.18357913316E+03  0.00000000000E+00 0.  1.
         12    1    3    3    0    0 -0.25377473170E+02  0.30436877360E+02  0.11219686738E+03  0.11898973358E+03  0.00000000000E+00 0. -1.
        -11    1    4    4    0    0  0.43400455602E+02 -0.23656571806E+02  0.57729062803E+02  0.75999194918E+02  0.00000000000E+00 0.  1.
         11    1    4    4    0    0 -0.34204207753E+02 -0.23726245319E+00  0.14282779475E+02  0.37067261984E+02  0.00000000000E+00 0. -1.
         -2    1    1    2    0  502  0.29136050049E+00  0.26345404417E+02 -0.95611379682E+02  0.99175103476E+02  0.00000000000E+00 0.  1.
<scales pt_clust_5="13000.00000" pt_clust_6="13000.00000" pt_clust_7="13000.00000" pt_clust_8="13000.00000" pt_clust_9="26.34702"></scales>
<clustering>
<clus scale="   26.347">  2  9  1 -1</clus>
<clus scale="   78.270">  5  6 -1 -1</clus>
<clus scale="   78.889">  1  5  2 -1</clus>
<clus scale="   83.324">  7  8 -1 -1</clus>
<clus scale="   26.347">  2  5  1 -1</clus>
</clustering>
</event>
<event>
 9    2  0.1654290E-004  0.9956266E+02  0.7546771E-02  0.1287011E+00
         21   -1    0    0  501  502  0.00000000000E+00  0.00000000000E+00  0.59827025582E+03  0.59827025582E+03  0.00000000000E+00 0. -1.
          2   -1    0    0  502    0 -0.00000000000E+00 -0.00000000000E+00 -0.43644578428E+02  0.43644578428E+02  0.00000000000E+00 0. -1.
         23    2    1    2    0    0 -0.26806188047E+02  0.25674786913E+02  0.58376366525E+02  0.11482438538E+03  0.91646456056E+02 0.  0.
         24    2    1    2    0    0  0.59396055482E+02 -0.42029481143E+01  0.46888738320E+03  0.47942689459E+03  0.80306991953E+02 0.  0.
        -11    1    4    4    0    0 -0.36883887461E+01 -0.31134238085E+02  0.15252486009E+03  0.15571376927E+03  0.00000000000E+00 0.  1.
         12    1    4    4    0    0  0.63084444228E+02  0.26931289971E+02  0.31636252310E+03  0.32371312532E+03  0.00000000000E+00 0. -1.
        -13    1    3    3    0    0 -0.26536726612E+02 -0.27408418780E+02  0.47001240463E+02  0.60535410169E+02  0.00000000000E+00 0.  1.
         13    1    3    3    0    0 -0.26946143487E+00  0.53083205693E+02  0.11375126062E+02  0.54288975207E+02  0.00000000000E+00 0. -1.
          1    1    1    2  501    0 -0.32589867435E+02 -0.21471838799E+02  0.27361927670E+02  0.47663554281E+02  0.00000000000E+00 0. -1.
<scales pt_clust_5="13000.00000" pt_clust_6="13000.00000" pt_clust_7="13000.00000" pt_clust_8="13000.00000" pt_clust_9="39.02744"></scales>
<clustering>
<clus scale="   39.027">  1  9  2 -1</clus>
<clus scale="   80.307">  5  6 -1 -1</clus>
<clus scale="   89.235">  1  5  2 -1</clus>
<clus scale="   91.646">  7  8 -1 -1</clus>
<clus scale="   39.027">  1  5  2 -1</clus>
</clustering>
</event>
<event>
 9    2  0.1654290E-004  0.9258030E+02  0.7546771E-02  0.1303967E+00
         21   -1    0    0  501  502  0.00000000000E+00  0.00000000000E+00  0.16926852850E+03  0.16926852850E+03  0.00000000000E+00 0.  1.
          4   -1    0    0  502    0 -0.00000000000E+00 -0.00000000000E+00 -0.13263374830E+03  0.13263374830E+03  0.00000000000E+00 0. -1.
         23    2    1    2    0    0  0.78751958435E+01  0.11448137673E+02 -0.80803028452E+02  0.12205268280E+03  0.90413767793E+02 0.  0.
         24    2    1    2    0    0 -0.27121727800E+01 -0.45565680582E+02  0.48990641031E+02  0.10319662083E+03  0.78523069949E+02 0.  0.
        -11    1    4    4    0    0  0.14162236578E+02 -0.50379528299E+02  0.12652976302E+01  0.52347557676E+02  0.00000000000E+00 0.  1.
         12    1    4    4    0    0 -0.16874409358E+02  0.48138477173E+01  0.47725343401E+02  0.50849063155E+02  0.00000000000E+00 0. -1.
        -11    1    3    3    0    0  0.26829905556E+02  0.34111409184E+02 -0.81681280544E+02  0.92494668279E+02  0.00000000000E+00 0. -1.
         11    1    3    3    0    0 -0.18954709713E+02 -0.22663271510E+02  0.87825209249E+00  0.29558014524E+02  0.00000000000E+00 0.  1.
          3    1    1    2  501    0 -0.51630230634E+01  0.34117542908E+02  0.68447167617E+02  0.76652973172E+02  0.00000000000E+00 0. -1.
<scales pt_clust_5="13000.00000" pt_clust_6="13000.00000" pt_clust_7="13000.00000" pt_clust_8="13000.00000" pt_clust_9="34.50599"></scales>
<clustering>
<clus scale="   34.506">  1  9  2 -1</clus>
<clus scale="   78.523">  5  6 -1 -1</clus>
<clus scale="   81.008">  1  5  2 -1</clus>
<clus scale="   90.414">  7  8 -1 -1</clus>
<clus scale="   34.506">  1  5  2 -1</clus>
</clustering>
</event>
<event>
 9    2  0.1654290E-004  0.1128526E+03  0.7546771E-02  0.1265954E+00
         21   -1    0    0  501  502  0.00000000000E+00  0.00000000000E+00  0.39723201122E+02  0.39723201122E+02  0.00000000000E+00 0.  1.
          2   -1    0    0  502    0 -0.00000000000E+00 -0.00000000000E+00 -0.50552759761E+03  0.50552759761E+03  0.00000000000E+00 0. -1.
         23    2    1    2    0    0  0.18222225762E+02 -0.51835005203E+02 -0.20462210505E+03  0.23632947379E+03  0.10470194379E+03 0.  0.
         24    2    1    2    0    0  0.14376563607E+02  0.28153252572E+02 -0.65657616628E+02  0.10928814900E+03  0.81447441204E+02 0.  0.
        -13    1    4    4    0    0  0.19522195384E+02  0.48428002884E+02 -0.14761561170E+02  0.54261323833E+02  0.00000000000E+00 0.  1.
         14    1    4    4    0    0 -0.51456317774E+01 -0.20274750312E+02 -0.50896055458E+02  0.55026825165E+02  0.00000000000E+00 0. -1.
        -13    1    3    3    0    0 -0.10743160034E+02 -0.77618492278E+02 -0.12104393873E+03  0.14419320696E+03  0.00000000000E+00 0.  1.
         13    1    3    3    0    0  0.28965385797E+02  0.25783487075E+02 -0.83578166316E+02  0.92136266827E+02  0.00000000000E+00 0. -1.
          1    1    1    2  501    0 -0.32598789369E+02  0.23681752632E+02 -0.19552467482E+03  0.19963317595E+03  0.00000000000E+00 0. -1.
<scales pt_clust_5="13000.00000" pt_clust_6="13000.00000" pt_clust_7="13000.00000" pt_clust_8="13000.00000" pt_clust_9="40.29278"></scales>
<clustering>
<clus scale="   40.293">  1  9  2 -1</clus>
<clus scale="   81.447">  5  6 -1 -1</clus>
<clus scale="   91.689">  1  5  2 -1</clus>
<clus scale="  104.702">  7  8 -1 -1</clus>
<clus scale="   40.293">  1  5  2 -1</clus>
</clustering>
</event>
<event>
 9    2  0.1654290E-004  0.1069496E+03  0.7546771E-02  0.1270689E+00
         21   -1    0    0  501  502  0.00000000000E+00  0.00000000000E+00  0.43479436941E+02  0.43479436941E+02  0.00000000000E+00 0. -1.
          2   -1    0    0  502    0 -0.00000000000E+00 -0.00000000000E+00 -0.59210798133E+03  0.59210798133E+03  0.00000000000E+00 0. -1.
         23    2    1    2    0    0  0.31498712963E+02 -0.13508699044E+02 -0.20990679465E+03  0.23139734584E+03  0.91154897580E+02 0.  0.
         24    2    1    2    0    0 -0.81679047944E+02 -0.45128352301E+02 -0.28374910642E+03  0.30943585710E+03  0.80801975301E+02 0.  0.
        -11    1    4    4    0    0 -0.49379834555E+02  0.71435458509E+01 -0.19640681742E+03  0.20264509922E+03  0.00000000000E+00 0.  1.
         12    1    4    4    0    0 -0.32299213388E+02 -0.52271898152E+02 -0.87342289000E+02  0.10679075789E+03  0.00000000000E+00 0. -1.
        -11    1    3    3    0    0 -0.31905694434E+02 -0.27678878027E+01 -0.86538621821E+02  0.92274414693E+02  0.00000000000E+00 0. -1.
         11    1    3    3    0    0  0.63404407397E+02 -0.10740811241E+02 -0.12336817283E+03  0.13912293115E+03  0.00000000000E+00 0.  1.
          1    1    1    2  501    0  0.50180334981E+02  0.58637051345E+02 -0.54972643321E+02  0.94754215330E+02  0.00000000000E+00 0. -1.
<scales pt_clust_5="13000.00000" pt_clust_6="13000.00000" pt_clust_7="13000.00000" pt_clust_8="13000.00000" pt_clust_9="77.17752"></scales>
<clustering>
<clus scale="   77.178">  1  9  2 -1</clus>
<clus scale="   80.802">  5  6 -1 -1</clus>
<clus scale="   91.155">  7  8 -1 -1</clus>
<clus scale="   98.275">  1  5  2 -1</clus>
<clus scale="   77.178">  1  5  2 -1</clus>
</clustering>
</event>
<event>
 9    2  0.1654290E-004  0.1240971E+03  0.7546771E-02  0.1239713E+00
          2   -1    0    0  502    0 -0.00000000000E+00  0.00000000000E+00  0.17477876909E+04  0.17477876909E+04  0.00000000000E+00 0. -1.
         21   -1    0    0  501  502  0.00000000000E+00 -0.00000000000E+00 -0.52119569234E+02  0.52119569234E+02  0.00000000000E+00 0.  1.
         24    2    1    2    0    0  0.83330891162E+02  0.10044151172E+00  0.40556675549E+03  0.42188595421E+03  0.80989614704E+02 0.  0.
         23    2    1    2    0    0  0.67906420318E+02 -0.36287684436E+02  0.54137068431E+02  0.13231267778E+03  0.92993250082E+02 0.  0.
        -11    1    3    3    0    0  0.75878642705E+01  0.28829834626E+02  0.60608725939E+02  0.67543709616E+02  0.00000000000E+00 0.  1.
         12    1    3    3    0    0  0.75743026892E+02 -0.28729393115E+02  0.34495802955E+03  0.35434224459E+03  0.00000000000E+00 0. -1.
        -13    1    4    4    0    0  0.47887124376E+02  0.20421170494E+02  0.10116095420E+01  0.52069417504E+02  0.00000000000E+00 0. -1.
         13    1    4    4    0    0  0.20019295942E+02 -0.56708854930E+02  0.53125458889E+02  0.80243260276E+02  0.00000000000E+00 0.  1.
          1    1    1    2  501    0 -0.15123731148E+03  0.36187242925E+02  0.12359642978E+04  0.12457086282E+04  0.00000000000E+00 0. -1.
<scales pt_clust_5="13000.00000" pt_clust_6="13000.00000" pt_clust_7="13000.00000" pt_clust_8="13000.00000" pt_clust_9="82.17269"></scales>
<clustering>
<clus scale="   80.990">  5  6 -1 -1</clus>
<clus scale="   92.993">  7  8 -1 -1</clus>
<clus scale="  116.204">  1  5  2 -1</clus>
<clus scale="   82.173">  2  9  1 -1</clus>
<clus scale="   82.173">  2  5  1 -1</clus>
</clustering>
</event>
<event>
 9    2  0.1654290E-004  0.2598120E+03  0.7546771E-02  0.1125929E+00
         21   -1    0    0  501  502  0.00000000000E+00  0.00000000000E+00  0.13087558446E+03  0.13087558446E+03  0.00000000000E+00 0.  1.
         -1   -1    0    0    0  501 -0.00000000000E+00 -0.00000000000E+00 -0.96268458729E+03  0.96268458729E+03  0.00000000000E+00 0.  1.
         24    2    1    2    0    0  0.10262822556E+03 -0.96988551673E+02 -0.33210191277E+03  0.36967986942E+03  0.80200957272E+02 0.  0.
         23    2    1    2    0    0 -0.29572657020E+03  0.10280170860E+03 -0.28353381227E+03  0.43396367720E+03  0.99552271796E+02 0.  0.
        -13    1    3    3    0    0  0.73320575845E+02 -0.83187043666E+02 -0.31302511106E+03  0.33208539750E+03  0.00000000000E+00 0.  1.
         14    1    3    3    0    0  0.29307649718E+02 -0.13801508008E+02 -0.19076801707E+02  0.37594471916E+02  0.00000000000E+00 0. -1.
        -13    1    4    4    0    0 -0.21588713179E+03  0.70797855539E+02 -0.25897631897E+03  0.34451171796E+03  0.00000000000E+00 0.  1.
         13    1    4    4    0    0 -0.79839438406E+02  0.32003853060E+02 -0.24557493297E+02  0.89451959245E+02  0.00000000000E+00 0. -1.
         -2    1    1    2    0  502  0.19309834464E+03 -0.58131569247E+01 -0.21617327779E+03  0.28991662513E+03  0.00000000000E+00 0.  1.
<scales pt_clust_5="13000.00000" pt_clust_6="13000.00000" pt_clust_7="13000.00000" pt_clust_8="13000.00000" pt_clust_9="239.98257"></scales>
<clustering>
<clus scale="   80.201">  5  6 -1 -1</clus>
<clus scale="   99.552">  7  8 -1 -1</clus>
<clus scale="  162.393">  2  5  1 -1</clus>
<clus scale="  239.983">  1  9  2 -1</clus>
<clus scale="  239.983">  1  5  2 -1</clus>
</clustering>
</event>
<event>
 9    2  0.1654290E-004  0.1011929E+03  0.7546771E-02  0.1283031E+00
         21   -1    0    0  501  502  0.00000000000E+00  0.00000000000E+00  0.34789212712E+03  0.34789212712E+03  0.00000000000E+00 0.  1.
          4   -1    0    0  502    0 -0.00000000000E+00 -0.00000000000E+00 -0.98134913099E+02  0.98134913099E+02  0.00000000000E+00 0. -1.
         24    2    1    2    0    0 -0.85720358120E+01  0.53128046988E+02 -0.19640632907E+02  0.98578913741E+02  0.80224551096E+02 0.  0.
         23    2    1    2    0    0  0.37032292254E+01  0.20599937922E+02  0.25581124718E+03  0.27232078971E+03  0.91000807554E+02 0.  0.
        -11    1    3    3    0    0 -0.28188419708E+02 -0.81422245720E+01 -0.17595888024E+02  0.34212543051E+02  0.00000000000E+00 0.  1.
         12    1    3    3    0    0  0.19616383896E+02  0.61270271560E+02 -0.20447448827E+01  0.64366370690E+02  0.00000000000E+00 0. -1.
        -13    1    4    4    0    0  0.36280750759E+02 -0.52932914736E+01  0.48093838544E+02  0.60475855647E+02  0.00000000000E+00 0. -1.
         13    1    4    4    0    0 -0.32577521534E+02  0.25893229396E+02  0.20771740864E+03  0.21184493407E+03  0.00000000000E+00 0.  1.
          3    1    1    2  501    0  0.48688065866E+01 -0.73727984910E+02  0.13586599743E+02  0.75127336763E+02  0.00000000000E+00 0. -1.
<scales pt_clust_5="13000.00000" pt_clust_6="13000.00000" pt_clust_7="13000.00000" pt_clust_8="13000.00000" pt_clust_9="73.88861"></scales>
<clustering>
<clus scale="   73.889">  1  9  2 -1</clus>
<clus scale="   80.225">  5  6 -1 -1</clus>
<clus scale="   91.001">  7  8 -1 -1</clus>
<clus scale="   91.623">  2  5  1 -1</clus>
<clus scale="   73.889">  1  5  2 -1</clus>
</clustering>
</event>
<event>
 9    2  0.1654290E-004  0.1400933E+03  0.7546771E-02  0.1227478E+00
          2   -1    0    0  502    0 -0.00000000000E+00  0.00000000000E+00  0.21802588769E+03  0.21802588769E+03  0.00000000000E+00 0. -1.
         21   -1    0    0  501  502  0.00000000000E+00 -0.00000000000E+00 -0.26705517254E+03  0.26705517254E+03  0.00000000000E+00 0.  1.
         23    2    1    2    0    0 -0.40573779304E+02  0.29655235313E+02  0.12166739551E+03  0.15994912880E+03  0.90857603560E+02 0.  0.
         24    2    1    2    0    0 -0.87581915482E+02  0.39821401939E+02 -0.11067413394E+03  0.16748171319E+03  0.80901324827E+02 0.  0.
        -13    1    4    4    0    0 -0.10339397846E+03  0.33825829461E+02 -0.96355982616E+02  0.14532369699E+03  0.00000000000E+00 0.  1.
         14    1    4    4    0    0  0.15812062975E+02  0.59955724785E+01 -0.14318151320E+02  0.22158016204E+02  0.00000000000E+00 0. -1.
        -11    1    3    3    0    0 -0.61362396647E+02  0.75450078433E+01  0.11229041203E+03  0.12818505178E+03  0.00000000000E+00 0. -1.
         11    1    3    3    0    0  0.20788617342E+02  0.22110227470E+02  0.93769834817E+01  0.31764077021E+02  0.00000000000E+00 0.  1.
          1    1    1    2  501    0  0.12815569479E+03 -0.69476637252E+02 -0.60022546436E+02  0.15765021824E+03  0.00000000000E+00 0. -1.
<scales pt_clust_5="13000.00000" pt_clust_6="13000.00000" pt_clust_7="13000.00000" pt_clust_8="13000.00000" pt_clust_9="114.37277"></scales>
<clustering>
<clus scale="   80.901">  5  6 -1 -1</clus>
<clus scale="   90.858">  7  8 -1 -1</clus>
<clus scale="  103.830">  1  7  2 -1</clus>
<clus scale="  114.373">  2  9  1 -1</clus>
<clus scale="  114.373">  2  5  1 -1</clus>
</clustering>
</event>
<event>
 9    2  0.1654290E-004  0.2046079E+03  0.7546771E-02  0.1148128E+00
         21   -1    0    0  501  502  0.00000000000E+00  0.00000000000E+00  0.79799560931E+02  0.79799560931E+02  0.00000000000E+00 0. -1.
          2   -1    0    0  502    0 -0.00000000000E+00 -0.00000000000E+00 -0.95265883771E+03  0.95265883771E+03  0.00000000000E+00 0. -1.
         23    2    1    2    0    0 -0.20754234644E+03  0.70607087786E+02 -0.51013538928E+03  0.56458271644E+03  0.10225625602E+03 0.  0.
         24    2    1    2    0    0  0.92877593681E+02 -0.73742715755E+02 -0.81600148928E+02  0.16425026483E+03  0.79090642023E+02 0.  0.
        -11    1    4    4    0    0  0.24605538225E+02 -0.27014997257E+02 -0.72284501839E+02  0.80995628242E+02  0.00000000000E+00 0.  1.
         12    1    4    4    0    0  0.68272055456E+02 -0.46727718498E+02 -0.93156470892E+01  0.83254636585E+02  0.00000000000E+00 0. -1.
        -11    1    3    3    0    0 -0.53405754320E+02 -0.20000495129E+02 -0.18422426120E+03  0.19284909337E+03  0.00000000000E+00 0.  1.
         11    1    3    3    0    0 -0.15413659212E+03  0.90607582915E+02 -0.32591112808E+03  0.37173362307E+03  0.00000000000E+00 0. -1.
          1    1    1    2  501    0  0.11466475276E+03  0.31356279694E+01 -0.28112373856E+03  0.30362541737E+03  0.00000000000E+00 0. -1.
<scales pt_clust_5="13000.00000" pt_clust_6="13000.00000" pt_clust_7="13000.00000" pt_clust_8="13000.00000" pt_clust_9="114.70768"></scales>
<clustering>
<clus scale="   79.091">  5  6 -1 -1</clus>
<clus scale="  102.256">  7  8 -1 -1</clus>
<clus scale="  114.708">  1  9  2 -1</clus>
<clus scale="  194.071">  1  5  2 -1</clus>
<clus scale="  114.708">  1  5  2 -1</clus>
</clustering>
</event>
<event>
 9    2  0.1654290E-004  0.2424933E+03  0.7546771E-02  0.1118882E+00
          2   -1    0    0  502    0 -0.00000000000E+00  0.00000000000E+00  0.62957601907E+03  0.62957601907E+03  0.00000000000E+00 0. -1.
         21   -1    0    0  501  502  0.00000000000E+00 -0.00000000000E+00 -0.40034505740E+03  0.40034505740E+03  0.00000000000E+00 0.  1.
         23    2    1    2    0    0  0.24852243590E+02  0.22631417642E+03  0.55352228676E+03  0.60548120919E+03  0.91568729834E+02 0.  0.
         24    2    1    2    0    0  0.86119792318E+01 -0.19704281021E+03 -0.19754025510E+03  0.29011749075E+03  0.79031454600E+02 0.  0.
        -11    1    4    4    0    0 -0.82499758091E+01 -0.76524969266E+02 -0.12963290120E+03  0.15076081088E+03  0.00000000000E+00 0.  1.
         12    1    4    4    0    0  0.16861955041E+02 -0.12051784094E+03 -0.67907353893E+02  0.13935667987E+03  0.00000000000E+00 0. -1.
        -13    1    3    3    0    0 -0.17528472229E+02  0.17550674017E+03  0.44076503055E+03  0.47474590608E+03  0.00000000000E+00 0. -1.
         13    1    3    3    0    0  0.42380715819E+02  0.50807436241E+02  0.11275725621E+03  0.13073530311E+03  0.00000000000E+00 0.  1.
          1    1    1    2  501    0 -0.33464222822E+02 -0.29271366208E+02 -0.12675107000E+03  0.13432237653E+03  0.00000000000E+00 0. -1.
<scales pt_clust_5="13000.00000" pt_clust_6="13000.00000" pt_clust_7="13000.00000" pt_clust_8="13000.00000" pt_clust_9="44.45972"></scales>
<clustering>
<clus scale="   44.460">  2  9  1 -1</clus>
<clus scale="   79.031">  5  6 -1 -1</clus>
<clus scale="   91.569">  7  8 -1 -1</clus>
<clus scale="  238.042">  2  5  1 -1</clus>
<clus scale="   44.460">  2  5  1 -1</clus>
</clustering>
</event>
