<event>
 9    1  0.1601012E-005  0.9670465E+02  0.7546771E-02  0.1288002E+00
         21   -1    0    0  501  502  0.00000000000E+00  0.00000000000E+00  0.74085576928E+02  0.74085576928E+02  0.00000000000E+00 0. -1.
          1   -1    0    0  502    0 -0.00000000000E+00 -0.00000000000E+00 -0.24787864837E+03  0.24787864837E+03  0.00000000000E+00 0. -1.
         23    2    1    2    0    0 -0.36857948320E+02 -0.39913506454E+00 -0.13674274169E+03  0.16873344725E+03  0.91726392885E+02 0.  0.
         23    2    1    2    0    0  0.72943215632E+01  0.39993501007E+02 -0.25870699646E+02  0.10256810964E+03  0.90544115019E+02 0.  0.
        -11    1    3    3    0    0  0.17113193289E+01 -0.32369064490E+02 -0.12447070411E+02  0.34721960078E+02  0.00000000000E+00 0.  1.
         11    1    3    3    0    0 -0.38569267649E+02  0.31969929426E+02 -0.12429567128E+03  0.13401148717E+03  0.00000000000E+00 0. -1.
        -13    1    4    4    0    0  0.27935180548E+02  0.12128563259E+02 -0.51236321476E+02  0.59604001522E+02  0.00000000000E+00 0.  1.
         13    1    4    4    0    0 -0.20640858985E+02  0.27864937748E+02  0.25365621830E+02  0.42964108116E+02  0.00000000000E+00 0. -1.
          1    1    1    2  501    0  0.29563626756E+02 -0.39594365943E+02 -0.11179630103E+02  0.50662668412E+02  0.00000000000E+00 0. -1.
<scales pt_clust_5="13000.00000" pt_clust_6="13000.00000" pt_clust_7="13000.00000" pt_clust_8="13000.00000" pt_clust_9="49.41378"></scales>
<clustering>
<clus scale="   49.414">  1  9  2 -1</clus>
<clus scale="   90.544">  7  8 -1 -1</clus>
<clus scale="   91.726">  5  6 -1 -1</clus>
<clus scale="   95.584">  1  7  2 -1</clus>
<clus scale="   49.414">  1  5  2 -1</clus>
</clustering>
</event>
<event>
 9    1  0.1601012E-005  0.9566035E+02  0.7546771E-02  0.1291404E+00
          1   -1    0    0  502    0 -0.00000000000E+00  0.00000000000E+00  0.36516389052E+03  0.36516389052E+03  0.00000000000E+00 0. -1.
         21   -1    0    0  501  502  0.00000000000E+00 -0.00000000000E+00 -0.37700186754E+02  0.37700186754E+02  0.00000000000E+00 0.  1.
         23    2    1    2    0    0 -0.28708561266E+01  0.11536755751E+02  0.19159166161E+03  0.21407054808E+03  0.94749650173E+02 0.  0.
         23    2    1    2    0    0 -0.27571785513E+02 -0.58499775151E+01  0.12104626920E+03  0.15445845353E+03  0.91710353763E+02 0.  0.
        -11    1    4    4    0    0 -0.57370608375E+02  0.10930937246E+02  0.55706626823E+02  0.80709976870E+02  0.00000000000E+00 0.  1.
         11    1    4    4    0    0  0.29798822862E+02 -0.16780914761E+02  0.65339642378E+02  0.73748476664E+02  0.00000000000E+00 0. -1.
        -11    1    3    3    0    0 -0.20101016298E+02 -0.37830937763E+02  0.77051472433E+02  0.88159855446E+02  0.00000000000E+00 0.  1.
         11    1    3    3    0    0  0.17230160172E+02  0.49367693514E+02  0.11454018918E+03  0.12591069264E+03  0.00000000000E+00 0. -1.
          1    1    1    2  501    0  0.30442641640E+02 -0.56867782360E+01  0.14825772947E+02  0.34335075655E+02  0.00000000000E+00 0. -1.
<scales pt_clust_5="13000.00000" pt_clust_6="13000.00000" pt_clust_7="13000.00000" pt_clust_8="13000.00000" pt_clust_9="30.96924"></scales>
<clustering>
<clus scale="   30.969">  2  9  1 -1</clus>
<clus scale="   91.710">  5  6 -1 -1</clus>
<clus scale="   92.651">  2  5  1 -1</clus>
<clus scale="   94.750">  7  8 -1 -1</clus>
<clus scale="   30.969">  2  5  1 -1</clus>
</clustering>
</event>
<event>
 9    1  0.1601012E-005  0.1024596E+03  0.7546771E-02  0.1276200E+00
         21   -1    0    0  501  502  0.00000000000E+00  0.00000000000E+00  0.18741722462E+03  0.18741722462E+03  0.00000000000E+00 0. -1.
          1   -1    0    0  502    0 -0.00000000000E+00 -0.00000000000E+00 -0.27184238422E+03  0.27184238422E+03  0.00000000000E+00 0. -1.
         23    2    1    2    0    0  0.17596412641E+02 -0.41017101178E+02 -0.13320405409E+03  0.16846478138E+03  0.92978633099E+02 0.  0.
         23    2    1    2    0    0 -0.57195889243E+02  0.57085592916E+01 -0.91277216299E+02  0.14102658700E+03  0.90846082084E+02 0.  0.
        -11    1    4    4    0    0  0.16646699295E+02 -0.17739190166E+02 -0.45773323583E+01  0.24753655017E+02  0.00000000000E+00 0.  1.
         11    1    4    4    0    0 -0.73842588538E+02  0.23447749457E+02 -0.86699883941E+02  0.11627293198E+03  0.00000000000E+00 0. -1.
        -13    1    3    3    0    0  0.30526449549E+02  0.22484675939E+02 -0.56620277088E+02  0.68141621287E+02  0.00000000000E+00 0. -1.
         13    1    3    3    0    0 -0.12930036908E+02 -0.63501777117E+02 -0.76583777005E+02  0.10032316010E+03  0.00000000000E+00 0.  1.
          1    1    1    2  501    0  0.39599476602E+02  0.35308541887E+02  0.14005611080E+03  0.14976824046E+03  0.00000000000E+00 0. -1.
<scales pt_clust_5="13000.00000" pt_clust_6="13000.00000" pt_clust_7="13000.00000" pt_clust_8="13000.00000" pt_clust_9="53.05480"></scales>
<clustering>
<clus scale="   53.055">  1  9  2 -1</clus>
<clus scale="   90.846">  5  6 -1 -1</clus>
<clus scale="   92.979">  7  8 -1 -1</clus>
<clus scale="  100.528">  1  5  2 -1</clus>
<clus scale="   53.055">  1  5  2 -1</clus>
</clustering>
</event>
<event>
 9    1  0.1601012E-005  0.9734456E+02  0.7546771E-02  0.1290810E+00
         21   -1    0    0  501  502  0.00000000000E+00  0.00000000000E+00  0.24714398730E+03  0.24714398730E+03  0.00000000000E+00 0.  1.
          1   -1    0    0  502    0 -0.00000000000E+00 -0.00000000000E+00 -0.78294548996E+02  0.78294548996E+02  0.00000000000E+00 0. -1.
         23    2    1    2    0    0  0.19005281278E+02 -0.33868775126E+02 -0.15852414014E+02  0.93612464295E+02  0.83688110244E+02 0.  0.
         23    2    1    2    0    0 -0.17093350430E+02 -0.88749265646E+01  0.10466873700E+03  0.14107377693E+03  0.92603018745E+02 0.  0.
        -11    1    3    3    0    0  0.77936345539E+00 -0.46353873552E+02  0.20803321230E+02  0.50814045055E+02  0.00000000000E+00 0.  1.
         11    1    3    3    0    0  0.18225917823E+02  0.12485098426E+02 -0.36655735243E+02  0.42798419240E+02  0.00000000000E+00 0. -1.
        -13    1    4    4    0    0  0.15004149853E+02 -0.42113095476E+02  0.70997971838E+02  0.83900830321E+02  0.00000000000E+00 0.  1.
         13    1    4    4    0    0 -0.32097500283E+02  0.33238168911E+02  0.33670765162E+02  0.57172946606E+02  0.00000000000E+00 0. -1.
          1    1    1    2  501    0 -0.19119308487E+01  0.42743701691E+02  0.80033115321E+02  0.90752295078E+02  0.00000000000E+00 0. -1.
<scales pt_clust_5="13000.00000" pt_clust_6="13000.00000" pt_clust_7="13000.00000" pt_clust_8="13000.00000" pt_clust_9="42.78644"></scales>
<clustering>
<clus scale="   42.786">  1  9  2 -1</clus>
<clus scale="   83.688">  5  6 -1 -1</clus>
<clus scale="   88.906">  2  5  1 -1</clus>
<clus scale="   92.603">  7  8 -1 -1</clus>
<clus scale="   42.786">  1  5  2 -1</clus>
</clustering>
</event>
<event>
 9    1  0.1601012E-005  0.1056305E+03  0.7546771E-02  0.1276273E+00
         21   -1    0    0  501  502  0.00000000000E+00  0.00000000000E+00  0.18169093573E+03  0.18169093573E+03  0.00000000000E+00 0. -1.
         -3   -1    0    0    0  501 -0.00000000000E+00 -0.00000000000E+00 -0.76570675420E+02  0.76570675420E+02  0.00000000000E+00 0.  1.
         23    2    1    2    0    0 -0.51750133306E+02 -0.30264465402E+02  0.11654036906E+02  0.96843074740E+02  0.75158169121E+02 0.  0.
         23    2    1    2    0    0  0.24114715916E+02  0.30648679242E+02  0.88599286846E+02  0.13335519759E+03  0.91721938655E+02 0.  0.
        -11    1    4    4    0    0  0.52805430813E+02 -0.32191294734E+01  0.62420313362E+02  0.81823418642E+02  0.00000000000E+00 0. -1.
         11    1    4    4    0    0 -0.28690714897E+02  0.33867808716E+02  0.26178973484E+02  0.51531778945E+02  0.00000000000E+00 0.  1.
        -13    1    3    3    0    0 -0.61566447176E+02 -0.64495858253E+00 -0.44468515079E+01  0.61730202315E+02  0.00000000000E+00 0.  1.
         13    1    3    3    0    0  0.98163138703E+01 -0.29619506819E+02  0.16100888414E+02  0.35112872425E+02  0.00000000000E+00 0. -1.
         -3    1    1    2    0  502  0.27635417390E+02 -0.38421384034E+00  0.48669365589E+01  0.28063338826E+02  0.00000000000E+00 0.  1.
<scales pt_clust_5="13000.00000" pt_clust_6="13000.00000" pt_clust_7="13000.00000" pt_clust_8="13000.00000" pt_clust_9="27.63810"></scales>
<clustering>
<clus scale="   27.638">  1  9  2 -1</clus>
<clus scale="   75.158">  7  8 -1 -1</clus>
<clus scale="   91.617">  2  7  1 -1</clus>
<clus scale="   91.722">  5  6 -1 -1</clus>
<clus scale="   27.638">  1  5  2 -1</clus>
</clustering>
</event>
<event>
 9    1  0.1601012E-005  0.1609973E+03  0.7546771E-02  0.1188445E+00
         -1   -1    0    0    0  501 -0.00000000000E+00  0.00000000000E+00  0.12677268088E+03  0.12677268088E+03  0.00000000000E+00 0.  1.
         21   -1    0    0  501  502  0.00000000000E+00 -0.00000000000E+00 -0.68773555792E+03  0.68773555792E+03  0.00000000000E+00 0.  1.
         23    2    1    2    0    0  0.70901778085E+02  0.13971387238E+03 -0.63652227206E+01  0.18279236153E+03  0.93944148845E+02 0.  0.
         23    2    1    2    0    0 -0.64996009810E+02 -0.62908120431E+02 -0.91744880778E+02  0.16249664108E+03  0.99025866860E+02 0.  0.
        -11    1    3    3    0    0  0.32633639160E+02  0.13329091209E+03 -0.25421122055E+02  0.13956236991E+03  0.00000000000E+00 0. -1.
         11    1    3    3    0    0  0.38268138925E+02  0.64229602953E+01  0.19055899334E+02  0.43229991616E+02  0.00000000000E+00 0.  1.
        -13    1    4    4    0    0  0.18276662518E+02  0.94360718498E+01 -0.29116583942E+02  0.35649001461E+02  0.00000000000E+00 0.  1.
         13    1    4    4    0    0 -0.83272672328E+02 -0.72344192281E+02 -0.62628296837E+02  0.12684763962E+03  0.00000000000E+00 0. -1.
         -1    1    1    2    0  502 -0.59057682751E+01 -0.76805751949E+02 -0.46285277354E+03  0.46921923619E+03  0.00000000000E+00 0.  1.
<scales pt_clust_5="13000.00000" pt_clust_6="13000.00000" pt_clust_7="13000.00000" pt_clust_8="13000.00000" pt_clust_9="77.03247"></scales>
<clustering>
<clus scale="   77.032">  2  9  1 -1</clus>
<clus scale="   93.944">  5  6 -1 -1</clus>
<clus scale="   99.026">  7  8 -1 -1</clus>
<clus scale="  157.922">  1  5  2 -1</clus>
<clus scale="   77.032">  2  5  1 -1</clus>
</clustering>
</event>
<event>
 9    1  0.1601012E-005  0.1000127E+03  0.7546771E-02  0.1283590E+00
         21   -1    0    0  501  502  0.00000000000E+00  0.00000000000E+00  0.20103984846E+03  0.20103984846E+03  0.00000000000E+00 0. -1.
         -1   -1    0    0    0  501 -0.00000000000E+00 -0.00000000000E+00 -0.13004421717E+03  0.13004421717E+03  0.00000000000E+00 0.  1.
         23    2    1    2    0    0  0.28857486769E+02  0.10941608774E+02 -0.62723224213E+02  0.11544894265E+03  0.91879171508E+02 0.  0.
         23    2    1    2    0    0  0.25169559205E+02  0.23852556821E+02  0.92977753711E+02  0.13954706196E+03  0.98112530484E+02 0.  0.
        -13    1    3    3    0    0 -0.22684712645E+02 -0.19709146287E+02 -0.42725540230E+02  0.52235222055E+02  0.00000000000E+00 0.  1.
         13    1    3    3    0    0  0.51542199414E+02  0.30650755061E+02 -0.19997683982E+02  0.63213720591E+02  0.00000000000E+00 0. -1.
        -13    1    4    4    0    0  0.40255406891E+02  0.30994020327E+01  0.10404568984E+03  0.11160470264E+03  0.00000000000E+00 0.  1.
         13    1    4    4    0    0 -0.15085847686E+02  0.20753154788E+02 -0.11067936128E+02  0.27942359317E+02  0.00000000000E+00 0. -1.
         -1    1    1    2    0  502 -0.54027045974E+02 -0.34794165595E+02  0.40741101794E+02  0.76088061031E+02  0.00000000000E+00 0.  1.
<scales pt_clust_5="13000.00000" pt_clust_6="13000.00000" pt_clust_7="13000.00000" pt_clust_8="13000.00000" pt_clust_9="64.26162"></scales>
<clustering>
<clus scale="   64.262">  1  9  2 -1</clus>
<clus scale="   91.879">  5  6 -1 -1</clus>
<clus scale="   93.906">  2  5  1 -1</clus>
<clus scale="   98.113">  7  8 -1 -1</clus>
<clus scale="   64.262">  1  5  2 -1</clus>
</clustering>
</event>
<event>
 9    1  0.1601012E-005  0.1060402E+03  0.7546771E-02  0.1270139E+00
         21   -1    0    0  501  502  0.00000000000E+00  0.00000000000E+00  0.11574623474E+03  0.11574623474E+03  0.00000000000E+00 0. -1.
         -2   -1    0    0    0  501 -0.00000000000E+00 -0.00000000000E+00 -0.19862512028E+03  0.19862512028E+03  0.00000000000E+00 0.  1.
         23    2    1    2    0    0  0.27727636323E+01 -0.49786763213E+02 -0.12183381646E+03  0.16298671626E+03  0.96097767068E+02 0.  0.
         23    2    1    2    0    0  0.14722104586E+02  0.33602743583E+02 -0.78076195137E+01  0.98899126215E+02  0.91510619624E+02 0.  0.
        -11    1    4    4    0    0 -0.30415354472E+02 -0.82728719015E+00 -0.25218898186E+02  0.39519248696E+02  0.00000000000E+00 0.  1.
         11    1    4    4    0    0  0.45137459058E+02  0.34430030773E+02  0.17411278672E+02  0.59379877520E+02  0.00000000000E+00 0. -1.
        -13    1    3    3    0    0 -0.57008734172E+01 -0.74518687763E+02 -0.11282855082E+03  0.13533594003E+03  0.00000000000E+00 0.  1.
         13    1    3    3    0    0  0.84736370495E+01  0.24731924551E+02 -0.90052656331E+01  0.27650776227E+02  0.00000000000E+00 0. -1.
         -2    1    1    2    0  502 -0.17494868218E+02  0.16184019630E+02  0.46762550427E+02  0.52485512551E+02  0.00000000000E+00 0.  1.
<scales pt_clust_5="13000.00000" pt_clust_6="13000.00000" pt_clust_7="13000.00000" pt_clust_8="13000.00000" pt_clust_9="23.83260"></scales>
<clustering>
<clus scale="   23.833">  1  9  2 -1</clus>
<clus scale="   91.511">  5  6 -1 -1</clus>
<clus scale="   96.098">  7  8 -1 -1</clus>
<clus scale="  101.902">  1  5  2 -1</clus>
<clus scale="   23.833">  1  5  2 -1</clus>
</clustering>
</event>
<event>
 9    1  0.1601012E-005  0.1173478E+03  0.7546771E-02  0.1247786E+00
         21   -1    0    0  501  502  0.00000000000E+00  0.00000000000E+00  0.35019811334E+02  0.35019811334E+02  0.00000000000E+00 0.  1.
          2   -1    0    0  502    0 -0.00000000000E+00 -0.00000000000E+00 -0.11693496669E+04  0.11693496669E+04  0.00000000000E+00 0. -1.
         23    2    1    2    0    0  0.85095891086E+02  0.15312092764E+02 -0.61807652805E+03  0.63062806982E+03  0.90539477910E+02 0.  0.
         23    2    1    2    0    0 -0.56218263420E+02  0.53739238067E+02 -0.47154977209E+03  0.48656106923E+03  0.91291224545E+02 0.  0.
        -13    1    3    3    0    0  0.24319347504E+02  0.49313705861E+02 -0.30279158794E+03  0.30774342881E+03  0.00000000000E+00 0.  1.
         13    1    3    3    0    0  0.60776543582E+02 -0.34001613097E+02 -0.31528494010E+03  0.32288464101E+03  0.00000000000E+00 0. -1.
        -13    1    4    4    0    0 -0.54242303193E+01  0.64872892226E+02 -0.31312525429E+03  0.31982079247E+03  0.00000000000E+00 0.  1.
         13    1    4    4    0    0 -0.50794033101E+02 -0.11133654159E+02 -0.15842451780E+03  0.16674027676E+03  0.00000000000E+00 0. -1.
          2    1    1    2  501    0 -0.28877627666E+02 -0.69051330831E+02 -0.44703555391E+02  0.87180339147E+02  0.00000000000E+00 0. -1.
<scales pt_clust_5="13000.00000" pt_clust_6="13000.00000" pt_clust_7="13000.00000" pt_clust_8="13000.00000" pt_clust_9="74.84653"></scales>
<clustering>
<clus scale="   74.847">  1  9  2 -1</clus>
<clus scale="   90.539">  5  6 -1 -1</clus>
<clus scale="   91.291">  7  8 -1 -1</clus>
<clus scale="  116.764">  2  5  1 -1</clus>
<clus scale="   74.847">  1  5  2 -1</clus>
</clustering>
</event>
<event>
 9    1  0.1601012E-005  0.1020911E+03  0.7546771E-02  0.1276150E+00
         21   -1    0    0  501  502  0.00000000000E+00  0.00000000000E+00  0.86008674586E+02  0.86008674586E+02  0.00000000000E+00 0.  1.
          1   -1    0    0  502    0 -0.00000000000E+00 -0.00000000000E+00 -0.37656947616E+03  0.37656947616E+03  0.00000000000E+00 0. -1.
         23    2    1    2    0    0  0.75692576078E+01  0.41132259996E+02 -0.12654523725E+03  0.16146772407E+03  0.91153564788E+02 0.  0.
         23    2    1    2    0    0  0.59930692822E+02 -0.60266498767E+02 -0.17630480620E+01  0.12433870542E+03  0.90737349044E+02 0.  0.
        -11    1    4    4    0    0 -0.21289684884E+02 -0.28758607649E+02 -0.90762001810E+01  0.36914571731E+02  0.00000000000E+00 0. -1.
         11    1    4    4    0    0  0.81220377706E+02 -0.31507891117E+02  0.73131521191E+01  0.87424133689E+02  0.00000000000E+00 0.  1.
        -13    1    3    3    0    0 -0.26482768075E+02 -0.10591181109E+02 -0.11379421834E+02  0.30708327266E+02  0.00000000000E+00 0.  1.
         13    1    3    3    0    0  0.34052025683E+02  0.51723441105E+02 -0.11516581541E+03  0.13075939680E+03  0.00000000000E+00 0. -1.
          1    1    1    2  501    0 -0.67499950430E+02  0.19134238771E+02 -0.16225251626E+03  0.17677172125E+03  0.00000000000E+00 0. -1.
<scales pt_clust_5="13000.00000" pt_clust_6="13000.00000" pt_clust_7="13000.00000" pt_clust_8="13000.00000" pt_clust_9="70.15958"></scales>
<clustering>
<clus scale="   70.160">  1  9  2 -1</clus>
<clus scale="   90.737">  5  6 -1 -1</clus>
<clus scale="   91.154">  7  8 -1 -1</clus>
<clus scale="  101.720">  1  5  2 -1</clus>
<clus scale="   70.160">  1  5  2 -1</clus>
</clustering>
</event>
<event>
 9    1  0.1601012E-005  0.2405667E+03  0.7546771E-02  0.1120923E+00
          1   -1    0    0  502    0 -0.00000000000E+00  0.00000000000E+00  0.44353176221E+03  0.44353176221E+03  0.00000000000E+00 0. -1.
         21   -1    0    0  501  502  0.00000000000E+00 -0.00000000000E+00 -0.16275899229E+03  0.16275899229E+03  0.00000000000E+00 0.  1.
         23    2    1    2    0    0 -0.16336584325E+03 -0.13933566291E+03  0.18085909992E+03  0.30311701443E+03  0.11431134989E+03 0.  0.
         23    2    1    2    0    0  0.17813395861E+03  0.11038155391E+03  0.12552200307E+03  0.26179470695E+03  0.94153601509E+02 0.  0.
        -11    1    3    3    0    0 -0.40407015871E+02 -0.46414163553E+02  0.12474550783E+03  0.13909868164E+03  0.00000000000E+00 0. -1.
         11    1    3    3    0    0 -0.12295882738E+03 -0.92921499354E+02  0.56113592089E+02  0.16401833279E+03  0.00000000000E+00 0.  1.
        -13    1    4    4    0    0  0.78016584763E+02  0.10096245126E+03  0.85351724656E+02  0.15350869996E+03  0.00000000000E+00 0. -1.
         13    1    4    4    0    0  0.10011737385E+03  0.94191026490E+01  0.40170278417E+02  0.10828600699E+03  0.00000000000E+00 0.  1.
          1    1    1    2  501    0 -0.14768115360E+02  0.28954108999E+02 -0.25608333075E+02  0.41379033122E+02  0.00000000000E+00 0. -1.
<scales pt_clust_5="13000.00000" pt_clust_6="13000.00000" pt_clust_7="13000.00000" pt_clust_8="13000.00000" pt_clust_9="32.50289"></scales>
<clustering>
<clus scale="   32.503">  2  9  1 -1</clus>
<clus scale="   94.154">  7  8 -1 -1</clus>
<clus scale="  114.311">  5  6 -1 -1</clus>
<clus scale="  231.668">  2  7  1 -1</clus>
<clus scale="   32.503">  2  5  1 -1</clus>
</clustering>
</event>
<event>
 9    1  0.1601012E-005  0.9859068E+02  0.7546771E-02  0.1285598E+00
         21   -1    0    0  501  502  0.00000000000E+00  0.00000000000E+00  0.19625549633E+03  0.19625549633E+03  0.00000000000E+00 0.  1.
         -3   -1    0    0    0  501 -0.00000000000E+00 -0.00000000000E+00 -0.22098265324E+03  0.22098265324E+03  0.00000000000E+00 0.  1.
         23    2    1    2    0    0 -0.10662923037E+02  0.38847079513E+02 -0.15177103480E+03  0.18141642811E+03  0.90855268790E+02 0.  0.
         23    2    1    2    0    0 -0.32213804395E+01  0.32847800521E+02  0.14726854258E+02  0.10185141318E+03  0.95223289376E+02 0.  0.
        -11    1    4    4    0    0  0.19049868531E+02  0.58879391077E+02  0.23975350639E+02  0.66366389256E+02  0.00000000000E+00 0.  1.
         11    1    4    4    0    0 -0.22271248970E+02 -0.26031590557E+02 -0.92484963805E+01  0.35485023924E+02  0.00000000000E+00 0. -1.
        -11    1    3    3    0    0 -0.50329770296E+02  0.14827235892E+02 -0.89979155539E+02  0.10415940252E+03  0.00000000000E+00 0.  1.
         11    1    3    3    0    0  0.39666847259E+02  0.24019843621E+02 -0.61791879264E+02  0.77257025583E+02  0.00000000000E+00 0. -1.
         -3    1    1    2    0  502  0.13884303477E+02 -0.71694880034E+02  0.11231702363E+03  0.13397030829E+03  0.00000000000E+00 0.  1.
<scales pt_clust_5="13000.00000" pt_clust_6="13000.00000" pt_clust_7="13000.00000" pt_clust_8="13000.00000" pt_clust_9="73.02691"></scales>
<clustering>
<clus scale="   73.027">  1  9  2 -1</clus>
<clus scale="   90.855">  7  8 -1 -1</clus>
<clus scale="   94.379">  2  7  1 -1</clus>
<clus scale="   95.223">  5  6 -1 -1</clus>
<clus scale="   73.027">  1  5  2 -1</clus>
</clustering>
</event>
<event>
 9    1  0.1601012E-005  0.9509350E+02  0.7546771E-02  0.1291482E+00
          1   -1    0    0  502    0 -0.00000000000E+00  0.00000000000E+00  0.11542526872E+03  0.11542526872E+03  0.00000000000E+00 0. -1.
         21   -1    0    0  501  502  0.00000000000E+00 -0.00000000000E+00 -0.13828803303E+03  0.13828803303E+03  0.00000000000E+00 0. -1.
         23    2    1    2    0    0 -0.11647130594E+02 -0.36727284496E+02  0.38424331159E+02  0.10581014604E+03  0.90745846751E+02 0.  0.
         23    2    1    2    0    0 -0.99984263329E+01  0.16242000447E+01 -0.33362497333E+02  0.98098137346E+02  0.91692866503E+02 0.  0.
        -11    1    4    4    0    0 -0.48062169284E+02 -0.93908599187E+01 -0.47063315639E+01  0.49196645446E+02  0.00000000000E+00 0.  1.
         11    1    4    4    0    0  0.38063742952E+02  0.11015059963E+02 -0.28656165769E+02  0.48901491900E+02  0.00000000000E+00 0. -1.
        -11    1    3    3    0    0  0.11387707410E+02  0.24593047537E+02 -0.45311237107E+01  0.27477790110E+02  0.00000000000E+00 0.  1.
         11    1    3    3    0    0 -0.23034838004E+02 -0.61320332034E+02  0.42955454870E+02  0.78332355931E+02  0.00000000000E+00 0. -1.
          1    1    1    2  501    0  0.21645556927E+02  0.35103084452E+02 -0.27924598144E+02  0.49805018364E+02  0.00000000000E+00 0. -1.
<scales pt_clust_5="13000.00000" pt_clust_6="13000.00000" pt_clust_7="13000.00000" pt_clust_8="13000.00000" pt_clust_9="41.24023"></scales>
<clustering>
<clus scale="   41.240">  2  9  1 -1</clus>
<clus scale="   90.746">  7  8 -1 -1</clus>
<clus scale="   91.693">  5  6 -1 -1</clus>
<clus scale="   94.181">  1  7  2 -1</clus>
<clus scale="   41.240">  2  5  1 -1</clus>
</clustering>
</event>
<event>
 9    1  0.1601012E-005  0.1286679E+03  0.7546771E-02  0.1229647E+00
         21   -1    0    0  501  502  0.00000000000E+00  0.00000000000E+00  0.64850572229E+03  0.64850572229E+03  0.00000000000E+00 0.  1.
          4   -1    0    0  502    0 -0.00000000000E+00 -0.00000000000E+00 -0.46079114318E+02  0.46079114318E+02  0.00000000000E+00 0. -1.
         23    2    1    2    0    0 -0.65572865871E+02  0.56953188030E+02  0.85214407365E+02  0.15119419286E+03  0.89748105086E+02 0.  0.
         23    2    1    2    0    0  0.74061017072E+02 -0.80042802658E+02  0.42821784723E+03  0.45105877521E+03  0.90507510752E+02 0.  0.
        -11    1    3    3    0    0  0.84328496162E+01  0.47373358497E+02  0.47373896251E+02  0.67525062710E+02  0.00000000000E+00 0. -1.
         11    1    3    3    0    0 -0.74005715487E+02  0.95798295327E+01  0.37840511114E+02  0.83669130150E+02  0.00000000000E+00 0.  1.
        -13    1    4    4    0    0  0.45463047664E+02 -0.78030926774E+02  0.40262375588E+03  0.41262768089E+03  0.00000000000E+00 0.  1.
         13    1    4    4    0    0  0.28597969408E+02 -0.20118758842E+01  0.25594091346E+02  0.38431094320E+02  0.00000000000E+00 0. -1.
          4    1    1    2  501    0 -0.84881512005E+01  0.23089614628E+02  0.88994353375E+02  0.92331868535E+02  0.00000000000E+00 0. -1.
<scales pt_clust_5="13000.00000" pt_clust_6="13000.00000" pt_clust_7="13000.00000" pt_clust_8="13000.00000" pt_clust_9="24.60039"></scales>
<clustering>
<clus scale="   24.600">  1  9  2 -1</clus>
<clus scale="   89.748">  5  6 -1 -1</clus>
<clus scale="   90.508">  7  8 -1 -1</clus>
<clus scale="  128.135">  2  5  1 -1</clus>
<clus scale="   24.600">  1  5  2 -1</clus>
</clustering>
</event>
<event>
 9    1  0.1601012E-005  0.1029066E+03  0.7546771E-02  0.1276059E+00
         21   -1    0    0  501  502  0.00000000000E+00  0.00000000000E+00  0.20619638354E+03  0.20619638354E+03  0.00000000000E+00 0. -1.
          2   -1    0    0  502    0 -0.00000000000E+00 -0.00000000000E+00 -0.21497937120E+03  0.21497937120E+03  0.00000000000E+00 0. -1.
         23    2    1    2    0    0 -0.40895278416E+02 -0.17905695847E+02 -0.15223244691E+03  0.18076140638E+03  0.86642543842E+02 0.  0.
         23    2    1    2    0    0  0.74230329009E+02  0.59058167588E+01  0.29219382647E+02  0.12081613310E+03  0.90541400907E+02 0.  0.
        -11    1    3    3    0    0 -0.62619182925E+02 -0.43793542750E+01 -0.67181936818E+02  0.91944295357E+02  0.00000000000E+00 0.  1.
         11    1    3    3    0    0  0.21723904509E+02 -0.13526341572E+02 -0.85050510088E+02  0.88817111019E+02  0.00000000000E+00 0. -1.
        -13    1    4    4    0    0  0.50869968080E+01 -0.35709385396E+02  0.41321915942E+01  0.36305822525E+02  0.00000000000E+00 0. -1.
         13    1    4    4    0    0  0.69143332201E+02  0.41615202155E+02  0.25087191053E+02  0.84510310573E+02  0.00000000000E+00 0.  1.
          2    1    1    2  501    0 -0.33335050593E+02  0.11999879088E+02  0.11423007660E+03  0.11959821527E+03  0.00000000000E+00 0. -1.
<scales pt_clust_5="13000.00000" pt_clust_6="13000.00000" pt_clust_7="13000.00000" pt_clust_8="13000.00000" pt_clust_9="35.42912"></scales>
<clustering>
<clus scale="   35.429">  1  9  2 -1</clus>
<clus scale="   86.643">  5  6 -1 -1</clus>
<clus scale="   90.541">  7  8 -1 -1</clus>
<clus scale="   99.494">  2  5  1 -1</clus>
<clus scale="   35.429">  1  5  2 -1</clus>
</clustering>
</event>
<event>
 9    1  0.1601012E-005  0.1002344E+03  0.7546771E-02  0.1282937E+00
          1   -1    0    0  502    0 -0.00000000000E+00  0.00000000000E+00  0.33184062516E+03  0.33184062516E+03  0.00000000000E+00 0. -1.
         21   -1    0    0  501  502  0.00000000000E+00 -0.00000000000E+00 -0.53183345960E+02  0.53183345960E+02  0.00000000000E+00 0.  1.
         23    2    1    2    0    0  0.25485850014E+02  0.13349736200E+02  0.20060806914E+03  0.22517158898E+03  0.98137164583E+02 0.  0.
         23    2    1    2    0    0  0.28496818624E+00 -0.13030451155E+02  0.91689393928E+02  0.13069262168E+03  0.92215739097E+02 0.  0.
        -11    1    3    3    0    0  0.61230146239E+02  0.22304830024E+02  0.13560373291E+03  0.15044935570E+03  0.00000000000E+00 0.  1.
         11    1    3    3    0    0 -0.35744296225E+02 -0.89550938237E+01  0.65004336237E+02  0.74722233289E+02  0.00000000000E+00 0. -1.
        -13    1    4    4    0    0 -0.94057285254E+01 -0.35816040673E+02  0.98317676169E+02  0.10506008731E+03  0.00000000000E+00 0.  1.
         13    1    4    4    0    0  0.96906967116E+01  0.22785589518E+02 -0.66282822411E+01  0.25632534364E+02  0.00000000000E+00 0. -1.
          1    1    1    2  501    0 -0.25770818200E+02 -0.31928504553E+00 -0.13640183877E+02  0.29159760456E+02  0.00000000000E+00 0. -1.
<scales pt_clust_5="13000.00000" pt_clust_6="13000.00000" pt_clust_7="13000.00000" pt_clust_8="13000.00000" pt_clust_9="25.77280"></scales>
<clustering>
<clus scale="   25.773">  2  9  1 -1</clus>
<clus scale="   92.216">  7  8 -1 -1</clus>
<clus scale="   94.445">  2  7  1 -1</clus>
<clus scale="   98.137">  5  6 -1 -1</clus>
<clus scale="   25.773">  2  5  1 -1</clus>
</clustering>
</event>
<event>
 9    1  0.1601012E-005  0.1311528E+03  0.7546771E-02  0.1227094E+00
         21   -1    0    0  501  502  0.00000000000E+00  0.00000000000E+00  0.15224379392E+03  0.15224379392E+03  0.00000000000E+00 0.  1.
          2   -1    0    0  502    0 -0.00000000000E+00 -0.00000000000E+00 -0.32752503440E+03  0.32752503440E+03  0.00000000000E+00 0.  1.
         23    2    1    2    0    0 -0.13598564869E+02 -0.75786273722E+02 -0.16086636101E+03  0.20107410305E+03  0.92867263131E+02 0.  0.
         23    2    1    2    0    0  0.83297138168E+02  0.12120564918E+03 -0.62874777397E+02  0.18241818350E+03  0.87715069495E+02 0.  0.
        -11    1    4    4    0    0  0.27518667681E+02  0.11082601351E+03 -0.47155661241E+02  0.12354488548E+03  0.00000000000E+00 0.  1.
         11    1    4    4    0    0  0.55778470488E+02  0.10379635674E+02 -0.15719116156E+02  0.58873298017E+02  0.00000000000E+00 0. -1.
        -13    1    3    3    0    0  0.18685659607E+01 -0.48917947488E+02 -0.16281053163E+03  0.17001095945E+03  0.00000000000E+00 0.  1.
         13    1    3    3    0    0 -0.15467130830E+02 -0.26868326235E+02  0.19441706171E+01  0.31063143597E+02  0.00000000000E+00 0. -1.
          2    1    1    2  501    0 -0.69698573299E+02 -0.45419375459E+02  0.48459897930E+02  0.96276541766E+02  0.00000000000E+00 0.  1.
<scales pt_clust_5="13000.00000" pt_clust_6="13000.00000" pt_clust_7="13000.00000" pt_clust_8="13000.00000" pt_clust_9="83.19141"></scales>
<clustering>
<clus scale="   83.191">  1  9  2 -1</clus>
<clus scale="   87.715">  5  6 -1 -1</clus>
<clus scale="   92.867">  7  8 -1 -1</clus>
<clus scale="  127.556">  1  5  2 -1</clus>
<clus scale="   83.191">  1  5  2 -1</clus>
</clustering>
</event>
<event>
 9    1  0.1601012E-005  0.1606038E+03  0.7546771E-02  0.1188345E+00
         21   -1    0    0  501  502  0.00000000000E+00  0.00000000000E+00  0.96797344785E+02  0.96797344785E+02  0.00000000000E+00 0. -1.
          1   -1    0    0  502    0 -0.00000000000E+00 -0.00000000000E+00 -0.68311752744E+03  0.68311752744E+03  0.00000000000E+00 0. -1.
         23    2    1    2    0    0 -0.13577635890E+03  0.69431325357E+02 -0.51255437260E+03  0.54289685980E+03  0.93643403081E+02 0.  0.
         23    2    1    2    0    0  0.64153503628E+02  0.82544546805E+01 -0.77608724036E+01  0.11243243697E+03  0.91635220806E+02 0.  0.
        -11    1    3    3    0    0 -0.82833830100E+02 -0.90069538805E+01 -0.21157142456E+03  0.22738741460E+03  0.00000000000E+00 0.  1.
         11    1    3    3    0    0 -0.52942528798E+02  0.78438279237E+02 -0.30098294803E+03  0.31550944520E+03  0.00000000000E+00 0. -1.
        -13    1    4    4    0    0  0.53437176351E+02  0.34762320896E+02  0.25421462024E+02  0.68630907774E+02  0.00000000000E+00 0. -1.
         13    1    4    4    0    0  0.10716327277E+02 -0.26507866215E+02 -0.33182334428E+02  0.43801529193E+02  0.00000000000E+00 0.  1.
          1    1    1    2  501    0  0.71622855269E+02 -0.77685780037E+02 -0.66004937658E+02  0.12458557546E+03  0.00000000000E+00 0. -1.
<scales pt_clust_5="13000.00000" pt_clust_6="13000.00000" pt_clust_7="13000.00000" pt_clust_8="13000.00000" pt_clust_9="105.66416"></scales>
<clustering>
<clus scale="   91.635">  7  8 -1 -1</clus>
<clus scale="   93.643">  5  6 -1 -1</clus>
<clus scale="  105.664">  1  9  2 -1</clus>
<clus scale="  159.441">  1  7  2 -1</clus>
<clus scale="  105.664">  1  5  2 -1</clus>
</clustering>
</event>
<event>
 9    1  0.1601012E-005  0.1259112E+03  0.7546771E-02  0.1245975E+00
         -3   -1    0    0    0  501 -0.00000000000E+00  0.00000000000E+00  0.20507300780E+03  0.20507300780E+03  0.00000000000E+00 0.  1.
         21   -1    0    0  501  502  0.00000000000E+00 -0.00000000000E+00 -0.13206477276E+03  0.13206477276E+03  0.00000000000E+00 0. -1.
         23    2    1    2    0    0 -0.18653641580E+02 -0.22812779561E+02  0.55498189338E+02  0.10941860225E+03  0.89576784064E+02 0.  0.
         23    2    1    2    0    0  0.45366014175E+02  0.30410156126E+02  0.83831653383E+02  0.15581767189E+03  0.11945102732E+03 0.  0.
        -11    1    3    3    0    0  0.18441004424E+02 -0.36675687721E+02  0.56460345201E+02  0.69806498940E+02  0.00000000000E+00 0.  1.
         11    1    3    3    0    0 -0.37094646004E+02  0.13862908160E+02 -0.96215586286E+00  0.39612103311E+02  0.00000000000E+00 0. -1.
        -13    1    4    4    0    0 -0.36505906774E+02  0.32337065902E+02  0.23729288503E+02  0.54235101119E+02  0.00000000000E+00 0. -1.
         13    1    4    4    0    0  0.81871920949E+02 -0.19269097762E+01  0.60102364880E+02  0.10158257078E+03  0.00000000000E+00 0.  1.
         -3    1    1    2    0  502 -0.26712372595E+02 -0.75973765648E+01 -0.66321607682E+02  0.71901506422E+02  0.00000000000E+00 0.  1.
<scales pt_clust_5="13000.00000" pt_clust_6="13000.00000" pt_clust_7="13000.00000" pt_clust_8="13000.00000" pt_clust_9="27.77177"></scales>
<clustering>
<clus scale="   27.772">  2  9  1 -1</clus>
<clus scale="   89.577">  5  6 -1 -1</clus>
<clus scale="   98.026">  1  5  2 -1</clus>
<clus scale="  119.451">  7  8 -1 -1</clus>
<clus scale="   27.772">  2  5  1 -1</clus>
</clustering>
</event>
<event>
 9    1  0.1601012E-005  0.1245463E+03  0.7546771E-02  0.1242283E+00
          1   -1    0    0  502    0 -0.00000000000E+00  0.00000000000E+00  0.12596624045E+03  0.12596624045E+03  0.00000000000E+00 0. -1.
         21   -1    0    0  501  502  0.00000000000E+00 -0.00000000000E+00 -0.22104304339E+03  0.22104304339E+03  0.00000000000E+00 0.  1.
         23    2    1    2    0    0  0.67222122420E+02  0.51199427033E+02  0.10596991450E+02  0.14119754109E+03  0.11262439484E+03 0.  0.
         23    2    1    2    0    0 -0.27285813939E+02  0.89997216511E+01 -0.37105974346E+02  0.10621057718E+03  0.95280232689E+02 0.  0.
        -11    1    3    3    0    0  0.82472338269E+02  0.75580110002E+02  0.11268816723E+02  0.11243231670E+03  0.00000000000E+00 0.  1.
         11    1    3    3    0    0 -0.15250215849E+02 -0.24380682969E+02 -0.67182527271E+00  0.28765224398E+02  0.00000000000E+00 0. -1.
        -13    1    4    4    0    0 -0.79149851419E+01  0.20211575119E+02 -0.66105827709E+02  0.69578266834E+02  0.00000000000E+00 0.  1.
         13    1    4    4    0    0 -0.19370828797E+02 -0.11211853468E+02  0.28999853363E+02  0.36632310349E+02  0.00000000000E+00 0. -1.
          1    1    1    2  501    0 -0.39936308481E+02 -0.60199148684E+02 -0.68567820040E+02  0.99601165568E+02  0.00000000000E+00 0. -1.
<scales pt_clust_5="13000.00000" pt_clust_6="13000.00000" pt_clust_7="13000.00000" pt_clust_8="13000.00000" pt_clust_9="72.24158"></scales>
<clustering>
<clus scale="   72.242">  2  9  1 -1</clus>
<clus scale="   95.280">  7  8 -1 -1</clus>
<clus scale="  109.114">  2  7  1 -1</clus>
<clus scale="  112.624">  5  6 -1 -1</clus>
<clus scale="   72.242">  2  5  1 -1</clus>
</clustering>
</event>
<event>
 9    1  0.1601012E-005  0.1901439E+03  0.7546771E-02  0.1158605E+00
          2   -1    0    0  502    0 -0.00000000000E+00  0.00000000000E+00  0.65685728503E+03  0.65685728503E+03  0.00000000000E+00 0. -1.
         21   -1    0    0  501  502  0.00000000000E+00 -0.00000000000E+00 -0.12642667242E+03  0.12642667242E+03  0.00000000000E+00 0. -1.
         23    2    1    2    0    0  0.13143196701E+03 -0.11892452278E+00  0.24243800377E+03  0.28987421353E+03  0.89311241760E+02 0.  0.
         23    2    1    2    0    0 -0.24590352141E+03  0.21644521407E+02  0.26701219455E+03  0.37505744833E+03  0.91845252225E+02 0.  0.
        -11    1    4    4    0    0 -0.40969767890E+02 -0.94708113843E+01  0.71552302842E+01  0.42654606664E+02  0.00000000000E+00 0.  1.
         11    1    4    4    0    0 -0.20493375352E+03  0.31115332792E+02  0.25985696427E+03  0.33240284166E+03  0.00000000000E+00 0. -1.
        -13    1    3    3    0    0  0.51934902957E+02  0.30360156343E+02  0.45840236301E+02  0.75632668222E+02  0.00000000000E+00 0.  1.
         13    1    3    3    0    0  0.79497064050E+02 -0.30479080866E+02  0.19659776747E+03  0.21424154531E+03  0.00000000000E+00 0. -1.
          2    1    1    2  501    0  0.11447155441E+03 -0.21525596885E+02  0.20980414290E+02  0.11835229560E+03  0.00000000000E+00 0. -1.
<scales pt_clust_5="13000.00000" pt_clust_6="13000.00000" pt_clust_7="13000.00000" pt_clust_8="13000.00000" pt_clust_9="116.47784"></scales>
<clustering>
<clus scale="   89.311">  7  8 -1 -1</clus>
<clus scale="   91.845">  5  6 -1 -1</clus>
<clus scale="  116.478">  2  9  1 -1</clus>
<clus scale="  188.933">  1  7  2 -1</clus>
<clus scale="  116.478">  2  5  1 -1</clus>
</clustering>
</event>
<event>
 9    1  0.1601012E-005  0.1032332E+03  0.7546771E-02  0.1274165E+00
         21   -1    0    0  501  502  0.00000000000E+00  0.00000000000E+00  0.15253542492E+03  0.15253542492E+03  0.00000000000E+00 0.  1.
          1   -1    0    0  502    0 -0.00000000000E+00 -0.00000000000E+00 -0.19854739351E+03  0.19854739351E+03  0.00000000000E+00 0. -1.
         23    2    1    2    0    0 -0.38404499725E+02 -0.62917195135E+02 -0.74751358965E+02  0.13832128739E+03  0.90064054072E+02 0.  0.
         23    2    1    2    0    0 -0.37435053116E+02  0.35993617560E+02 -0.36446599195E+02  0.10919643055E+03  0.88873967756E+02 0.  0.
        -11    1    4    4    0    0 -0.12596832084E+02  0.49281108521E+02  0.12810125859E+02  0.52453857438E+02  0.00000000000E+00 0. -1.
         11    1    4    4    0    0 -0.24838221032E+02 -0.13287490961E+02 -0.49256725054E+02  0.56742573110E+02  0.00000000000E+00 0.  1.
        -13    1    3    3    0    0  0.23528431511E+02 -0.77788077218E+01 -0.42801630010E+02  0.49457825169E+02  0.00000000000E+00 0. -1.
         13    1    3    3    0    0 -0.61932931236E+02 -0.55138387414E+02 -0.31949728955E+02  0.88863462224E+02  0.00000000000E+00 0.  1.
          1    1    1    2  501    0  0.75839552842E+02  0.26923577575E+02  0.65185989565E+02  0.10356510049E+03  0.00000000000E+00 0. -1.
<scales pt_clust_5="13000.00000" pt_clust_6="13000.00000" pt_clust_7="13000.00000" pt_clust_8="13000.00000" pt_clust_9="80.47681"></scales>
<clustering>
<clus scale="   80.477">  1  9  2 -1</clus>
<clus scale="   88.874">  5  6 -1 -1</clus>
<clus scale="   90.064">  7  8 -1 -1</clus>
<clus scale="  102.197">  1  5  2 -1</clus>
<clus scale="   80.477">  1  5  2 -1</clus>
</clustering>
</event>
<event>
 9    1  0.1601012E-005  0.1026235E+03  0.7546771E-02  0.1276213E+00
         -3   -1    0    0    0  501 -0.00000000000E+00  0.00000000000E+00  0.50453068292E+02  0.50453068292E+02  0.00000000000E+00 0.  1.
         21   -1    0    0  501  502  0.00000000000E+00 -0.00000000000E+00 -0.43090425978E+03  0.43090425978E+03  0.00000000000E+00 0.  1.
         23    2    1    2    0    0 -0.36270021569E+02 -0.39140866618E+02 -0.50282136723E+02  0.11895431865E+03  0.93671312305E+02 0.  0.
         23    2    1    2    0    0  0.17955228274E+02  0.13276765891E+02 -0.13232649429E+03  0.16203818692E+03  0.90815253092E+02 0.  0.
        -11    1    4    4    0    0 -0.83357940648E+01 -0.28813635565E+02 -0.95889317541E+02  0.10047125099E+03  0.00000000000E+00 0.  1.
         11    1    4    4    0    0  0.26291022339E+02  0.42090401456E+02 -0.36437176754E+02  0.61566935933E+02  0.00000000000E+00 0. -1.
        -13    1    3    3    0    0  0.65609189331E+01  0.24740927145E+02 -0.29956492273E+02  0.39402418232E+02  0.00000000000E+00 0. -1.
         13    1    3    3    0    0 -0.42830940502E+02 -0.63881793762E+02 -0.20325644450E+02  0.79551900423E+02  0.00000000000E+00 0.  1.
         -3    1    1    2    0  502  0.18314793295E+02  0.25864100727E+02 -0.19784256047E+03  0.20036482249E+03  0.00000000000E+00 0.  1.
<scales pt_clust_5="13000.00000" pt_clust_6="13000.00000" pt_clust_7="13000.00000" pt_clust_8="13000.00000" pt_clust_9="31.69201"></scales>
<clustering>
<clus scale="   31.692">  2  9  1 -1</clus>
<clus scale="   90.815">  5  6 -1 -1</clus>
<clus scale="   93.671">  7  8 -1 -1</clus>
<clus scale="  100.023">  2  5  1 -1</clus>
<clus scale="   31.692">  2  5  1 -1</clus>
</clustering>
</event>
<event>
 9    1  0.1601012E-005  0.1982148E+03  0.7546771E-02  0.1151679E+00
          1   -1    0    0  502    0 -0.00000000000E+00  0.00000000000E+00  0.20497013156E+04  0.20497013156E+04  0.00000000000E+00 0. -1.
         21   -1    0    0  501  502  0.00000000000E+00 -0.00000000000E+00 -0.22529099678E+02  0.22529099678E+02  0.00000000000E+00 0.  1.
         23    2    1    2    0    0  0.13513877443E+03  0.97868901852E+02  0.10862571450E+04  0.11028615556E+04  0.92239988688E+02 0.  0.
         23    2    1    2    0    0 -0.15628512466E+03 -0.10422896626E+03  0.89043211650E+03  0.91426761434E+03  0.87904487643E+02 0.  0.
        -11    1    4    4    0    0 -0.47326784180E+02  0.99327102326E+01  0.16938829544E+03  0.17615583404E+03  0.00000000000E+00 0. -1.
         11    1    4    4    0    0 -0.10895834048E+03 -0.11416167649E+03  0.72104382106E+03  0.73811178031E+03  0.00000000000E+00 0.  1.
        -11    1    3    3    0    0  0.10871601591E+03  0.11563511855E+03  0.91759795144E+03  0.93122320270E+03  0.00000000000E+00 0. -1.
         11    1    3    3    0    0  0.26422758522E+02 -0.17766216700E+02  0.16865919351E+03  0.17163835288E+03  0.00000000000E+00 0.  1.
          1    1    1    2  501    0  0.21146350228E+02  0.63600644098E+01  0.50482954458E+02  0.55101245340E+02  0.00000000000E+00 0. -1.
<scales pt_clust_5="13000.00000" pt_clust_6="13000.00000" pt_clust_7="13000.00000" pt_clust_8="13000.00000" pt_clust_9="22.08209"></scales>
<clustering>
<clus scale="   22.082">  2  9  1 -1</clus>
<clus scale="   87.904">  5  6 -1 -1</clus>
<clus scale="   92.240">  7  8 -1 -1</clus>
<clus scale="  196.235">  2  5  1 -1</clus>
<clus scale="   22.082">  2  5  1 -1</clus>
</clustering>
</event>
<event>
 9    1  0.1601012E-005  0.1353940E+03  0.7546771E-02  0.1224618E+00
         -3   -1    0    0    0  501 -0.00000000000E+00  0.00000000000E+00  0.48651301373E+02  0.48651301373E+02  0.00000000000E+00 0.  1.
         21   -1    0    0  501  502  0.00000000000E+00 -0.00000000000E+00 -0.77595104088E+03  0.77595104088E+03  0.00000000000E+00 0.  1.
         23    2    1    2    0    0  0.91212899199E+02  0.32882223545E+02 -0.83335169998E+02  0.15592628704E+03  0.89259301060E+02 0.  0.
         23    2    1    2    0    0 -0.29556151971E+02 -0.78656363374E+01 -0.45430955127E+03  0.46768747331E+03  0.10676595880E+03 0.  0.
        -13    1    3    3    0    0  0.57542344332E+02  0.63274151646E+02 -0.45597496657E+02  0.96921985943E+02  0.00000000000E+00 0.  1.
         13    1    3    3    0    0  0.33670554867E+02 -0.30391928100E+02 -0.37737673341E+02  0.59004301097E+02  0.00000000000E+00 0. -1.
        -13    1    4    4    0    0 -0.36645802028E+02 -0.53351639988E+02 -0.28221675594E+03  0.28954379570E+03  0.00000000000E+00 0. -1.
         13    1    4    4    0    0  0.70896500567E+01  0.45486003650E+02 -0.17209279533E+03  0.17814367760E+03  0.00000000000E+00 0.  1.
         -3    1    1    2    0  502 -0.61656747228E+02 -0.25016587208E+02 -0.18965501824E+03  0.20098858191E+03  0.00000000000E+00 0.  1.
<scales pt_clust_5="13000.00000" pt_clust_6="13000.00000" pt_clust_7="13000.00000" pt_clust_8="13000.00000" pt_clust_9="66.53859"></scales>
<clustering>
<clus scale="   66.539">  2  9  1 -1</clus>
<clus scale="   89.259">  5  6 -1 -1</clus>
<clus scale="  106.766">  7  8 -1 -1</clus>
<clus scale="  122.065">  1  5  2 -1</clus>
<clus scale="   66.539">  2  5  1 -1</clus>
</clustering>
</event>
<event>
 9    1  0.1601012E-005  0.1614425E+03  0.7546771E-02  0.1189403E+00
         21   -1    0    0  501  502  0.00000000000E+00  0.00000000000E+00  0.35430289200E+03  0.35430289200E+03  0.00000000000E+00 0. -1.
         -1   -1    0    0    0  501 -0.00000000000E+00 -0.00000000000E+00 -0.14631012509E+03  0.14631012509E+03  0.00000000000E+00 0.  1.
         23    2    1    2    0    0  0.22483380899E+02  0.11679597880E+03 -0.24257398203E+02  0.15977961735E+03  0.10389562875E+03 0.  0.
         23    2    1    2    0    0  0.41956269637E+02 -0.13995967489E+03  0.12142556752E+03  0.21056016070E+03  0.90787519354E+02 0.  0.
        -11    1    4    4    0    0 -0.24212087958E+02 -0.67080731210E+02  0.34436625493E+02  0.79195523095E+02  0.00000000000E+00 0.  1.
         11    1    4    4    0    0  0.66168357595E+02 -0.72878943675E+02  0.86988942022E+02  0.13136463760E+03  0.00000000000E+00 0. -1.
        -13    1    3    3    0    0  0.36845510326E+02 -0.32500703015E+01 -0.71472316459E+01  0.37672768791E+02  0.00000000000E+00 0. -1.
         13    1    3    3    0    0 -0.14362129427E+02  0.12004604910E+03 -0.17110166558E+02  0.12210684856E+03  0.00000000000E+00 0.  1.
         -1    1    1    2    0  502 -0.64439650536E+02  0.23163696087E+02  0.11082459760E+03  0.13027323904E+03  0.00000000000E+00 0.  1.
<scales pt_clust_5="13000.00000" pt_clust_6="13000.00000" pt_clust_7="13000.00000" pt_clust_8="13000.00000" pt_clust_9="68.47646"></scales>
<clustering>
<clus scale="   68.476">  1  9  2 -1</clus>
<clus scale="   90.788">  5  6 -1 -1</clus>
<clus scale="  103.896">  7  8 -1 -1</clus>
<clus scale="  153.335">  1  5  2 -1</clus>
<clus scale="   68.476">  1  5  2 -1</clus>
</clustering>
</event>
<event>
 9    1  0.1601012E-005  0.1143947E+03  0.7546771E-02  0.1254337E+00
         21   -1    0    0  501  502  0.00000000000E+00  0.00000000000E+00  0.34499333498E+02  0.34499333498E+02  0.00000000000E+00 0. -1.
          1   -1    0    0  502    0 -0.00000000000E+00 -0.00000000000E+00 -0.87870586646E+03  0.87870586646E+03  0.00000000000E+00 0. -1.
         23    2    1    2    0    0 -0.31758698887E+02  0.26588023072E+02 -0.34219773295E+03  0.35695839623E+03  0.92760283959E+02 0.  0.
         23    2    1    2    0    0  0.93402303579E+02 -0.39785860028E+00 -0.45463621072E+03  0.47421009895E+03  0.97247032036E+02 0.  0.
        -13    1    4    4    0    0  0.89987665584E+02  0.24999394348E+02 -0.42449491996E+03  0.43464777320E+03  0.00000000000E+00 0. -1.
         13    1    4    4    0    0  0.34146379956E+01 -0.25397252948E+02 -0.30141290764E+02  0.39562325752E+02  0.00000000000E+00 0.  1.
        -13    1    3    3    0    0  0.18476656908E+02 -0.20378614703E+02 -0.15726513803E+03  0.15965274325E+03  0.00000000000E+00 0.  1.
         13    1    3    3    0    0 -0.50235355795E+02  0.46966637774E+02 -0.18493259492E+03  0.19730565299E+03  0.00000000000E+00 0. -1.
          1    1    1    2  501    0 -0.61643604692E+02 -0.26190164471E+02 -0.47372589292E+02  0.82036704777E+02  0.00000000000E+00 0. -1.
<scales pt_clust_5="13000.00000" pt_clust_6="13000.00000" pt_clust_7="13000.00000" pt_clust_8="13000.00000" pt_clust_9="66.97655"></scales>
<clustering>
<clus scale="   66.977">  1  9  2 -1</clus>
<clus scale="   92.760">  7  8 -1 -1</clus>
<clus scale="   97.247">  5  6 -1 -1</clus>
<clus scale="  110.606">  2  7  1 -1</clus>
<clus scale="   66.977">  1  5  2 -1</clus>
</clustering>
</event>
<event>
 9    1  0.1601012E-005  0.9146680E+02  0.7546771E-02  0.1299702E+00
         21   -1    0    0  501  502  0.00000000000E+00  0.00000000000E+00  0.37293249075E+03  0.37293249075E+03  0.00000000000E+00 0.  1.
          1   -1    0    0  502    0 -0.00000000000E+00 -0.00000000000E+00 -0.37066044977E+02  0.37066044977E+02  0.00000000000E+00 0. -1.
         23    2    1    2    0    0  0.88360142530E+01 -0.63790339526E+01  0.76980460841E+02  0.11947361243E+03  0.90714858173E+02 0.  0.
         23    2    1    2    0    0 -0.13238595679E+02 -0.24256268133E+02  0.14847130297E+03  0.17585449795E+03  0.90096890535E+02 0.  0.
        -11    1    3    3    0    0 -0.25619932377E+02  0.28677566773E+02  0.51006669731E+02  0.63878510691E+02  0.00000000000E+00 0. -1.
         11    1    3    3    0    0  0.34455946630E+02 -0.35056600726E+02  0.25973791110E+02  0.55595101738E+02  0.00000000000E+00 0.  1.
        -11    1    4    4    0    0  0.34279821790E+02 -0.20212031768E+02  0.35888777260E+02  0.53587654767E+02  0.00000000000E+00 0. -1.
         11    1    4    4    0    0 -0.47518417469E+02 -0.40442363649E+01  0.11258252571E+03  0.12226684318E+03  0.00000000000E+00 0.  1.
          1    1    1    2  501    0  0.44025814256E+01  0.30635302086E+02  0.11041468196E+03  0.11467042535E+03  0.00000000000E+00 0. -1.
<scales pt_clust_5="13000.00000" pt_clust_6="13000.00000" pt_clust_7="13000.00000" pt_clust_8="13000.00000" pt_clust_9="30.95003"></scales>
<clustering>
<clus scale="   30.950">  1  9  2 -1</clus>
<clus scale="   90.097">  7  8 -1 -1</clus>
<clus scale="   90.715">  5  6 -1 -1</clus>
<clus scale="   90.854">  1  7  2 -1</clus>
<clus scale="   30.950">  1  5  2 -1</clus>
</clustering>
</event>
<event>
 9    1  0.1601012E-005  0.9407958E+02  0.7546771E-02  0.1295744E+00
         -1   -1    0    0    0  501 -0.00000000000E+00  0.00000000000E+00  0.13588258222E+03  0.13588258222E+03  0.00000000000E+00 0.  1.
         21   -1    0    0  501  502  0.00000000000E+00 -0.00000000000E+00 -0.22688447277E+03  0.22688447277E+03  0.00000000000E+00 0.  1.
         23    2    1    2    0    0 -0.26361579017E+02  0.19671403408E+01  0.88076808092E+02  0.12957284961E+03  0.91284153843E+02 0.  0.
         23    2    1    2    0    0 -0.61556684085E+01 -0.40329682177E+02 -0.93980484700E+02  0.13434704046E+03  0.86904661886E+02 0.  0.
        -11    1    4    4    0    0 -0.34616572522E+02 -0.39710044716E+02 -0.22272410754E+02  0.57194886356E+02  0.00000000000E+00 0.  1.
         11    1    4    4    0    0  0.28460904113E+02 -0.61963746079E+00 -0.71708073947E+02  0.77152154102E+02  0.00000000000E+00 0. -1.
        -13    1    3    3    0    0 -0.39115309389E+02  0.19248875379E+02  0.96975672483E+02  0.10632406917E+03  0.00000000000E+00 0.  1.
         13    1    3    3    0    0  0.12753730372E+02 -0.17281735038E+02 -0.88988643913E+01  0.23248780436E+02  0.00000000000E+00 0. -1.
         -1    1    1    2    0  502  0.32517247426E+02  0.38362541836E+02 -0.85098213941E+02  0.98847164918E+02  0.00000000000E+00 0.  1.
<scales pt_clust_5="13000.00000" pt_clust_6="13000.00000" pt_clust_7="13000.00000" pt_clust_8="13000.00000" pt_clust_9="50.28972"></scales>
<clustering>
<clus scale="   50.290">  2  9  1 -1</clus>
<clus scale="   86.905">  5  6 -1 -1</clus>
<clus scale="   89.836">  2  5  1 -1</clus>
<clus scale="   91.284">  7  8 -1 -1</clus>
<clus scale="   50.290">  2  5  1 -1</clus>
</clustering>
</event>
<event>
 9    1  0.1601012E-005  0.9484785E+02  0.7546771E-02  0.1292168E+00
         21   -1    0    0  501  502  0.00000000000E+00  0.00000000000E+00  0.80749149790E+03  0.80749149790E+03  0.00000000000E+00 0. -1.
         -1   -1    0    0    0  501 -0.00000000000E+00 -0.00000000000E+00 -0.71688467217E+02  0.71688467217E+02  0.00000000000E+00 0.  1.
         23    2    1    2    0    0 -0.15998186849E+01  0.34971539605E+02 -0.19216055039E+02  0.97446068735E+02  0.88887071830E+02 0.  0.
         23    2    1    2    0    0  0.58943364982E+02  0.33589588614E+02  0.39486223499E+03  0.41065187346E+03  0.90089931836E+02 0.  0.
        -11    1    4    4    0    0  0.65964880788E+01  0.54057255612E+02  0.23398599418E+03  0.24023976776E+03  0.00000000000E+00 0. -1.
         11    1    4    4    0    0  0.52346876904E+02 -0.20467666998E+02  0.16087624080E+03  0.17041210570E+03  0.00000000000E+00 0.  1.
        -13    1    3    3    0    0  0.39445594261E+02  0.26952583461E+02  0.67056917421E+01  0.48242750374E+02  0.00000000000E+00 0.  1.
         13    1    3    3    0    0 -0.41045412946E+02  0.80189561433E+01 -0.25921746781E+02  0.49203318361E+02  0.00000000000E+00 0. -1.
         -1    1    1    2    0  502 -0.57343546297E+02 -0.68561128219E+02  0.36015685073E+03  0.37108202292E+03  0.00000000000E+00 0.  1.
<scales pt_clust_5="13000.00000" pt_clust_6="13000.00000" pt_clust_7="13000.00000" pt_clust_8="13000.00000" pt_clust_9="89.38071"></scales>
<clustering>
<clus scale="   88.887">  7  8 -1 -1</clus>
<clus scale="   89.381">  1  9  2 -1</clus>
<clus scale="   90.090">  5  6 -1 -1</clus>
<clus scale="   93.706">  2  7  1 -1</clus>
<clus scale="   89.381">  1  5  2 -1</clus>
</clustering>
</event>
<event>
 9    1  0.1601012E-005  0.1147212E+03  0.7546771E-02  0.1253662E+00
          1   -1    0    0  502    0 -0.00000000000E+00  0.00000000000E+00  0.46046728247E+03  0.46046728247E+03  0.00000000000E+00 0. -1.
         21   -1    0    0  501  502  0.00000000000E+00 -0.00000000000E+00 -0.84330827433E+02  0.84330827433E+02  0.00000000000E+00 0.  1.
         23    2    1    2    0    0 -0.44468990232E+02 -0.58732909383E+02  0.38253910397E+03  0.40031591870E+03  0.92139150022E+02 0.  0.
         23    2    1    2    0    0  0.16235288242E+02  0.43306850276E+02  0.22061742507E+02  0.10152492398E+03  0.87644291548E+02 0.  0.
        -11    1    3    3    0    0 -0.27504605085E+02  0.15599892638E+02  0.50088255376E+02  0.59234223873E+02  0.00000000000E+00 0.  1.
         11    1    3    3    0    0 -0.16964385147E+02 -0.74332802021E+02  0.33245084859E+03  0.34108169483E+03  0.00000000000E+00 0. -1.
        -13    1    4    4    0    0  0.26309413559E+01  0.65593193950E+02 -0.24778206016E+01  0.65692682544E+02  0.00000000000E+00 0.  1.
         13    1    4    4    0    0  0.13604346886E+02 -0.22286343674E+02  0.24539563108E+02  0.35832241433E+02  0.00000000000E+00 0. -1.
          1    1    1    2  501    0  0.28233701990E+02  0.15426059107E+02 -0.28464391435E+02  0.42957267225E+02  0.00000000000E+00 0. -1.
<scales pt_clust_5="13000.00000" pt_clust_6="13000.00000" pt_clust_7="13000.00000" pt_clust_8="13000.00000" pt_clust_9="32.17305"></scales>
<clustering>
<clus scale="   32.173">  2  9  1 -1</clus>
<clus scale="   87.644">  7  8 -1 -1</clus>
<clus scale="   92.139">  5  6 -1 -1</clus>
<clus scale="  111.143">  2  7  1 -1</clus>
<clus scale="   32.173">  2  5  1 -1</clus>
</clustering>
</event>
<event>
 9    1  0.1601012E-005  0.2537550E+03  0.7546771E-02  0.1111058E+00
          2   -1    0    0  502    0 -0.00000000000E+00  0.00000000000E+00  0.72620174941E+03  0.72620174941E+03  0.00000000000E+00 0. -1.
         21   -1    0    0  501  502  0.00000000000E+00 -0.00000000000E+00 -0.16456979607E+03  0.16456979607E+03  0.00000000000E+00 0.  1.
         23    2    1    2    0    0  0.23367513566E+03 -0.53251685769E+02  0.50605070697E+03  0.56721470510E+03  0.90583622094E+02 0.  0.
         23    2    1    2    0    0 -0.22668907608E+03  0.27274992836E+02  0.10462317730E+03  0.26762201586E+03  0.92431984166E+02 0.  0.
        -13    1    3    3    0    0  0.21530306310E+03 -0.39517865174E+02  0.49603004439E+03  0.54218343352E+03  0.00000000000E+00 0. -1.
         13    1    3    3    0    0  0.18372072558E+02 -0.13733820595E+02  0.10020662583E+02  0.25031271578E+02  0.00000000000E+00 0.  1.
        -13    1    4    4    0    0 -0.11878759533E+03  0.29320052246E+02  0.77460172692E+01  0.12259754913E+03  0.00000000000E+00 0.  1.
         13    1    4    4    0    0 -0.10790148075E+03 -0.20450594096E+01  0.96877160035E+02  0.14502446674E+03  0.00000000000E+00 0. -1.
          2    1    1    2  501    0 -0.69860595794E+01  0.25976692933E+02 -0.49041930937E+02  0.55934824522E+02  0.00000000000E+00 0. -1.
<scales pt_clust_5="13000.00000" pt_clust_6="13000.00000" pt_clust_7="13000.00000" pt_clust_8="13000.00000" pt_clust_9="26.89970"></scales>
<clustering>
<clus scale="   26.900">  2  9  1 -1</clus>
<clus scale="   90.584">  5  6 -1 -1</clus>
<clus scale="   92.432">  7  8 -1 -1</clus>
<clus scale="  253.088">  1  5  2 -1</clus>
<clus scale="   26.900">  2  5  1 -1</clus>
</clustering>
</event>
<event>
 9    1  0.1601012E-005  0.9628368E+02  0.7546771E-02  0.1288390E+00
         -2   -1    0    0    0  501 -0.00000000000E+00  0.00000000000E+00  0.31085503854E+03  0.31085503854E+03  0.00000000000E+00 0.  1.
         21   -1    0    0  501  502  0.00000000000E+00 -0.00000000000E+00 -0.64376516550E+02  0.64376516550E+02  0.00000000000E+00 0.  1.
         23    2    1    2    0    0  0.52724995424E+02  0.23601460269E+01  0.15807393057E+03  0.18955140171E+03  0.90315396977E+02 0.  0.
         23    2    1    2    0    0 -0.11752034779E+02  0.37313872896E+01  0.10666847755E+03  0.14040919339E+03  0.90468469163E+02 0.  0.
        -11    1    3    3    0    0  0.44522666248E+02 -0.30499463812E+02  0.41276950919E+02  0.67943151088E+02  0.00000000000E+00 0.  1.
         11    1    3    3    0    0  0.82023291763E+01  0.32859609839E+02  0.11679697965E+03  0.12160825062E+03  0.00000000000E+00 0. -1.
        -13    1    4    4    0    0 -0.38057724821E+01 -0.36420992430E+02  0.88208950731E+02  0.95508070773E+02  0.00000000000E+00 0.  1.
         13    1    4    4    0    0 -0.79462622968E+01  0.40152379720E+02  0.18459526817E+02  0.44901122614E+02  0.00000000000E+00 0. -1.
         -2    1    1    2    0  502 -0.40972960645E+02 -0.60915333164E+01 -0.18263886130E+02  0.45270959994E+02  0.00000000000E+00 0.  1.
<scales pt_clust_5="13000.00000" pt_clust_6="13000.00000" pt_clust_7="13000.00000" pt_clust_8="13000.00000" pt_clust_9="41.42331"></scales>
<clustering>
<clus scale="   41.423">  2  9  1 -1</clus>
<clus scale="   90.315">  5  6 -1 -1</clus>
<clus scale="   90.468">  7  8 -1 -1</clus>
<clus scale="   96.140">  1  5  2 -1</clus>
<clus scale="   41.423">  2  5  1 -1</clus>
</clustering>
</event>
<event>
 9    1  0.1601012E-005  0.9201088E+02  0.7546771E-02  0.1300146E+00
         21   -1    0    0  501  502  0.00000000000E+00  0.00000000000E+00  0.19228048019E+03  0.19228048019E+03  0.00000000000E+00 0. -1.
         -3   -1    0    0    0  501 -0.00000000000E+00 -0.00000000000E+00 -0.10741053674E+03  0.10741053674E+03  0.00000000000E+00 0.  1.
         23    2    1    2    0    0  0.11656937631E+02 -0.72859087968E+01 -0.16796902394E+02  0.93551885900E+02  0.90999180015E+02 0.  0.
         23    2    1    2    0    0  0.21046934524E+02 -0.49123252664E+02  0.25032099833E+02  0.10551894893E+03  0.87473282529E+02 0.  0.
        -11    1    3    3    0    0  0.48803453921E+02  0.96138192984E+01 -0.17516395994E+02  0.52735441258E+02  0.00000000000E+00 0.  1.
         11    1    3    3    0    0 -0.37146516290E+02 -0.16899728095E+02  0.71949359933E+00  0.40816444642E+02  0.00000000000E+00 0. -1.
        -13    1    4    4    0    0  0.50194489585E+02 -0.49997699104E+02  0.69029245962E+01  0.71182210336E+02  0.00000000000E+00 0.  1.
         13    1    4    4    0    0 -0.29147555061E+02  0.87444644006E+00  0.18129175237E+02  0.34336738595E+02  0.00000000000E+00 0. -1.
         -3    1    1    2    0  502 -0.32703872155E+02  0.56409161461E+02  0.76634746004E+02  0.10062018210E+03  0.00000000000E+00 0.  1.
<scales pt_clust_5="13000.00000" pt_clust_6="13000.00000" pt_clust_7="13000.00000" pt_clust_8="13000.00000" pt_clust_9="65.20381"></scales>
<clustering>
<clus scale="   65.204">  1  9  2 -1</clus>
<clus scale="   87.473">  7  8 -1 -1</clus>
<clus scale="   88.525">  1  7  2 -1</clus>
<clus scale="   90.999">  5  6 -1 -1</clus>
<clus scale="   65.204">  1  5  2 -1</clus>
</clustering>
</event>
<event>
 9    1  0.1601012E-005  0.3011717E+03  0.7546771E-02  0.1084724E+00
          1   -1    0    0  502    0 -0.00000000000E+00  0.00000000000E+00  0.59342593006E+03  0.59342593006E+03  0.00000000000E+00 0. -1.
         21   -1    0    0  501  502  0.00000000000E+00 -0.00000000000E+00 -0.85884708011E+03  0.85884708011E+03  0.00000000000E+00 0. -1.
         23    2    1    2    0    0 -0.27439515456E+03 -0.67774372139E+02  0.46168300992E+03  0.54896275513E+03  0.91229592281E+02 0.  0.
         23    2    1    2    0    0  0.36396805408E+03 -0.39047204795E+02 -0.62595597646E+03  0.73107463545E+03  0.93015103876E+02 0.  0.
        -11    1    3    3    0    0 -0.12593284427E+03 -0.74247620829E+02  0.26236794028E+03  0.30034767612E+03  0.00000000000E+00 0.  1.
         11    1    3    3    0    0 -0.14846231029E+03  0.64732486902E+01  0.19931506964E+03  0.24861507901E+03  0.00000000000E+00 0. -1.
        -11    1    4    4    0    0  0.89177192308E+02 -0.47545081938E+02 -0.13873653679E+03  0.17164187451E+03  0.00000000000E+00 0.  1.
         11    1    4    4    0    0  0.27479086177E+03  0.84978771429E+01 -0.48721943967E+03  0.55943276095E+03  0.00000000000E+00 0. -1.
          1    1    1    2  501    0 -0.89572899516E+02  0.10682157693E+03 -0.10114818351E+03  0.17223561958E+03  0.00000000000E+00 0. -1.
<scales pt_clust_5="13000.00000" pt_clust_6="13000.00000" pt_clust_7="13000.00000" pt_clust_8="13000.00000" pt_clust_9="139.40643"></scales>
<clustering>
<clus scale="   91.230">  5  6 -1 -1</clus>
<clus scale="   93.015">  7  8 -1 -1</clus>
<clus scale="  139.406">  2  9  1 -1</clus>
<clus scale="  300.625">  1  5  2 -1</clus>
<clus scale="  139.406">  2  5  1 -1</clus>
</clustering>
</event>
<event>
 9    1  0.1601012E-005  0.1065364E+03  0.7546771E-02  0.1267820E+00
         21   -1    0    0  501  502  0.00000000000E+00  0.00000000000E+00  0.17344955957E+03  0.17344955957E+03  0.00000000000E+00 0.  1.
          4   -1    0    0  502    0 -0.00000000000E+00 -0.00000000000E+00 -0.21441808206E+03  0.21441808206E+03  0.00000000000E+00 0. -1.
         23    2    1    2    0    0 -0.57693858091E+02 -0.15427246630E+02 -0.14699690937E+03  0.18337631776E+03  0.91935854541E+02 0.  0.
         23    2    1    2    0    0  0.28076501767E+01  0.31967692453E+02  0.11138411794E+03  0.14691731913E+03  0.90268824461E+02 0.  0.
        -11    1    3    3    0    0 -0.79346880253E+02 -0.24554439308E+02 -0.13040757041E+03  0.15461236146E+03  0.00000000000E+00 0. -1.
         11    1    3    3    0    0  0.21653022161E+02  0.91271926780E+01 -0.16589338961E+02  0.28763956301E+02  0.00000000000E+00 0.  1.
        -13    1    4    4    0    0 -0.40122531635E+02  0.32774774013E+02  0.49949951102E+02  0.71965276151E+02  0.00000000000E+00 0. -1.
         13    1    4    4    0    0  0.42930181811E+02 -0.80708156019E+00  0.61434166840E+02  0.74952042976E+02  0.00000000000E+00 0.  1.
          4    1    1    2  501    0  0.54886207915E+02 -0.16540445823E+02 -0.53557310676E+01  0.57574004747E+02  0.00000000000E+00 0. -1.
<scales pt_clust_5="13000.00000" pt_clust_6="13000.00000" pt_clust_7="13000.00000" pt_clust_8="13000.00000" pt_clust_9="57.32436"></scales>
<clustering>
<clus scale="   57.324">  1  9  2 -1</clus>
<clus scale="   90.269">  7  8 -1 -1</clus>
<clus scale="   91.936">  5  6 -1 -1</clus>
<clus scale="  105.101">  1  7  2 -1</clus>
<clus scale="   57.324">  1  5  2 -1</clus>
</clustering>
</event>
<event>
 9    1  0.1601012E-005  0.1010615E+03  0.7546771E-02  0.1282874E+00
         21   -1    0    0  501  502  0.00000000000E+00  0.00000000000E+00  0.97429383139E+02  0.97429383139E+02  0.00000000000E+00 0.  1.
         -1   -1    0    0    0  501 -0.00000000000E+00 -0.00000000000E+00 -0.41314714375E+03  0.41314714375E+03  0.00000000000E+00 0.  1.
         23    2    1    2    0    0  0.54821468764E+01  0.48883020980E+02 -0.22226091827E+03  0.24490113152E+03  0.90316359278E+02 0.  0.
         23    2    1    2    0    0 -0.20396788869E+02  0.51071907560E+02 -0.11655729988E+03  0.16200734135E+03  0.98165196272E+02 0.  0.
        -11    1    3    3    0    0 -0.39731539034E+02  0.53718161049E+01 -0.86371474928E+02  0.95223333713E+02  0.00000000000E+00 0. -1.
         11    1    3    3    0    0  0.45213685910E+02  0.43511204875E+02 -0.13588944335E+03  0.14967779781E+03  0.00000000000E+00 0.  1.
        -11    1    4    4    0    0 -0.26154168396E+02  0.76244238091E+02 -0.10808278825E+03  0.13482994282E+03  0.00000000000E+00 0.  1.
         11    1    4    4    0    0  0.57573795275E+01 -0.25172330531E+02 -0.84745116306E+01  0.27177398528E+02  0.00000000000E+00 0. -1.
         -1    1    1    2    0  502  0.14914641992E+02 -0.99954928540E+02  0.23100457541E+02  0.10366805402E+03  0.00000000000E+00 0.  1.
<scales pt_clust_5="13000.00000" pt_clust_6="13000.00000" pt_clust_7="13000.00000" pt_clust_8="13000.00000" pt_clust_9="101.06154"></scales>
<clustering>
<clus scale="   90.316">  5  6 -1 -1</clus>
<clus scale="   98.165">  7  8 -1 -1</clus>
<clus scale="  101.062">  1  9  2 -1</clus>
<clus scale="   92.255">  2  5  1 -1</clus>
<clus scale="  101.062">  1  5  2 -1</clus>
</clustering>
</event>
<event>
 9    1  0.1601012E-005  0.9982194E+02  0.7546771E-02  0.1281906E+00
         21   -1    0    0  501  502  0.00000000000E+00  0.00000000000E+00  0.60195100011E+02  0.60195100011E+02  0.00000000000E+00 0. -1.
          3   -1    0    0  502    0 -0.00000000000E+00 -0.00000000000E+00 -0.32691771405E+03  0.32691771405E+03  0.00000000000E+00 0. -1.
         23    2    1    2    0    0 -0.20822483694E+02  0.10627739498E+02 -0.14405261514E+03  0.17153749062E+03  0.90152260576E+02 0.  0.
         23    2    1    2    0    0  0.52692358535E+02 -0.18068899095E+02 -0.14130403526E+03  0.17791517089E+03  0.92649921163E+02 0.  0.
        -13    1    3    3    0    0 -0.65281620055E+01 -0.27694384676E+02 -0.81267913367E+01  0.29591224698E+02  0.00000000000E+00 0.  1.
         13    1    3    3    0    0 -0.14294321688E+02  0.38322124173E+02 -0.13592582380E+03  0.14194626592E+03  0.00000000000E+00 0. -1.
        -13    1    4    4    0    0 -0.22695216936E+02  0.11853678577E+01 -0.65319675970E+02  0.69160234510E+02  0.00000000000E+00 0.  1.
         13    1    4    4    0    0  0.75387575471E+02 -0.19254266953E+02 -0.75984359286E+02  0.10875493638E+03  0.00000000000E+00 0. -1.
          3    1    1    2  501    0 -0.31869874841E+02  0.74411595974E+01  0.18634036359E+02  0.37660152543E+02  0.00000000000E+00 0. -1.
<scales pt_clust_5="13000.00000" pt_clust_6="13000.00000" pt_clust_7="13000.00000" pt_clust_8="13000.00000" pt_clust_9="32.72705"></scales>
<clustering>
<clus scale="   32.727">  1  9  2 -1</clus>
<clus scale="   90.152">  5  6 -1 -1</clus>
<clus scale="   92.650">  7  8 -1 -1</clus>
<clus scale="   97.508">  2  5  1 -1</clus>
<clus scale="   32.727">  1  5  2 -1</clus>
</clustering>
</event>
<event>
 9    1  0.1601012E-005  0.1216755E+03  0.7546771E-02  0.1240753E+00
         21   -1    0    0  501  502  0.00000000000E+00  0.00000000000E+00  0.10283402389E+03  0.10283402389E+03  0.00000000000E+00 0.  1.
         -1   -1    0    0    0  501 -0.00000000000E+00 -0.00000000000E+00 -0.40535736243E+03  0.40535736243E+03  0.00000000000E+00 0.  1.
         23    2    1    2    0    0  0.75732019154E+02 -0.56727489431E+02 -0.21552570312E+03  0.25271421644E+03  0.91977169459E+02 0.  0.
         23    2    1    2    0    0 -0.55327752240E+02  0.33920357803E+02 -0.14913119123E+03  0.18621622765E+03  0.90689692924E+02 0.  0.
        -11    1    3    3    0    0  0.35247653341E+02  0.23040210121E+02 -0.60088734758E+02  0.73375093821E+02  0.00000000000E+00 0.  1.
         11    1    3    3    0    0  0.40484365813E+02 -0.79767699552E+02 -0.15543696836E+03  0.17933912262E+03  0.00000000000E+00 0. -1.
        -13    1    4    4    0    0 -0.10251933634E+02 -0.20875736995E+02 -0.25898547608E+01  0.23400980450E+02  0.00000000000E+00 0.  1.
         13    1    4    4    0    0 -0.45075818606E+02  0.54796094799E+02 -0.14654133646E+03  0.16281524720E+03  0.00000000000E+00 0. -1.
         -1    1    1    2    0  502 -0.20404266914E+02  0.22807131628E+02  0.62133555809E+02  0.69260942232E+02  0.00000000000E+00 0.  1.
<scales pt_clust_5="13000.00000" pt_clust_6="13000.00000" pt_clust_7="13000.00000" pt_clust_8="13000.00000" pt_clust_9="30.60228"></scales>
<clustering>
<clus scale="   30.602">  1  9  2 -1</clus>
<clus scale="   90.690">  7  8 -1 -1</clus>
<clus scale="   91.977">  5  6 -1 -1</clus>
<clus scale="  120.705">  1  7  2 -1</clus>
<clus scale="   30.602">  1  5  2 -1</clus>
</clustering>
</event>
<event>
 9    1  0.1601012E-005  0.2539736E+03  0.7546771E-02  0.1110889E+00
         21   -1    0    0  501  502  0.00000000000E+00  0.00000000000E+00  0.87831155804E+03  0.87831155804E+03  0.00000000000E+00 0.  1.
          4   -1    0    0  502    0 -0.00000000000E+00 -0.00000000000E+00 -0.98392448426E+02  0.98392448426E+02  0.00000000000E+00 0. -1.
         23    2    1    2    0    0 -0.55398847710E+01 -0.22239953157E+03  0.23735586499E+03  0.33750961225E+03  0.89903780517E+02 0.  0.
         23    2    1    2    0    0  0.67177382111E+01  0.25715657446E+03  0.35162735609E+03  0.44511721137E+03  0.91175120042E+02 0.  0.
        -11    1    3    3    0    0 -0.11596529649E+02 -0.16134900770E+03  0.22125195634E+03  0.27408102812E+03  0.00000000000E+00 0.  1.
         11    1    3    3    0    0  0.60566448784E+01 -0.61050523865E+02  0.16103908641E+02  0.63428584131E+02  0.00000000000E+00 0. -1.
        -13    1    4    4    0    0 -0.41614531036E+02  0.10267265243E+03  0.15266819600E+03  0.18862932121E+03  0.00000000000E+00 0. -1.
         13    1    4    4    0    0  0.48332269247E+02  0.15448392203E+03  0.19895916009E+03  0.25648789016E+03  0.00000000000E+00 0.  1.
          4    1    1    2  501    0 -0.11778534401E+01 -0.34757042892E+02  0.19093588854E+03  0.19407718285E+03  0.00000000000E+00 0. -1.
<scales pt_clust_5="13000.00000" pt_clust_6="13000.00000" pt_clust_7="13000.00000" pt_clust_8="13000.00000" pt_clust_9="34.77699"></scales>
<clustering>
<clus scale="   34.777">  1  9  2 -1</clus>
<clus scale="   89.904">  5  6 -1 -1</clus>
<clus scale="   91.175">  7  8 -1 -1</clus>
<clus scale="  253.520">  2  5  1 -1</clus>
<clus scale="   34.777">  1  5  2 -1</clus>
</clustering>
</event>
<event>
 9    1  0.1601012E-005  0.9581925E+02  0.7546771E-02  0.1294327E+00
          1   -1    0    0  502    0 -0.00000000000E+00  0.00000000000E+00  0.11489299234E+03  0.11489299234E+03  0.00000000000E+00 0. -1.
         21   -1    0    0  501  502  0.00000000000E+00 -0.00000000000E+00 -0.25623927742E+03  0.25623927742E+03  0.00000000000E+00 0. -1.
         23    2    1    2    0    0  0.25003348800E+02 -0.60259773992E+01  0.44783658714E+02  0.98098273729E+02  0.83403928960E+02 0.  0.
         23    2    1    2    0    0 -0.21960041981E+02 -0.71802593624E+02 -0.89248165883E+02  0.14872539988E+03  0.92283007977E+02 0.  0.
        -11    1    3    3    0    0  0.34222424582E+02  0.23969289065E+02  0.51184215641E+02  0.66072120393E+02  0.00000000000E+00 0.  1.
         11    1    3    3    0    0 -0.92190757814E+01 -0.29995266464E+02 -0.64005569271E+01  0.32026153336E+02  0.00000000000E+00 0. -1.
        -13    1    4    4    0    0  0.26032295762E+02 -0.38980730446E+02 -0.61058440994E+01  0.47270065590E+02  0.00000000000E+00 0. -1.
         13    1    4    4    0    0 -0.47992337743E+02 -0.32821863178E+02 -0.83142321783E+02  0.10145533429E+03  0.00000000000E+00 0.  1.
          1    1    1    2  501    0 -0.30433068197E+01  0.77828571023E+02 -0.96881777919E+02  0.12430859615E+03  0.00000000000E+00 0. -1.
<scales pt_clust_5="13000.00000" pt_clust_6="13000.00000" pt_clust_7="13000.00000" pt_clust_8="13000.00000" pt_clust_9="77.88805"></scales>
<clustering>
<clus scale="   77.888">  2  9  1 -1</clus>
<clus scale="   83.404">  5  6 -1 -1</clus>
<clus scale="   87.301">  1  5  2 -1</clus>
<clus scale="   92.283">  7  8 -1 -1</clus>
<clus scale="   77.888">  2  5  1 -1</clus>
</clustering>
</event>
<event>
 9    1  0.1601012E-005  0.9688721E+02  0.7546771E-02  0.1287670E+00
          1   -1    0    0  502    0 -0.00000000000E+00  0.00000000000E+00  0.50495876280E+03  0.50495876280E+03  0.00000000000E+00 0. -1.
         21   -1    0    0  501  502  0.00000000000E+00 -0.00000000000E+00 -0.31907832321E+02  0.31907832321E+02  0.00000000000E+00 0.  1.
         23    2    1    2    0    0  0.82459297966E+01  0.45158217633E+02  0.30071057111E+03  0.31780714487E+03  0.92017790514E+02 0.  0.
         23    2    1    2    0    0  0.33038840431E+01 -0.22536289293E+01  0.11545436063E+03  0.14687760501E+03  0.90704613832E+02 0.  0.
        -11    1    4    4    0    0  0.35248269784E+02 -0.29844841748E+02  0.76932996256E+02  0.89732051212E+02  0.00000000000E+00 0.  1.
         11    1    4    4    0    0 -0.31944385741E+02  0.27591212818E+02  0.38521364377E+02  0.57145553796E+02  0.00000000000E+00 0. -1.
        -13    1    3    3    0    0  0.41992175231E+02  0.46535288391E+02  0.13713119077E+03  0.15077744967E+03  0.00000000000E+00 0. -1.
         13    1    3    3    0    0 -0.33746245435E+02 -0.13770707584E+01  0.16357938034E+03  0.16702969520E+03  0.00000000000E+00 0.  1.
          1    1    1    2  501    0 -0.11549813840E+02 -0.42904588704E+02  0.56885998737E+02  0.72181845251E+02  0.00000000000E+00 0. -1.
<scales pt_clust_5="13000.00000" pt_clust_6="13000.00000" pt_clust_7="13000.00000" pt_clust_8="13000.00000" pt_clust_9="44.43199"></scales>
<clustering>
<clus scale="   44.432">  2  9  1 -1</clus>
<clus scale="   90.705">  5  6 -1 -1</clus>
<clus scale="   92.018">  7  8 -1 -1</clus>
<clus scale="   95.641">  2  5  1 -1</clus>
<clus scale="   44.432">  2  5  1 -1</clus>
</clustering>
</event>
<event>
 9    1  0.1601012E-005  0.9974368E+02  0.7546771E-02  0.1283248E+00
          1   -1    0    0  502    0 -0.00000000000E+00  0.00000000000E+00  0.17290508716E+03  0.17290508716E+03  0.00000000000E+00 0. -1.
         21   -1    0    0  501  502  0.00000000000E+00 -0.00000000000E+00 -0.11352558258E+03  0.11352558258E+03  0.00000000000E+00 0.  1.
         23    2    1    2    0    0 -0.85091007872E+01 -0.37334283151E+01  0.63215196989E+02  0.11547156897E+03  0.96183048543E+02 0.  0.
         23    2    1    2    0    0  0.60787325027E+02  0.27006562893E+02 -0.88970265562E+01  0.11351113627E+03  0.91548717366E+02 0.  0.
        -13    1    3    3    0    0 -0.20132761081E+02 -0.38623369218E+02  0.65461714852E+02  0.78627786627E+02  0.00000000000E+00 0. -1.
         13    1    3    3    0    0  0.11623660294E+02  0.34889940903E+02 -0.22465178633E+01  0.36843782344E+02  0.00000000000E+00 0.  1.
        -13    1    4    4    0    0  0.73883234263E+02  0.47382378116E+02 -0.18806749207E+00  0.87771620872E+02  0.00000000000E+00 0.  1.
         13    1    4    4    0    0 -0.13095909236E+02 -0.20375815223E+02 -0.87089590641E+01  0.25739515393E+02  0.00000000000E+00 0. -1.
          1    1    1    2  501    0 -0.52278224240E+02 -0.23273134578E+02  0.50613341458E+01  0.57447964508E+02  0.00000000000E+00 0. -1.
<scales pt_clust_5="13000.00000" pt_clust_6="13000.00000" pt_clust_7="13000.00000" pt_clust_8="13000.00000" pt_clust_9="57.22457"></scales>
<clustering>
<clus scale="   57.225">  2  9  1 -1</clus>
<clus scale="   91.549">  7  8 -1 -1</clus>
<clus scale="   95.283">  2  7  1 -1</clus>
<clus scale="   96.183">  5  6 -1 -1</clus>
<clus scale="   57.225">  2  5  1 -1</clus>
</clustering>
</event>
<event>
 9    1  0.1601012E-005  0.2891443E+03  0.7546771E-02  0.1103588E+00
         -3   -1    0    0    0  501 -0.00000000000E+00  0.00000000000E+00  0.10470512282E+04  0.10470512282E+04  0.00000000000E+00 0.  1.
         21   -1    0    0  501  502  0.00000000000E+00 -0.00000000000E+00 -0.15805911293E+03  0.15805911293E+03  0.00000000000E+00 0.  1.
         23    2    1    2    0    0  0.10993708353E+03 -0.15039105940E+03  0.24806832114E+03  0.32316592457E+03  0.90524525769E+02 0.  0.
         23    2    1    2    0    0 -0.89301173981E+02  0.36641738794E+03  0.39151445500E+03  0.55134158260E+03  0.91965049737E+02 0.  0.
        -11    1    4    4    0    0 -0.29313497039E+02  0.28786909453E+03  0.29145147583E+03  0.41069679748E+03  0.00000000000E+00 0.  1.
         11    1    4    4    0    0 -0.59987676943E+02  0.78548293410E+02  0.10006297917E+03  0.14064478513E+03  0.00000000000E+00 0. -1.
        -13    1    3    3    0    0  0.10707191468E+03 -0.72808256835E+02  0.15439507089E+03  0.20150254364E+03  0.00000000000E+00 0.  1.
         13    1    3    3    0    0  0.28651688422E+01 -0.77582802568E+02  0.93673250254E+02  0.12166338093E+03  0.00000000000E+00 0. -1.
         -3    1    1    2    0  502 -0.20635909546E+02 -0.21602632854E+03  0.24940933917E+03  0.33060283400E+03  0.00000000000E+00 0.  1.
<scales pt_clust_5="13000.00000" pt_clust_6="13000.00000" pt_clust_7="13000.00000" pt_clust_8="13000.00000" pt_clust_9="274.12927"></scales>
<clustering>
<clus scale="   90.525">  7  8 -1 -1</clus>
<clus scale="   91.965">  5  6 -1 -1</clus>
<clus scale="  207.119">  1  7  2 -1</clus>
<clus scale="  274.129">  2  9  1 -1</clus>
<clus scale="  274.129">  2  5  1 -1</clus>
</clustering>
</event>
<event>
 9    1  0.1601012E-005  0.1051916E+03  0.7546771E-02  0.1271357E+00
         -2   -1    0    0    0  501 -0.00000000000E+00  0.00000000000E+00  0.58905831327E+03  0.58905831327E+03  0.00000000000E+00 0.  1.
         21   -1    0    0  501  502  0.00000000000E+00 -0.00000000000E+00 -0.25986453849E+02  0.25986453849E+02  0.00000000000E+00 0. -1.
         23    2    1    2    0    0 -0.52062656313E+02 -0.17120513811E+02  0.31418041802E+03  0.33228094036E+03  0.93261224979E+02 0.  0.
         23    2    1    2    0    0  0.43803095032E+02 -0.44897244218E+01  0.23607147478E+03  0.25631435998E+03  0.89601568989E+02 0.  0.
        -11    1    4    4    0    0  0.45818823020E+02 -0.34070350779E+02  0.85239646949E+02  0.10259605624E+03  0.00000000000E+00 0.  1.
         11    1    4    4    0    0 -0.20157279874E+01  0.29580626357E+02  0.15083182783E+03  0.15371830373E+03  0.00000000000E+00 0. -1.
        -13    1    3    3    0    0  0.27132902414E+02 -0.35370226352E+00  0.73244568409E+02  0.78109450773E+02  0.00000000000E+00 0.  1.
         13    1    3    3    0    0 -0.79195558727E+02 -0.16766811548E+02  0.24093584961E+03  0.25417148959E+03  0.00000000000E+00 0. -1.
         -2    1    1    2    0  502  0.82595612805E+01  0.21610238233E+02  0.12819966625E+02  0.26449466787E+02  0.00000000000E+00 0.  1.
<scales pt_clust_5="13000.00000" pt_clust_6="13000.00000" pt_clust_7="13000.00000" pt_clust_8="13000.00000" pt_clust_9="23.13488"></scales>
<clustering>
<clus scale="   23.135">  2  9  1 -1</clus>
<clus scale="   89.602">  5  6 -1 -1</clus>
<clus scale="   93.261">  7  8 -1 -1</clus>
<clus scale="  101.961">  2  5  1 -1</clus>
<clus scale="   23.135">  2  5  1 -1</clus>
</clustering>
</event>
<event>
 9    1  0.1601012E-005  0.9422737E+02  0.7546771E-02  0.1293767E+00
         21   -1    0    0  501  502  0.00000000000E+00  0.00000000000E+00  0.33598066968E+03  0.33598066968E+03  0.00000000000E+00 0. -1.
          4   -1    0    0  502    0 -0.00000000000E+00 -0.00000000000E+00 -0.75328113899E+02  0.75328113899E+02  0.00000000000E+00 0. -1.
         23    2    1    2    0    0  0.13459104946E+02 -0.76719182297E+01  0.55086856459E+01  0.92121854044E+02  0.90642619885E+02 0.  0.
         23    2    1    2    0    0 -0.28860319100E+01  0.32573490348E+02  0.45564819766E+02  0.10786902561E+03  0.92142348741E+02 0.  0.
        -11    1    3    3    0    0 -0.13815510449E+02 -0.30175747628E+02  0.33400495268E+02  0.47085424051E+02  0.00000000000E+00 0.  1.
         11    1    3    3    0    0  0.27274615395E+02  0.22503829398E+02 -0.27891809622E+02  0.45036429993E+02  0.00000000000E+00 0. -1.
        -11    1    4    4    0    0 -0.25539298389E+02 -0.11523813588E+02 -0.13211103803E+02  0.30977206225E+02  0.00000000000E+00 0.  1.
         11    1    4    4    0    0  0.22653266479E+02  0.44097303936E+02  0.58775923570E+02  0.76891819383E+02  0.00000000000E+00 0. -1.
          4    1    1    2  501    0 -0.10573073036E+02 -0.24901572118E+02  0.20957905037E+03  0.21131790393E+03  0.00000000000E+00 0. -1.
<scales pt_clust_5="13000.00000" pt_clust_6="13000.00000" pt_clust_7="13000.00000" pt_clust_8="13000.00000" pt_clust_9="27.05325"></scales>
<clustering>
<clus scale="   27.053">  1  9  2 -1</clus>
<clus scale="   90.643">  5  6 -1 -1</clus>
<clus scale="   92.142">  7  8 -1 -1</clus>
<clus scale="   92.761">  2  5  1 -1</clus>
<clus scale="   27.053">  1  5  2 -1</clus>
</clustering>
</event>
<event>
 9    1  0.1601012E-005  0.1178467E+03  0.7546771E-02  0.1247066E+00
          2   -1    0    0  502    0 -0.00000000000E+00  0.00000000000E+00  0.80827592727E+03  0.80827592727E+03  0.00000000000E+00 0. -1.
         21   -1    0    0  501  502  0.00000000000E+00 -0.00000000000E+00 -0.23352092390E+02  0.23352092390E+02  0.00000000000E+00 0. -1.
         23    2    1    2    0    0 -0.62876602608E+02 -0.52793228730E+02  0.39791079791E+03  0.41704376535E+03  0.94084573477E+02 0.  0.
         23    2    1    2    0    0  0.26148729053E+02  0.52772223494E+02  0.29346429887E+03  0.31408398795E+03  0.95177692642E+02 0.  0.
        -11    1    3    3    0    0  0.18563453062E+02 -0.14086481343E+02  0.28636889137E+02  0.36920213510E+02  0.00000000000E+00 0.  1.
         11    1    3    3    0    0 -0.81440055669E+02 -0.38706747388E+02  0.36927390877E+03  0.38012355184E+03  0.00000000000E+00 0. -1.
        -13    1    4    4    0    0  0.57306171498E+02  0.88218590141E+01  0.15769325640E+03  0.16801483744E+03  0.00000000000E+00 0. -1.
         13    1    4    4    0    0 -0.31157442445E+02  0.43950364479E+02  0.13577104247E+03  0.14606915051E+03  0.00000000000E+00 0.  1.
          2    1    1    2  501    0  0.36727873555E+02  0.21005236733E-01  0.93548738101E+02  0.10050026635E+03  0.00000000000E+00 0. -1.
<scales pt_clust_5="13000.00000" pt_clust_6="13000.00000" pt_clust_7="13000.00000" pt_clust_8="13000.00000" pt_clust_9="36.72788"></scales>
<clustering>
<clus scale="   36.728">  2  9  1 -1</clus>
<clus scale="   94.085">  5  6 -1 -1</clus>
<clus scale="   95.178">  7  8 -1 -1</clus>
<clus scale="  116.966">  1  5  2 -1</clus>
<clus scale="   36.728">  2  5  1 -1</clus>
</clustering>
</event>
<event>
 9    1  0.1601012E-005  0.1522202E+03  0.7546771E-02  0.1214730E+00
         -4   -1    0    0    0  501 -0.00000000000E+00  0.00000000000E+00  0.26918626070E+03  0.26918626070E+03  0.00000000000E+00 0.  1.
         21   -1    0    0  501  502  0.00000000000E+00 -0.00000000000E+00 -0.28546373836E+03  0.28546373836E+03  0.00000000000E+00 0.  1.
         23    2    1    2    0    0  0.24402129867E+02 -0.48316174966E+02 -0.17358759747E+03  0.20325162691E+03  0.90822096114E+02 0.  0.
         23    2    1    2    0    0  0.10549537692E+03  0.11235923472E+02  0.16785299857E+03  0.21590128874E+03  0.84753860219E+02 0.  0.
        -11    1    4    4    0    0  0.36541895479E+02  0.42955237322E+02  0.48102064957E+02  0.74123351191E+02  0.00000000000E+00 0.  1.
         11    1    4    4    0    0  0.68953481436E+02 -0.31719313851E+02  0.11975093361E+03  0.14177793755E+03  0.00000000000E+00 0. -1.
        -13    1    3    3    0    0  0.49926158012E+02  0.19624415811E+00 -0.68991742733E+02  0.85161730437E+02  0.00000000000E+00 0.  1.
         13    1    3    3    0    0 -0.25524028145E+02 -0.48512419124E+02 -0.10459585473E+03  0.11808989648E+03  0.00000000000E+00 0. -1.
         -4    1    1    2    0  502 -0.12989750678E+03  0.37080251494E+02 -0.10542878762E+02  0.13549708341E+03  0.00000000000E+00 0.  1.
<scales pt_clust_5="13000.00000" pt_clust_6="13000.00000" pt_clust_7="13000.00000" pt_clust_8="13000.00000" pt_clust_9="126.44274"></scales>
<clustering>
<clus scale="   84.754">  5  6 -1 -1</clus>
<clus scale="   90.822">  7  8 -1 -1</clus>
<clus scale="  105.729">  1  7  2 -1</clus>
<clus scale="  126.443">  2  9  1 -1</clus>
<clus scale="  126.443">  2  5  1 -1</clus>
</clustering>
</event>
<event>
 9    1  0.1601012E-005  0.2032224E+03  0.7546771E-02  0.1147896E+00
         -1   -1    0    0    0  501 -0.00000000000E+00  0.00000000000E+00  0.53815039282E+03  0.53815039282E+03  0.00000000000E+00 0.  1.
         21   -1    0    0  501  502  0.00000000000E+00 -0.00000000000E+00 -0.30378840238E+03  0.30378840238E+03  0.00000000000E+00 0.  1.
         23    2    1    2    0    0 -0.83995217329E+02 -0.20563390498E+03  0.41011541324E+03  0.47675229477E+03  0.98780559721E+02 0.  0.
         23    2    1    2    0    0  0.51617862840E+02  0.85164828818E+02  0.17202126386E+02  0.13541936754E+03  0.90139004442E+02 0.  0.
        -11    1    3    3    0    0 -0.76110674972E+02 -0.11298008059E+03  0.31759252732E+03  0.34557538521E+03  0.00000000000E+00 0.  1.
         11    1    3    3    0    0 -0.78845423570E+01 -0.92653824385E+02  0.92522885919E+02  0.13117690955E+03  0.00000000000E+00 0. -1.
        -11    1    4    4    0    0  0.59247471832E+02  0.56051925503E+02  0.46107228565E+02  0.93690756198E+02  0.00000000000E+00 0. -1.
         11    1    4    4    0    0 -0.76296089920E+01  0.29112903315E+02 -0.28905102179E+02  0.41728611345E+02  0.00000000000E+00 0.  1.
         -1    1    1    2    0  502  0.32377354489E+02  0.12046907616E+03 -0.19295554918E+03  0.22976713289E+03  0.00000000000E+00 0.  1.
<scales pt_clust_5="13000.00000" pt_clust_6="13000.00000" pt_clust_7="13000.00000" pt_clust_8="13000.00000" pt_clust_9="124.74410"></scales>
<clustering>
<clus scale="   90.139">  7  8 -1 -1</clus>
<clus scale="   98.781">  5  6 -1 -1</clus>
<clus scale="  124.744">  2  9  1 -1</clus>
<clus scale="  199.165">  2  7  1 -1</clus>
<clus scale="  124.744">  2  5  1 -1</clus>
</clustering>
</event>
<event>
 9    1  0.1601012E-005  0.1263375E+03  0.7546771E-02  0.1242200E+00
         21   -1    0    0  501  502  0.00000000000E+00  0.00000000000E+00  0.38089456729E+03  0.38089456729E+03  0.00000000000E+00 0. -1.
         -1   -1    0    0    0  501 -0.00000000000E+00 -0.00000000000E+00 -0.11586845511E+03  0.11586845511E+03  0.00000000000E+00 0.  1.
         23    2    1    2    0    0  0.41378448451E+02  0.29068837504E+02 -0.56541902030E+02  0.13698559831E+03  0.11406530651E+03 0.  0.
         23    2    1    2    0    0 -0.45081878750E+02 -0.61114840856E+02  0.18236084237E+03  0.21688131351E+03  0.89524453393E+02 0.  0.
        -11    1    4    4    0    0 -0.47066842742E+02 -0.23567586444E+02  0.16895260607E+03  0.17696243080E+03  0.00000000000E+00 0.  1.
         11    1    4    4    0    0  0.19849639923E+01 -0.37547254412E+02  0.13408236294E+02  0.39918882705E+02  0.00000000000E+00 0. -1.
        -13    1    3    3    0    0  0.11420328244E+02 -0.28128584406E+02 -0.65121328904E+02  0.71850042701E+02  0.00000000000E+00 0.  1.
         13    1    3    3    0    0  0.29958120207E+02  0.57197421911E+02  0.85794268745E+01  0.65135555613E+02  0.00000000000E+00 0. -1.
         -1    1    1    2    0  502  0.37034302989E+01  0.32046003351E+02  0.13920717184E+03  0.14289611058E+03  0.00000000000E+00 0.  1.
<scales pt_clust_5="13000.00000" pt_clust_6="13000.00000" pt_clust_7="13000.00000" pt_clust_8="13000.00000" pt_clust_9="32.25929"></scales>
<clustering>
<clus scale="   32.259">  1  9  2 -1</clus>
<clus scale="   89.524">  5  6 -1 -1</clus>
<clus scale="  104.713">  1  5  2 -1</clus>
<clus scale="  114.065">  7  8 -1 -1</clus>
<clus scale="   32.259">  1  5  2 -1</clus>
</clustering>
</event>
<event>
 9    1  0.1601012E-005  0.9794826E+02  0.7546771E-02  0.1284956E+00
         21   -1    0    0  501  502  0.00000000000E+00  0.00000000000E+00  0.63511874196E+02  0.63511874196E+02  0.00000000000E+00 0. -1.
          3   -1    0    0  502    0 -0.00000000000E+00 -0.00000000000E+00 -0.36595202047E+03  0.36595202047E+03  0.00000000000E+00 0. -1.
         23    2    1    2    0    0  0.13829719505E+02  0.29893207924E+02 -0.27792386748E+03  0.29450583647E+03  0.91690493400E+02 0.  0.
         23    2    1    2    0    0  0.73755697369E+01 -0.37940684598E+02 -0.39758525383E+02  0.10763129012E+03  0.92248900781E+02 0.  0.
        -11    1    4    4    0    0  0.16152216431E+02  0.22700026592E+02 -0.36974164637E+02  0.46295508999E+02  0.00000000000E+00 0. -1.
         11    1    4    4    0    0 -0.87766466942E+01 -0.60640711190E+02 -0.27843607462E+01  0.61335781120E+02  0.00000000000E+00 0.  1.
        -13    1    3    3    0    0 -0.81008461860E+01  0.50763277075E+02 -0.24258848586E+03  0.24797521546E+03  0.00000000000E+00 0.  1.
         13    1    3    3    0    0  0.21930565691E+02 -0.20870069151E+02 -0.35335381613E+02  0.46530621011E+02  0.00000000000E+00 0. -1.
          3    1    1    2  501    0 -0.21205289242E+02  0.80474766745E+01  0.15242246585E+02  0.27326768078E+02  0.00000000000E+00 0. -1.
<scales pt_clust_5="13000.00000" pt_clust_6="13000.00000" pt_clust_7="13000.00000" pt_clust_8="13000.00000" pt_clust_9="22.68096"></scales>
<clustering>
<clus scale="   22.681">  1  9  2 -1</clus>
<clus scale="   91.690">  7  8 -1 -1</clus>
<clus scale="   92.249">  5  6 -1 -1</clus>
<clus scale="   97.423">  2  7  1 -1</clus>
<clus scale="   22.681">  1  5  2 -1</clus>
</clustering>
</event>
<event>
 9    1  0.1601012E-005  0.1032473E+03  0.7546771E-02  0.1274558E+00
         -4   -1    0    0    0  501 -0.00000000000E+00  0.00000000000E+00  0.22216905286E+03  0.22216905286E+03  0.00000000000E+00 0.  1.
         21   -1    0    0  501  502  0.00000000000E+00 -0.00000000000E+00 -0.19232736673E+03  0.19232736673E+03  0.00000000000E+00 0.  1.
         23    2    1    2    0    0  0.10735172614E+02 -0.48195543435E+02  0.15030988497E+03  0.18300159973E+03  0.91969938814E+02 0.  0.
         23    2    1    2    0    0  0.31976196226E+02  0.42783661340E+02 -0.10531732423E+01  0.10455586668E+03  0.89877145485E+02 0.  0.
        -11    1    3    3    0    0 -0.16186889964E+02 -0.33515376356E+02  0.88513035908E+01  0.38257567019E+02  0.00000000000E+00 0. -1.
         11    1    3    3    0    0  0.26922062578E+02 -0.14680167080E+02  0.14145858138E+03  0.14474403271E+03  0.00000000000E+00 0.  1.
        -13    1    4    4    0    0  0.22275443933E+02 -0.20994657748E+02  0.20152372651E+02  0.36648181126E+02  0.00000000000E+00 0.  1.
         13    1    4    4    0    0  0.97007522934E+01  0.63778319088E+02 -0.21205545893E+02  0.67907685555E+02  0.00000000000E+00 0. -1.
         -4    1    1    2    0  502 -0.42711368840E+02  0.54118820949E+01 -0.11941502560E+03  0.12693895318E+03  0.00000000000E+00 0.  1.
<scales pt_clust_5="13000.00000" pt_clust_6="13000.00000" pt_clust_7="13000.00000" pt_clust_8="13000.00000" pt_clust_9="43.05287"></scales>
<clustering>
<clus scale="   43.053">  2  9  1 -1</clus>
<clus scale="   89.877">  7  8 -1 -1</clus>
<clus scale="   91.970">  5  6 -1 -1</clus>
<clus scale="  101.388">  2  7  1 -1</clus>
<clus scale="   43.053">  2  5  1 -1</clus>
</clustering>
</event>
<event>
 9    1  0.1601012E-005  0.1162663E+03  0.7546771E-02  0.1249740E+00
          1   -1    0    0  502    0 -0.00000000000E+00  0.00000000000E+00  0.43799677050E+03  0.43799677050E+03  0.00000000000E+00 0. -1.
         21   -1    0    0  501  502  0.00000000000E+00 -0.00000000000E+00 -0.46075107702E+02  0.46075107702E+02  0.00000000000E+00 0. -1.
         23    2    1    2    0    0  0.41481901072E+02  0.55927771542E+02  0.26080029561E+03  0.28437152348E+03  0.89452252251E+02 0.  0.
         23    2    1    2    0    0 -0.67648560381E+02 -0.48565565792E+02  0.11309691182E+03  0.16708475839E+03  0.90506702069E+02 0.  0.
        -13    1    3    3    0    0  0.37634711971E+02 -0.16303364948E+02  0.92415905157E+02  0.10110821322E+03  0.00000000000E+00 0.  1.
         13    1    3    3    0    0  0.38471891013E+01  0.72231136489E+02  0.16838439045E+03  0.18326331026E+03  0.00000000000E+00 0. -1.
        -13    1    4    4    0    0  0.61107266619E+01 -0.44443092367E+02  0.22503212095E+02  0.50188883172E+02  0.00000000000E+00 0.  1.
         13    1    4    4    0    0 -0.73759287043E+02 -0.41224734256E+01  0.90593699727E+02  0.11689587522E+03  0.00000000000E+00 0. -1.
          1    1    1    2  501    0  0.26166659309E+02 -0.73622057492E+01  0.18024455375E+02  0.32615596338E+02  0.00000000000E+00 0. -1.
<scales pt_clust_5="13000.00000" pt_clust_6="13000.00000" pt_clust_7="13000.00000" pt_clust_8="13000.00000" pt_clust_9="27.18264"></scales>
<clustering>
<clus scale="   27.183">  2  9  1 -1</clus>
<clus scale="   89.452">  5  6 -1 -1</clus>
<clus scale="   90.507">  7  8 -1 -1</clus>
<clus scale="  115.447">  1  5  2 -1</clus>
<clus scale="   27.183">  2  5  1 -1</clus>
</clustering>
</event>
<event>
 9    1  0.1601012E-005  0.1354463E+03  0.7546771E-02  0.1232381E+00
         21   -1    0    0  501  502  0.00000000000E+00  0.00000000000E+00  0.21620650215E+03  0.21620650215E+03  0.00000000000E+00 0. -1.
          1   -1    0    0  502    0 -0.00000000000E+00 -0.00000000000E+00 -0.37978914960E+03  0.37978914960E+03  0.00000000000E+00 0. -1.
         23    2    1    2    0    0  0.19134866988E+02 -0.58467705423E+02 -0.19511618234E+03  0.22101957870E+03  0.83634405875E+02 0.  0.
         23    2    1    2    0    0  0.55792882812E+02 -0.14172342437E+02 -0.13831129407E+03  0.17563212364E+03  0.91667484566E+02 0.  0.
        -13    1    3    3    0    0  0.45527698352E+02 -0.61687910863E+02 -0.13426788629E+03  0.15461576553E+03  0.00000000000E+00 0. -1.
         13    1    3    3    0    0 -0.26392831364E+02  0.32202054402E+01 -0.60848296056E+02  0.66403813169E+02  0.00000000000E+00 0.  1.
        -13    1    4    4    0    0  0.68574116810E+02  0.12616111478E+02 -0.60363083323E+02  0.92224061901E+02  0.00000000000E+00 0. -1.
         13    1    4    4    0    0 -0.12781233998E+02 -0.26788453915E+02 -0.77948210744E+02  0.83408061744E+02  0.00000000000E+00 0.  1.
          1    1    1    2  501    0 -0.74927749800E+02  0.72640047859E+02  0.16984482896E+03  0.19934394941E+03  0.00000000000E+00 0. -1.
<scales pt_clust_5="13000.00000" pt_clust_6="13000.00000" pt_clust_7="13000.00000" pt_clust_8="13000.00000" pt_clust_9="99.71351"></scales>
<clustering>
<clus scale="   83.634">  5  6 -1 -1</clus>
<clus scale="   91.667">  7  8 -1 -1</clus>
<clus scale="  103.824">  2  5  1 -1</clus>
<clus scale="   99.714">  1  9  2 -1</clus>
<clus scale="   99.714">  1  5  2 -1</clus>
</clustering>
</event>
<event>
 9    1  0.1601012E-005  0.1805649E+03  0.7546771E-02  0.1189756E+00
         -1   -1    0    0    0  501 -0.00000000000E+00  0.00000000000E+00  0.12527352034E+03  0.12527352034E+03  0.00000000000E+00 0.  1.
         21   -1    0    0  501  502  0.00000000000E+00 -0.00000000000E+00 -0.70646888524E+03  0.70646888524E+03  0.00000000000E+00 0.  1.
         23    2    1    2    0    0  0.20864390724E+02  0.55984927716E+02 -0.29616251809E+02  0.11270342794E+03  0.90858711009E+02 0.  0.
         23    2    1    2    0    0 -0.12736858320E+03  0.62088257500E+02 -0.27321934872E+02  0.17119775156E+03  0.92111206198E+02 0.  0.
        -11    1    3    3    0    0 -0.43128638301E+01 -0.21604652557E+02 -0.21408147210E+02  0.30719221564E+02  0.00000000000E+00 0. -1.
         11    1    3    3    0    0  0.25177254555E+02  0.77589580273E+02 -0.82081045993E+01  0.81984206375E+02  0.00000000000E+00 0.  1.
        -11    1    4    4    0    0  0.10392046315E+02  0.20120440315E+02 -0.13878760248E+02  0.26560247196E+02  0.00000000000E+00 0. -1.
         11    1    4    4    0    0 -0.13776062952E+03  0.41967817185E+02 -0.13443174624E+02  0.14463750436E+03  0.00000000000E+00 0.  1.
         -1    1    1    2    0  502  0.10650419248E+03 -0.11807318522E+03 -0.52425717821E+03  0.54784122608E+03  0.00000000000E+00 0.  1.
<scales pt_clust_5="13000.00000" pt_clust_6="13000.00000" pt_clust_7="13000.00000" pt_clust_8="13000.00000" pt_clust_9="155.30361"></scales>
<clustering>
<clus scale="   90.859">  5  6 -1 -1</clus>
<clus scale="   92.111">  7  8 -1 -1</clus>
<clus scale="  108.743">  1  5  2 -1</clus>
<clus scale="  155.304">  2  9  1 -1</clus>
<clus scale="  155.304">  2  5  1 -1</clus>
</clustering>
</event>
<event>
 9    1  0.1601012E-005  0.9485081E+02  0.7546771E-02  0.1296049E+00
         -1   -1    0    0    0  501 -0.00000000000E+00  0.00000000000E+00  0.22011250254E+03  0.22011250254E+03  0.00000000000E+00 0.  1.
         21   -1    0    0  501  502  0.00000000000E+00 -0.00000000000E+00 -0.90569154242E+02  0.90569154242E+02  0.00000000000E+00 0. -1.
         23    2    1    2    0    0  0.17665974744E+01 -0.15839941746E+02  0.13969864791E+03  0.16457757561E+03  0.85533861979E+02 0.  0.
         23    2    1    2    0    0  0.19937592522E+02  0.17934011854E+02  0.28934709757E+02  0.10134376587E+03  0.93349906671E+02 0.  0.
        -11    1    3    3    0    0  0.41845950621E+02 -0.69059465514E+00  0.87896352009E+02  0.97351575236E+02  0.00000000000E+00 0. -1.
         11    1    3    3    0    0 -0.40079353146E+02 -0.15149347091E+02  0.51802295898E+02  0.67226000373E+02  0.00000000000E+00 0.  1.
        -13    1    4    4    0    0 -0.15254625270E+02  0.46641531983E+02  0.32789883717E+01  0.49182190503E+02  0.00000000000E+00 0.  1.
         13    1    4    4    0    0  0.35192217792E+02 -0.28707520130E+02  0.25655721385E+02  0.52161575368E+02  0.00000000000E+00 0. -1.
         -1    1    1    2    0  502 -0.21704189996E+02 -0.20940701080E+01 -0.39090009371E+02  0.44760315298E+02  0.00000000000E+00 0.  1.
<scales pt_clust_5="13000.00000" pt_clust_6="13000.00000" pt_clust_7="13000.00000" pt_clust_8="13000.00000" pt_clust_9="21.80498"></scales>
<clustering>
<clus scale="   21.805">  2  9  1 -1</clus>
<clus scale="   85.534">  5  6 -1 -1</clus>
<clus scale="   87.169">  1  5  2 -1</clus>
<clus scale="   93.350">  7  8 -1 -1</clus>
<clus scale="   21.805">  2  5  1 -1</clus>
</clustering>
</event>
<event>
 9    1  0.1601012E-005  0.9452989E+02  0.7546771E-02  0.1292773E+00
         21   -1    0    0  501  502  0.00000000000E+00  0.00000000000E+00  0.49799992590E+02  0.49799992590E+02  0.00000000000E+00 0.  1.
          3   -1    0    0  502    0 -0.00000000000E+00 -0.00000000000E+00 -0.28344094219E+03  0.28344094219E+03  0.00000000000E+00 0. -1.
         23    2    1    2    0    0  0.13311651099E+02 -0.64147743949E+01 -0.14872814537E+03  0.17457275042E+03  0.90206621579E+02 0.  0.
         23    2    1    2    0    0 -0.42808821265E+02  0.17222931814E+02 -0.70192692389E+02  0.12397551933E+03  0.91179442695E+02 0.  0.
        -11    1    4    4    0    0 -0.53279165695E+02 -0.13246033409E+02 -0.10144701598E+02  0.55830474373E+02  0.00000000000E+00 0.  1.
         11    1    4    4    0    0  0.10470344430E+02  0.30468965222E+02 -0.60047990791E+02  0.68145044958E+02  0.00000000000E+00 0. -1.
        -11    1    3    3    0    0  0.26730522953E+02 -0.43996138188E+02 -0.81803422558E+02  0.96653923744E+02  0.00000000000E+00 0. -1.
         11    1    3    3    0    0 -0.13418871854E+02  0.37581363793E+02 -0.66924722815E+02  0.77918826674E+02  0.00000000000E+00 0.  1.
          3    1    1    2  501    0  0.29497170166E+02 -0.10808157419E+02 -0.14720111840E+02  0.34692665034E+02  0.00000000000E+00 0. -1.
<scales pt_clust_5="13000.00000" pt_clust_6="13000.00000" pt_clust_7="13000.00000" pt_clust_8="13000.00000" pt_clust_9="31.41495"></scales>
<clustering>
<clus scale="   31.415">  1  9  2 -1</clus>
<clus scale="   90.207">  7  8 -1 -1</clus>
<clus scale="   91.179">  5  6 -1 -1</clus>
<clus scale="   93.592">  2  7  1 -1</clus>
<clus scale="   31.415">  1  5  2 -1</clus>
</clustering>
</event>
<event>
 9    1  0.1601012E-005  0.1085789E+03  0.7546771E-02  0.1264109E+00
          1   -1    0    0  502    0 -0.00000000000E+00  0.00000000000E+00  0.55217326317E+02  0.55217326317E+02  0.00000000000E+00 0. -1.
         21   -1    0    0  501  502  0.00000000000E+00 -0.00000000000E+00 -0.44823840527E+03  0.44823840527E+03  0.00000000000E+00 0. -1.
         23    2    1    2    0    0  0.27522518781E+02  0.41393344603E+02 -0.89561312416E+02  0.13787141585E+03  0.92284346502E+02 0.  0.
         23    2    1    2    0    0 -0.89997507364E+02 -0.25315998254E+00 -0.16754580916E+03  0.21044488555E+03  0.90087936291E+02 0.  0.
        -11    1    3    3    0    0 -0.26234152594E+02  0.38624870279E+02 -0.61355408472E+02  0.77101216042E+02  0.00000000000E+00 0.  1.
         11    1    3    3    0    0  0.53756671375E+02  0.27684743233E+01 -0.28205903945E+02  0.60770199808E+02  0.00000000000E+00 0. -1.
        -13    1    4    4    0    0 -0.69536051011E+02  0.40899828382E+02 -0.95820116015E+02  0.12525794580E+03  0.00000000000E+00 0. -1.
         13    1    4    4    0    0 -0.20461456353E+02 -0.41152988365E+02 -0.71725693145E+02  0.85186939754E+02  0.00000000000E+00 0.  1.
          1    1    1    2  501    0  0.62474988583E+02 -0.41140184620E+02 -0.13591395737E+03  0.15513943018E+03  0.00000000000E+00 0. -1.
<scales pt_clust_5="13000.00000" pt_clust_6="13000.00000" pt_clust_7="13000.00000" pt_clust_8="13000.00000" pt_clust_9="74.80400"></scales>
<clustering>
<clus scale="   74.804">  2  9  1 -1</clus>
<clus scale="   90.088">  7  8 -1 -1</clus>
<clus scale="   92.284">  5  6 -1 -1</clus>
<clus scale="  106.718">  2  7  1 -1</clus>
<clus scale="   74.804">  2  5  1 -1</clus>
</clustering>
</event>
<event>
 9    1  0.1601012E-005  0.1055881E+03  0.7546771E-02  0.1273851E+00
         21   -1    0    0  501  502  0.00000000000E+00  0.00000000000E+00  0.10810133809E+04  0.10810133809E+04  0.00000000000E+00 0.  1.
          1   -1    0    0  502    0 -0.00000000000E+00 -0.00000000000E+00 -0.30483178113E+02  0.30483178113E+02  0.00000000000E+00 0. -1.
         23    2    1    2    0    0 -0.26234579934E+02  0.11020189814E+02  0.94079485853E+02  0.14122351725E+03  0.10140726995E+03 0.  0.
         23    2    1    2    0    0  0.40398180447E+01 -0.59962219042E+02  0.63894715932E+03  0.64825372747E+03  0.91474777569E+02 0.  0.
        -13    1    4    4    0    0 -0.31055786612E+02  0.86992022932E+01  0.17675407149E+03  0.17967231225E+03  0.00000000000E+00 0. -1.
         13    1    4    4    0    0  0.35095604657E+02 -0.68661421335E+02  0.46219308783E+03  0.46858141522E+03  0.00000000000E+00 0.  1.
        -13    1    3    3    0    0  0.76317848566E+01 -0.37816089865E+02  0.63719045472E+02  0.74487700653E+02  0.00000000000E+00 0.  1.
         13    1    3    3    0    0 -0.33866364791E+02  0.48836279678E+02  0.30360440381E+02  0.66735816599E+02  0.00000000000E+00 0. -1.
          1    1    1    2  501    0  0.22194761889E+02  0.48942029228E+02  0.31750355760E+03  0.32201931428E+03  0.00000000000E+00 0. -1.
<scales pt_clust_5="13000.00000" pt_clust_6="13000.00000" pt_clust_7="13000.00000" pt_clust_8="13000.00000" pt_clust_9="53.73946"></scales>
<clustering>
<clus scale="   53.739">  1  9  2 -1</clus>
<clus scale="   91.475">  5  6 -1 -1</clus>
<clus scale="   96.089">  1  5  2 -1</clus>
<clus scale="  101.407">  7  8 -1 -1</clus>
<clus scale="   53.739">  1  5  2 -1</clus>
</clustering>
</event>
<event>
 9    1  0.1601012E-005  0.1148132E+03  0.7546771E-02  0.1253602E+00
         21   -1    0    0  501  502  0.00000000000E+00  0.00000000000E+00  0.77184503597E+03  0.77184503597E+03  0.00000000000E+00 0. -1.
         -2   -1    0    0    0  501 -0.00000000000E+00 -0.00000000000E+00 -0.28012256879E+02  0.28012256879E+02  0.00000000000E+00 0.  1.
         23    2    1    2    0    0  0.46097240546E+02  0.17821458852E+02  0.32137269008E+03  0.33877232331E+03  0.95098481243E+02 0.  0.
         23    2    1    2    0    0 -0.84625238225E+02  0.14784512891E+02  0.35862981547E+03  0.37971015882E+03  0.90467935754E+02 0.  0.
        -11    1    4    4    0    0 -0.59772219587E+02  0.51359085820E+02  0.19805176204E+03  0.21315481317E+03  0.00000000000E+00 0.  1.
         11    1    4    4    0    0 -0.24853018638E+02 -0.36574572929E+02  0.16057805343E+03  0.16655534565E+03  0.00000000000E+00 0. -1.
        -13    1    3    3    0    0 -0.26145108707E+02  0.10072763493E+02  0.15062802132E+03  0.15321171000E+03  0.00000000000E+00 0. -1.
         13    1    3    3    0    0  0.72242349253E+02  0.77486953595E+01  0.17074466876E+03  0.18556061332E+03  0.00000000000E+00 0.  1.
         -2    1    1    2    0  502  0.38527997680E+02 -0.32605971743E+02  0.63830273544E+02  0.81374810717E+02  0.00000000000E+00 0.  1.
<scales pt_clust_5="13000.00000" pt_clust_6="13000.00000" pt_clust_7="13000.00000" pt_clust_8="13000.00000" pt_clust_9="50.47334"></scales>
<clustering>
<clus scale="   50.473">  1  9  2 -1</clus>
<clus scale="   90.468">  5  6 -1 -1</clus>
<clus scale="   95.098">  7  8 -1 -1</clus>
<clus scale="  111.008">  1  5  2 -1</clus>
<clus scale="   50.473">  1  5  2 -1</clus>
</clustering>
</event>
<event>
 9    1  0.1601012E-005  0.9337286E+02  0.7546771E-02  0.1295364E+00
         21   -1    0    0  501  502  0.00000000000E+00  0.00000000000E+00  0.10623327764E+03  0.10623327764E+03  0.00000000000E+00 0. -1.
          1   -1    0    0  502    0 -0.00000000000E+00 -0.00000000000E+00 -0.28833167352E+03  0.28833167352E+03  0.00000000000E+00 0. -1.
         23    2    1    2    0    0  0.13168499987E+02 -0.16680436591E+02 -0.20475434297E+03  0.22515289166E+03  0.91202178177E+02 0.  0.
         23    2    1    2    0    0  0.22261007698E+02  0.28448311516E+02 -0.32691302629E+02  0.10265091101E+03  0.90352805006E+02 0.  0.
        -13    1    3    3    0    0  0.27232500025E+02  0.26543812817E+02 -0.14598223326E+03  0.15085421931E+03  0.00000000000E+00 0. -1.
         13    1    3    3    0    0 -0.14064000038E+02 -0.43224249408E+02 -0.58772109706E+02  0.74298672352E+02  0.00000000000E+00 0.  1.
        -13    1    4    4    0    0 -0.31312967392E+02 -0.66893264139E+01 -0.33864256467E+01  0.32198088351E+02  0.00000000000E+00 0.  1.
         13    1    4    4    0    0  0.53573975090E+02  0.35137637930E+02 -0.29304876983E+02  0.70452822663E+02  0.00000000000E+00 0. -1.
          1    1    1    2  501    0 -0.35429507685E+02 -0.11767874925E+02  0.55347249713E+02  0.66761148476E+02  0.00000000000E+00 0. -1.
<scales pt_clust_5="13000.00000" pt_clust_6="13000.00000" pt_clust_7="13000.00000" pt_clust_8="13000.00000" pt_clust_9="37.33273"></scales>
<clustering>
<clus scale="   37.333">  1  9  2 -1</clus>
<clus scale="   90.353">  7  8 -1 -1</clus>
<clus scale="   91.202">  5  6 -1 -1</clus>
<clus scale="   92.543">  1  7  2 -1</clus>
<clus scale="   37.333">  1  5  2 -1</clus>
</clustering>
</event>
<event>
 9    1  0.1601012E-005  0.1132482E+03  0.7546771E-02  0.1255227E+00
         21   -1    0    0  501  502  0.00000000000E+00  0.00000000000E+00  0.54644898238E+03  0.54644898238E+03  0.00000000000E+00 0. -1.
          2   -1    0    0  502    0 -0.00000000000E+00 -0.00000000000E+00 -0.32689957795E+03  0.32689957795E+03  0.00000000000E+00 0. -1.
         23    2    1    2    0    0 -0.61592708719E+02  0.15125347787E+02 -0.29224070045E+03  0.31256266090E+03  0.90930479349E+02 0.  0.
         23    2    1    2    0    0  0.10565912451E+03 -0.25071441235E+02  0.19945201360E+03  0.24519778645E+03  0.92457671377E+02 0.  0.
        -11    1    4    4    0    0  0.51394328857E+02 -0.25348205003E+02  0.17774049194E+03  0.18675007633E+03  0.00000000000E+00 0.  1.
         11    1    4    4    0    0  0.54264795656E+02  0.27676376875E+00  0.21711521655E+02  0.58447710121E+02  0.00000000000E+00 0. -1.
        -13    1    3    3    0    0  0.20839498111E+02  0.19181879592E+02 -0.76338897796E+02  0.81423930775E+02  0.00000000000E+00 0.  1.
         13    1    3    3    0    0 -0.82432206830E+02 -0.40565318051E+01 -0.21590180266E+03  0.23113873013E+03  0.00000000000E+00 0. -1.
          2    1    1    2  501    0 -0.44066415794E+02  0.99460934477E+01  0.31233809129E+03  0.31558811297E+03  0.00000000000E+00 0. -1.
<scales pt_clust_5="13000.00000" pt_clust_6="13000.00000" pt_clust_7="13000.00000" pt_clust_8="13000.00000" pt_clust_9="45.17492"></scales>
<clustering>
<clus scale="   45.175">  1  9  2 -1</clus>
<clus scale="   90.930">  7  8 -1 -1</clus>
<clus scale="   92.458">  5  6 -1 -1</clus>
<clus scale="  112.005">  2  7  1 -1</clus>
<clus scale="   45.175">  1  5  2 -1</clus>
</clustering>
</event>
<event>
 9    1  0.1601012E-005  0.1159099E+03  0.7546771E-02  0.1252754E+00
         21   -1    0    0  501  502  0.00000000000E+00  0.00000000000E+00  0.13053383431E+03  0.13053383431E+03  0.00000000000E+00 0.  1.
          1   -1    0    0  502    0 -0.00000000000E+00 -0.00000000000E+00 -0.15464405678E+03  0.15464405678E+03  0.00000000000E+00 0. -1.
         23    2    1    2    0    0  0.46978682843E+02 -0.56844858161E+02 -0.36302479582E+02  0.12740919295E+03  0.97349359952E+02 0.  0.
         23    2    1    2    0    0 -0.56347022421E+02  0.14293589516E+02 -0.12352280321E+02  0.10776059312E+03  0.89891451002E+02 0.  0.
        -11    1    3    3    0    0  0.25243721343E+02 -0.25794797333E+02 -0.68663981567E+02  0.77571640445E+02  0.00000000000E+00 0. -1.
         11    1    3    3    0    0  0.21734961499E+02 -0.31050060828E+02  0.32361501985E+02  0.49837552503E+02  0.00000000000E+00 0.  1.
        -13    1    4    4    0    0  0.88798390627E+01 -0.27841310550E+02 -0.61315124458E+01  0.29859429998E+02  0.00000000000E+00 0.  1.
         13    1    4    4    0    0 -0.65226861484E+02  0.42134900066E+02 -0.62207678752E+01  0.77901163121E+02  0.00000000000E+00 0. -1.
          1    1    1    2  501    0  0.93683395785E+01  0.42551268644E+02  0.24544537439E+02  0.50008105021E+02  0.00000000000E+00 0. -1.
<scales pt_clust_5="13000.00000" pt_clust_6="13000.00000" pt_clust_7="13000.00000" pt_clust_8="13000.00000" pt_clust_9="43.57036"></scales>
<clustering>
<clus scale="   43.570">  1  9  2 -1</clus>
<clus scale="   89.891">  7  8 -1 -1</clus>
<clus scale="   97.349">  5  6 -1 -1</clus>
<clus scale="  109.721">  1  7  2 -1</clus>
<clus scale="   43.570">  1  5  2 -1</clus>
</clustering>
</event>
<event>
 9    1  0.1601012E-005  0.9644901E+02  0.7546771E-02  0.1288656E+00
          1   -1    0    0  502    0 -0.00000000000E+00  0.00000000000E+00  0.54457266828E+03  0.54457266828E+03  0.00000000000E+00 0. -1.
         21   -1    0    0  501  502  0.00000000000E+00 -0.00000000000E+00 -0.53665001692E+02  0.53665001692E+02  0.00000000000E+00 0. -1.
         23    2    1    2    0    0  0.27825738371E+02 -0.15576308929E+02  0.42243244266E+03  0.43358910522E+03  0.92376676958E+02 0.  0.
         23    2    1    2    0    0 -0.16496250040E+02 -0.26265958820E+01  0.93587155680E+02  0.13162868944E+03  0.91041369193E+02 0.  0.
        -13    1    3    3    0    0 -0.37479815561E+01  0.35211843378E+02  0.20715185313E+03  0.21015663571E+03  0.00000000000E+00 0.  1.
         13    1    3    3    0    0  0.31573719927E+02 -0.50788152306E+02  0.21528058953E+03  0.22343246951E+03  0.00000000000E+00 0. -1.
        -13    1    4    4    0    0  0.24095546876E+02  0.30315828438E+02  0.51955647727E+02  0.64799954968E+02  0.00000000000E+00 0.  1.
         13    1    4    4    0    0 -0.40591796916E+02 -0.32942424320E+02  0.41631507953E+02  0.66828734474E+02  0.00000000000E+00 0. -1.
          1    1    1    2  501    0 -0.11329488331E+02  0.18202904811E+02 -0.25111931745E+02  0.33019875308E+02  0.00000000000E+00 0. -1.
<scales pt_clust_5="13000.00000" pt_clust_6="13000.00000" pt_clust_7="13000.00000" pt_clust_8="13000.00000" pt_clust_9="21.44069"></scales>
<clustering>
<clus scale="   21.441">  2  9  1 -1</clus>
<clus scale="   91.041">  7  8 -1 -1</clus>
<clus scale="   92.377">  5  6 -1 -1</clus>
<clus scale="   95.171">  2  7  1 -1</clus>
<clus scale="   21.441">  2  5  1 -1</clus>
</clustering>
</event>
<event>
 9    1  0.1601012E-005  0.1049303E+03  0.7546771E-02  0.1271839E+00
         21   -1    0    0  501  502  0.00000000000E+00  0.00000000000E+00  0.22123586607E+02  0.22123586607E+02  0.00000000000E+00 0. -1.
         -1   -1    0    0    0  501 -0.00000000000E+00 -0.00000000000E+00 -0.73292161941E+03  0.73292161941E+03  0.00000000000E+00 0.  1.
         23    2    1    2    0    0 -0.39465027640E+02  0.30239230670E+00 -0.43367606871E+03  0.44491541085E+03  0.91198741196E+02 0.  0.
         23    2    1    2    0    0  0.60128857930E+02 -0.87573707263E+01 -0.19613035821E+03  0.22611717250E+03  0.94708432529E+02 0.  0.
        -11    1    3    3    0    0 -0.47244606978E+02 -0.37613173946E+02 -0.24780009187E+03  0.25505232654E+03  0.00000000000E+00 0.  1.
         11    1    3    3    0    0  0.77795793373E+01  0.37915566252E+02 -0.18587597684E+03  0.18986308431E+03  0.00000000000E+00 0. -1.
        -13    1    4    4    0    0  0.45467891908E+02 -0.49711739419E+02 -0.99673594929E+02  0.12030549346E+03  0.00000000000E+00 0.  1.
         13    1    4    4    0    0  0.14660966022E+02  0.40954368693E+02 -0.96456763277E+02  0.10581167904E+03  0.00000000000E+00 0. -1.
         -1    1    1    2    0  502 -0.20663830289E+02  0.84549784196E+01 -0.80991605889E+02  0.84012622664E+02  0.00000000000E+00 0.  1.
<scales pt_clust_5="13000.00000" pt_clust_6="13000.00000" pt_clust_7="13000.00000" pt_clust_8="13000.00000" pt_clust_9="22.32669"></scales>
<clustering>
<clus scale="   22.327">  1  9  2 -1</clus>
<clus scale="   91.199">  5  6 -1 -1</clus>
<clus scale="   94.708">  7  8 -1 -1</clus>
<clus scale="  101.774">  2  5  1 -1</clus>
<clus scale="   22.327">  1  5  2 -1</clus>
</clustering>
</event>
<event>
 9    1  0.1601012E-005  0.1556368E+03  0.7546771E-02  0.1214431E+00
          1   -1    0    0  502    0 -0.00000000000E+00  0.00000000000E+00  0.13109601205E+03  0.13109601205E+03  0.00000000000E+00 0. -1.
         21   -1    0    0  501  502  0.00000000000E+00 -0.00000000000E+00 -0.36347678096E+03  0.36347678096E+03  0.00000000000E+00 0. -1.
         23    2    1    2    0    0 -0.30270212766E+02  0.23823553776E+02  0.25796274481E+02  0.10283392455E+03  0.91790635498E+02 0.  0.
         23    2    1    2    0    0  0.10579893308E+03 -0.11030595463E+03 -0.13039470446E+03  0.21994795081E+03  0.89518178297E+02 0.  0.
        -11    1    4    4    0    0  0.60447168184E+02 -0.21886316981E+02 -0.94495241267E+02  0.11429007671E+03  0.00000000000E+00 0. -1.
         11    1    4    4    0    0  0.45351764892E+02 -0.88419637651E+02 -0.35899463198E+02  0.10565787410E+03  0.00000000000E+00 0.  1.
        -13    1    3    3    0    0 -0.40042316162E+02 -0.18189681637E+02 -0.11885764806E+02  0.45557908279E+02  0.00000000000E+00 0. -1.
         13    1    3    3    0    0  0.97721033961E+01  0.42013235413E+02  0.37682039287E+02  0.57276016268E+02  0.00000000000E+00 0.  1.
          1    1    1    2  501    0 -0.75528720310E+02  0.86482400857E+02 -0.12778233893E+03  0.17179091766E+03  0.00000000000E+00 0. -1.
<scales pt_clust_5="13000.00000" pt_clust_6="13000.00000" pt_clust_7="13000.00000" pt_clust_8="13000.00000" pt_clust_9="127.31572"></scales>
<clustering>
<clus scale="   89.518">  5  6 -1 -1</clus>
<clus scale="   91.791">  7  8 -1 -1</clus>
<clus scale="   99.546">  1  7  2 -1</clus>
<clus scale="  127.316">  2  9  1 -1</clus>
<clus scale="  127.316">  2  5  1 -1</clus>
</clustering>
</event>
<event>
 9    1  0.1601012E-005  0.1161890E+03  0.7546771E-02  0.1256132E+00
          1   -1    0    0  502    0 -0.00000000000E+00  0.00000000000E+00  0.80404789704E+03  0.80404789704E+03  0.00000000000E+00 0. -1.
         21   -1    0    0  501  502  0.00000000000E+00 -0.00000000000E+00 -0.11761612391E+03  0.11761612391E+03  0.00000000000E+00 0. -1.
         23    2    1    2    0    0 -0.63131660466E+02 -0.43101390334E+02  0.47986721571E+03  0.49763017612E+03  0.10733084864E+03 0.  0.
         23    2    1    2    0    0 -0.20677696460E+02  0.36197325869E+02  0.28914603537E+03  0.30617216779E+03  0.91641437305E+02 0.  0.
        -11    1    4    4    0    0 -0.48384510576E+02 -0.73501119188E+01  0.13315832446E+03  0.14186692490E+03  0.00000000000E+00 0. -1.
         11    1    4    4    0    0  0.27706814117E+02  0.43547437788E+02  0.15598771091E+03  0.16430524289E+03  0.00000000000E+00 0.  1.
        -13    1    3    3    0    0 -0.38051543982E+02 -0.79130884845E+02  0.32726767409E+03  0.33884177346E+03  0.00000000000E+00 0. -1.
         13    1    3    3    0    0 -0.25080116484E+02  0.36029494511E+02  0.15259954162E+03  0.15878840267E+03  0.00000000000E+00 0.  1.
          1    1    1    2  501    0  0.83809356925E+02  0.69040644651E+01 -0.82581477947E+02  0.11786167704E+03  0.00000000000E+00 0. -1.
<scales pt_clust_5="13000.00000" pt_clust_6="13000.00000" pt_clust_7="13000.00000" pt_clust_8="13000.00000" pt_clust_9="84.09325"></scales>
<clustering>
<clus scale="   84.093">  2  9  1 -1</clus>
<clus scale="   91.641">  5  6 -1 -1</clus>
<clus scale="  101.873">  2  5  1 -1</clus>
<clus scale="  107.331">  7  8 -1 -1</clus>
<clus scale="   84.093">  2  5  1 -1</clus>
</clustering>
</event>
<event>
 9    1  0.1601012E-005  0.1052606E+03  0.7546771E-02  0.1269928E+00
          1   -1    0    0  502    0 -0.00000000000E+00  0.00000000000E+00  0.54107662691E+03  0.54107662691E+03  0.00000000000E+00 0. -1.
         21   -1    0    0  501  502  0.00000000000E+00 -0.00000000000E+00 -0.48447388187E+02  0.48447388187E+02  0.00000000000E+00 0. -1.
         23    2    1    2    0    0  0.50583925586E+02  0.34749215945E+02  0.42888836929E+03  0.44233040431E+03  0.89133112402E+02 0.  0.
         23    2    1    2    0    0 -0.30086604145E+02 -0.71086574954E+01  0.60379655952E+02  0.11261849815E+03  0.89897088455E+02 0.  0.
        -11    1    3    3    0    0 -0.15756876103E+02  0.25248588719E+02  0.55509446197E+02  0.62984672690E+02  0.00000000000E+00 0.  1.
         11    1    3    3    0    0  0.66340801688E+02  0.95006272266E+01  0.37337892309E+03  0.37934573162E+03  0.00000000000E+00 0. -1.
        -13    1    4    4    0    0  0.84966371058E+01 -0.34578190422E+02 -0.34352676450E+00  0.35608455535E+02  0.00000000000E+00 0.  1.
         13    1    4    4    0    0 -0.38583241251E+02  0.27469532926E+02  0.60723182717E+02  0.77010042617E+02  0.00000000000E+00 0. -1.
          1    1    1    2  501    0 -0.20497321441E+02 -0.27640558450E+02  0.33612134783E+01  0.34575112635E+02  0.00000000000E+00 0. -1.
<scales pt_clust_5="13000.00000" pt_clust_6="13000.00000" pt_clust_7="13000.00000" pt_clust_8="13000.00000" pt_clust_9="34.41134"></scales>
<clustering>
<clus scale="   34.411">  2  9  1 -1</clus>
<clus scale="   89.133">  5  6 -1 -1</clus>
<clus scale="   89.897">  7  8 -1 -1</clus>
<clus scale="  104.609">  1  5  2 -1</clus>
<clus scale="   34.411">  2  5  1 -1</clus>
</clustering>
</event>
<event>
 9    1  0.1601012E-005  0.9479638E+02  0.7546771E-02  0.1293076E+00
         -3   -1    0    0    0  501 -0.00000000000E+00  0.00000000000E+00  0.61885805385E+02  0.61885805385E+02  0.00000000000E+00 0.  1.
         21   -1    0    0  501  502  0.00000000000E+00 -0.00000000000E+00 -0.38190875333E+03  0.38190875333E+03  0.00000000000E+00 0. -1.
         23    2    1    2    0    0 -0.49043612753E+01  0.34739985892E+02 -0.29954598265E+02  0.10374443616E+03  0.92923144041E+02 0.  0.
         23    2    1    2    0    0  0.89398301784E+01  0.54109136086E+01 -0.66010774155E+02  0.11238770385E+03  0.90356931786E+02 0.  0.
        -11    1    3    3    0    0  0.30563409228E+02  0.78767855662E+01  0.19595289047E+02  0.37150250165E+02  0.00000000000E+00 0.  1.
         11    1    3    3    0    0 -0.35467770503E+02  0.26863200326E+02 -0.49549887313E+02  0.66594185999E+02  0.00000000000E+00 0. -1.
        -13    1    4    4    0    0  0.39336483420E+02  0.27538053624E+02 -0.17711748606E+02  0.51180165729E+02  0.00000000000E+00 0.  1.
         13    1    4    4    0    0 -0.30396653242E+02 -0.22127140016E+02 -0.48299025548E+02  0.61207538118E+02  0.00000000000E+00 0. -1.
         -3    1    1    2    0  502 -0.40354689031E+01 -0.40150899501E+02 -0.22405757552E+03  0.22766241870E+03  0.00000000000E+00 0.  1.
<scales pt_clust_5="13000.00000" pt_clust_6="13000.00000" pt_clust_7="13000.00000" pt_clust_8="13000.00000" pt_clust_9="40.35319"></scales>
<clustering>
<clus scale="   40.353">  2  9  1 -1</clus>
<clus scale="   90.357">  7  8 -1 -1</clus>
<clus scale="   92.282">  2  7  1 -1</clus>
<clus scale="   92.923">  5  6 -1 -1</clus>
<clus scale="   40.353">  2  5  1 -1</clus>
</clustering>
</event>
<event>
 9    1  0.1601012E-005  0.9174166E+02  0.7546771E-02  0.1302237E+00
         21   -1    0    0  501  502  0.00000000000E+00  0.00000000000E+00  0.26376642618E+03  0.26376642618E+03  0.00000000000E+00 0. -1.
         -3   -1    0    0    0  501 -0.00000000000E+00 -0.00000000000E+00 -0.40798300879E+02  0.40798300879E+02  0.00000000000E+00 0.  1.
         23    2    1    2    0    0 -0.73767871822E+01  0.12700325895E+02  0.69718152571E+02  0.11565981024E+03  0.91109031601E+02 0.  0.
         23    2    1    2    0    0 -0.15503269892E+02 -0.74941597178E+01  0.11996839587E+03  0.14818312246E+03  0.85260236724E+02 0.  0.
        -13    1    4    4    0    0  0.25859567121E+02 -0.47794876218E+01  0.60877881326E+01  0.26992996832E+02  0.00000000000E+00 0.  1.
         13    1    4    4    0    0 -0.41362837014E+02 -0.27146720960E+01  0.11388060774E+03  0.12119012562E+03  0.00000000000E+00 0. -1.
        -13    1    3    3    0    0  0.31318746875E+02 -0.11567458296E+02  0.60444470640E+02  0.69052183371E+02  0.00000000000E+00 0.  1.
         13    1    3    3    0    0 -0.38695534058E+02  0.24267784191E+02  0.92736819302E+01  0.46607626866E+02  0.00000000000E+00 0. -1.
         -3    1    1    2    0  502  0.22880057075E+02 -0.52061661769E+01  0.33281576863E+02  0.40721794367E+02  0.00000000000E+00 0.  1.
<scales pt_clust_5="13000.00000" pt_clust_6="13000.00000" pt_clust_7="13000.00000" pt_clust_8="13000.00000" pt_clust_9="23.46489"></scales>
<clustering>
<clus scale="   23.465">  1  9  2 -1</clus>
<clus scale="   85.260">  5  6 -1 -1</clus>
<clus scale="   85.936">  1  5  2 -1</clus>
<clus scale="   91.109">  7  8 -1 -1</clus>
<clus scale="   23.465">  1  5  2 -1</clus>
</clustering>
</event>
<event>
 9    1  0.1601012E-005  0.1259450E+03  0.7546771E-02  0.1248259E+00
         21   -1    0    0  501  502  0.00000000000E+00  0.00000000000E+00  0.28085312640E+03  0.28085312640E+03  0.00000000000E+00 0. -1.
         -1   -1    0    0    0  501 -0.00000000000E+00 -0.00000000000E+00 -0.11919951839E+03  0.11919951839E+03  0.00000000000E+00 0.  1.
         23    2    1    2    0    0  0.16165058148E+02 -0.11432769652E+02 -0.19662680231E+02  0.94379495352E+02  0.90160139875E+02 0.  0.
         23    2    1    2    0    0 -0.42196630379E+02 -0.20589541377E+02  0.13387017356E+02  0.13274741054E+03  0.12344301496E+03 0.  0.
        -11    1    3    3    0    0  0.49720398588E+02  0.44935465573E+01 -0.26640821878E+02  0.56586600770E+02  0.00000000000E+00 0.  1.
         11    1    3    3    0    0 -0.33555340440E+02 -0.15926316210E+02  0.69781416473E+01  0.37792894582E+02  0.00000000000E+00 0. -1.
        -11    1    4    4    0    0 -0.44220733764E+02  0.46306799930E+02 -0.20530318952E+01  0.64062531595E+02  0.00000000000E+00 0.  1.
         11    1    4    4    0    0  0.20241033853E+01 -0.66896341307E+02  0.15440049251E+02  0.68684878945E+02  0.00000000000E+00 0. -1.
         -1    1    1    2    0  502  0.26031572231E+02  0.32022311029E+02  0.16792927088E+03  0.17292573890E+03  0.00000000000E+00 0.  1.
<scales pt_clust_5="13000.00000" pt_clust_6="13000.00000" pt_clust_7="13000.00000" pt_clust_8="13000.00000" pt_clust_9="41.26828"></scales>
<clustering>
<clus scale="   41.268">  1  9  2 -1</clus>
<clus scale="   90.160">  5  6 -1 -1</clus>
<clus scale="   93.556">  2  5  1 -1</clus>
<clus scale="  123.443">  7  8 -1 -1</clus>
<clus scale="   41.268">  1  5  2 -1</clus>
</clustering>
</event>
<event>
 9    1  0.1601012E-005  0.1188081E+03  0.7546771E-02  0.1245139E+00
          2   -1    0    0  502    0 -0.00000000000E+00  0.00000000000E+00  0.23320970498E+03  0.23320970498E+03  0.00000000000E+00 0. -1.
         21   -1    0    0  501  502  0.00000000000E+00 -0.00000000000E+00 -0.14951038378E+03  0.14951038378E+03  0.00000000000E+00 0.  1.
         23    2    1    2    0    0 -0.20229008500E+02  0.77874176538E+02  0.14767426742E+03  0.19130645518E+03  0.91196877020E+02 0.  0.
         23    2    1    2    0    0  0.41631982963E+02 -0.54580617343E+02  0.61682284790E+01  0.11446727452E+03  0.91391706947E+02 0.  0.
        -13    1    3    3    0    0  0.34117212326E+02  0.47301766623E+02  0.83263518486E+02  0.10165753692E+03  0.00000000000E+00 0. -1.
         13    1    3    3    0    0 -0.54346220826E+02  0.30572409914E+02  0.64410748933E+02  0.89648918254E+02  0.00000000000E+00 0.  1.
        -13    1    4    4    0    0  0.27195018174E+02  0.48942093821E+01  0.36806789000E+02  0.46024580557E+02  0.00000000000E+00 0. -1.
         13    1    4    4    0    0  0.14436964789E+02 -0.59474826725E+02 -0.30638560521E+02  0.68442693965E+02  0.00000000000E+00 0.  1.
          2    1    1    2  501    0 -0.21402974463E+02 -0.23293559194E+02 -0.70143174704E+02  0.76946359065E+02  0.00000000000E+00 0. -1.
<scales pt_clust_5="13000.00000" pt_clust_6="13000.00000" pt_clust_7="13000.00000" pt_clust_8="13000.00000" pt_clust_9="31.63348"></scales>
<clustering>
<clus scale="   31.633">  2  9  1 -1</clus>
<clus scale="   91.197">  5  6 -1 -1</clus>
<clus scale="   91.392">  7  8 -1 -1</clus>
<clus scale="  118.658">  1  5  2 -1</clus>
<clus scale="   31.633">  2  5  1 -1</clus>
</clustering>
</event>
<event>
 9    1  0.1601012E-005  0.1015969E+03  0.7546771E-02  0.1277117E+00
          1   -1    0    0  502    0 -0.00000000000E+00  0.00000000000E+00  0.52738646362E+03  0.52738646362E+03  0.00000000000E+00 0. -1.
         21   -1    0    0  501  502  0.00000000000E+00 -0.00000000000E+00 -0.28897488391E+02  0.28897488391E+02  0.00000000000E+00 0.  1.
         23    2    1    2    0    0 -0.11840016262E+02 -0.39274133024E+02  0.28692723635E+03  0.30446916742E+03  0.93228705020E+02 0.  0.
         23    2    1    2    0    0 -0.19107023042E+02  0.42422663748E+02  0.14556359564E+03  0.17885323720E+03  0.92924481979E+02 0.  0.
        -11    1    3    3    0    0 -0.15067576805E+02  0.14658655356E+02  0.11840744811E+02  0.24126982515E+02  0.00000000000E+00 0.  1.
         11    1    3    3    0    0  0.32275605433E+01 -0.53932788380E+02  0.27508649154E+03  0.28034218490E+03  0.00000000000E+00 0. -1.
        -11    1    4    4    0    0 -0.32852828831E+02  0.65083441298E+02  0.80544369637E+02  0.10863957922E+03  0.00000000000E+00 0.  1.
         11    1    4    4    0    0  0.13745805790E+02 -0.22660777550E+02  0.65019226008E+02  0.70213657978E+02  0.00000000000E+00 0. -1.
          1    1    1    2  501    0  0.30947039303E+02 -0.31485307240E+01  0.65998143239E+02  0.72961547395E+02  0.00000000000E+00 0. -1.
<scales pt_clust_5="13000.00000" pt_clust_6="13000.00000" pt_clust_7="13000.00000" pt_clust_8="13000.00000" pt_clust_9="31.10681"></scales>
<clustering>
<clus scale="   31.107">  2  9  1 -1</clus>
<clus scale="   92.924">  7  8 -1 -1</clus>
<clus scale="   93.229">  5  6 -1 -1</clus>
<clus scale="  101.318">  2  7  1 -1</clus>
<clus scale="   31.107">  2  5  1 -1</clus>
</clustering>
</event>
<event>
 9    1  0.1601012E-005  0.1710695E+03  0.7546771E-02  0.1186942E+00
          1   -1    0    0  502    0 -0.00000000000E+00  0.00000000000E+00  0.45255458550E+03  0.45255458550E+03  0.00000000000E+00 0. -1.
         21   -1    0    0  501  502  0.00000000000E+00 -0.00000000000E+00 -0.15283427039E+03  0.15283427039E+03  0.00000000000E+00 0. -1.
         23    2    1    2    0    0  0.95625984560E+02  0.14659267409E+02  0.19013649764E+03  0.23382866452E+03  0.95732614991E+02 0.  0.
         23    2    1    2    0    0  0.31368857992E+02 -0.11412985209E+03  0.14281910763E+03  0.20685842525E+03  0.91561357597E+02 0.  0.
        -11    1    3    3    0    0 -0.12652322361E+01  0.21472916193E+02  0.13885018322E+01  0.21554927042E+02  0.00000000000E+00 0.  1.
         11    1    3    3    0    0  0.96891216796E+02 -0.68136487840E+01  0.18874799581E+03  0.21227373748E+03  0.00000000000E+00 0. -1.
        -13    1    4    4    0    0  0.54033277573E+02 -0.11278190179E+03  0.13156506085E+03  0.18151781646E+03  0.00000000000E+00 0. -1.
         13    1    4    4    0    0 -0.22664419580E+02 -0.13479502935E+01  0.11254046780E+02  0.25340608789E+02  0.00000000000E+00 0.  1.
          1    1    1    2  501    0 -0.12699484255E+03  0.99470584677E+02 -0.33235290157E+02  0.16470176612E+03  0.00000000000E+00 0. -1.
<scales pt_clust_5="13000.00000" pt_clust_6="13000.00000" pt_clust_7="13000.00000" pt_clust_8="13000.00000" pt_clust_9="144.50361"></scales>
<clustering>
<clus scale="   91.561">  7  8 -1 -1</clus>
<clus scale="   95.733">  5  6 -1 -1</clus>
<clus scale="  136.103">  1  5  2 -1</clus>
<clus scale="  144.504">  2  9  1 -1</clus>
<clus scale="  144.504">  2  5  1 -1</clus>
</clustering>
</event>
<event>
 9    1  0.1601012E-005  0.1399543E+03  0.7546771E-02  0.1213708E+00
          1   -1    0    0  502    0 -0.00000000000E+00  0.00000000000E+00  0.12249997345E+03  0.12249997345E+03  0.00000000000E+00 0. -1.
         21   -1    0    0  501  502  0.00000000000E+00 -0.00000000000E+00 -0.31755394824E+03  0.31755394824E+03  0.00000000000E+00 0. -1.
         23    2    1    2    0    0 -0.81078318187E+02  0.89577864912E+02 -0.12680750754E+02  0.15143211902E+03  0.90404633004E+02 0.  0.
         23    2    1    2    0    0  0.77322714988E+01 -0.82022402645E+02 -0.17555302275E+03  0.21457288154E+03  0.91843318414E+02 0.  0.
        -11    1    4    4    0    0  0.38416367951E+02 -0.29815186891E+01 -0.51772441311E+02  0.64537527529E+02  0.00000000000E+00 0.  1.
         11    1    4    4    0    0 -0.30684096452E+02 -0.79040883956E+02 -0.12378058144E+03  0.15003535401E+03  0.00000000000E+00 0. -1.
        -13    1    3    3    0    0 -0.41824619877E+02  0.20751852774E+02  0.35541609614E+02  0.58678311457E+02  0.00000000000E+00 0.  1.
         13    1    3    3    0    0 -0.39253698309E+02  0.68826012138E+02 -0.48222360369E+02  0.92753807562E+02  0.00000000000E+00 0. -1.
          1    1    1    2  501    0  0.73346046688E+02 -0.75554622673E+01 -0.68202012759E+01  0.74048921128E+02  0.00000000000E+00 0. -1.
<scales pt_clust_5="13000.00000" pt_clust_6="13000.00000" pt_clust_7="13000.00000" pt_clust_8="13000.00000" pt_clust_9="73.73421"></scales>
<clustering>
<clus scale="   73.734">  2  9  1 -1</clus>
<clus scale="   90.405">  7  8 -1 -1</clus>
<clus scale="   91.843">  5  6 -1 -1</clus>
<clus scale="  139.014">  1  7  2 -1</clus>
<clus scale="   73.734">  2  5  1 -1</clus>
</clustering>
</event>
<event>
 9    1  0.1601012E-005  0.1009645E+03  0.7546771E-02  0.1279828E+00
         21   -1    0    0  501  502  0.00000000000E+00  0.00000000000E+00  0.31636382901E+03  0.31636382901E+03  0.00000000000E+00 0. -1.
          1   -1    0    0  502    0 -0.00000000000E+00 -0.00000000000E+00 -0.77744492486E+02  0.77744492486E+02  0.00000000000E+00 0. -1.
         23    2    1    2    0    0 -0.24871238310E+02  0.49149354709E+02  0.20392459938E+01  0.10851216563E+03  0.93469214195E+02 0.  0.
         23    2    1    2    0    0 -0.20512944639E+02  0.63723258360E+00  0.13924635432E+03  0.16722265992E+03  0.90292213608E+02 0.  0.
        -11    1    3    3    0    0  0.24329693050E+02 -0.14027667565E+02 -0.31992607169E+01  0.28265609676E+02  0.00000000000E+00 0.  1.
         11    1    3    3    0    0 -0.49200931360E+02  0.63177022274E+02  0.52385067107E+01  0.80246555955E+02  0.00000000000E+00 0. -1.
        -13    1    4    4    0    0 -0.54243492270E+02 -0.16538688830E+01  0.59095377660E+02  0.80233131539E+02  0.00000000000E+00 0.  1.
         13    1    4    4    0    0  0.33730547630E+02  0.22911014666E+01  0.80150976656E+02  0.86989528383E+02  0.00000000000E+00 0. -1.
          1    1    1    2  501    0  0.45384182950E+02 -0.49786587293E+02  0.97333736216E+02  0.11837349594E+03  0.00000000000E+00 0. -1.
<scales pt_clust_5="13000.00000" pt_clust_6="13000.00000" pt_clust_7="13000.00000" pt_clust_8="13000.00000" pt_clust_9="67.36786"></scales>
<clustering>
<clus scale="   67.368">  1  9  2 -1</clus>
<clus scale="   90.292">  7  8 -1 -1</clus>
<clus scale="   93.469">  5  6 -1 -1</clus>
<clus scale="   98.031">  1  7  2 -1</clus>
<clus scale="   67.368">  1  5  2 -1</clus>
</clustering>
</event>
<event>
 9    1  0.1601012E-005  0.9250184E+02  0.7546771E-02  0.1299096E+00
         -2   -1    0    0    0  501 -0.00000000000E+00  0.00000000000E+00  0.40906785126E+02  0.40906785126E+02  0.00000000000E+00 0.  1.
         21   -1    0    0  501  502  0.00000000000E+00 -0.00000000000E+00 -0.36487682982E+03  0.36487682982E+03  0.00000000000E+00 0. -1.
         23    2    1    2    0    0 -0.19026044365E+02  0.25931524830E+01 -0.44852528575E+02  0.10317868157E+03  0.90914114451E+02 0.  0.
         23    2    1    2    0    0  0.51369520453E+01 -0.21303888966E+02 -0.18547877731E+03  0.20611031203E+03  0.87171325146E+02 0.  0.
        -13    1    3    3    0    0  0.25340132574E+02  0.84044518328E+01 -0.51435930881E+02  0.57951808557E+02  0.00000000000E+00 0. -1.
         13    1    3    3    0    0 -0.44366176939E+02 -0.58112993498E+01  0.65834023052E+01  0.45226873010E+02  0.00000000000E+00 0.  1.
        -13    1    4    4    0    0  0.36652777789E+02 -0.11919438876E+02 -0.15981721563E+03  0.16439903149E+03  0.00000000000E+00 0. -1.
         13    1    4    4    0    0 -0.31515825744E+02 -0.93844500903E+01 -0.25661561681E+02  0.41711280533E+02  0.00000000000E+00 0.  1.
         -2    1    1    2    0  502  0.13889092320E+02  0.18710736483E+02 -0.93638738809E+02  0.96494621358E+02  0.00000000000E+00 0.  1.
<scales pt_clust_5="13000.00000" pt_clust_6="13000.00000" pt_clust_7="13000.00000" pt_clust_8="13000.00000" pt_clust_9="23.30233"></scales>
<clustering>
<clus scale="   23.302">  2  9  1 -1</clus>
<clus scale="   87.171">  7  8 -1 -1</clus>
<clus scale="   88.826">  2  7  1 -1</clus>
<clus scale="   90.914">  5  6 -1 -1</clus>
<clus scale="   23.302">  2  5  1 -1</clus>
</clustering>
</event>
<event>
 9    1  0.1601012E-005  0.9186186E+02  0.7546771E-02  0.1298545E+00
         21   -1    0    0  501  502  0.00000000000E+00  0.00000000000E+00  0.55801555379E+02  0.55801555379E+02  0.00000000000E+00 0.  1.
          1   -1    0    0  502    0 -0.00000000000E+00 -0.00000000000E+00 -0.23001607646E+03  0.23001607646E+03  0.00000000000E+00 0. -1.
         23    2    1    2    0    0  0.26528633384E+02  0.19054946233E+02 -0.94130304586E+02  0.13455586096E+03  0.90431776009E+02 0.  0.
         23    2    1    2    0    0 -0.98690281853E+00  0.79321810973E+01 -0.63381350347E+02  0.11052271371E+03  0.90189695637E+02 0.  0.
        -13    1    4    4    0    0 -0.43595733769E+02  0.13412910389E+02 -0.21136380829E+02  0.50271669582E+02  0.00000000000E+00 0. -1.
         13    1    4    4    0    0  0.42608830951E+02 -0.54807292919E+01 -0.42244969518E+02  0.60251044125E+02  0.00000000000E+00 0.  1.
        -13    1    3    3    0    0  0.10055017555E+02  0.41093417148E+02 -0.98026922817E+02  0.10676633321E+03  0.00000000000E+00 0. -1.
         13    1    3    3    0    0  0.16473615829E+02 -0.22038470915E+02  0.38966182305E+01  0.27789527747E+02  0.00000000000E+00 0.  1.
          1    1    1    2  501    0 -0.25541730565E+02 -0.26987127330E+02 -0.16702866149E+02  0.40739057173E+02  0.00000000000E+00 0. -1.
<scales pt_clust_5="13000.00000" pt_clust_6="13000.00000" pt_clust_7="13000.00000" pt_clust_8="13000.00000" pt_clust_9="37.15757"></scales>
<clustering>
<clus scale="   37.158">  1  9  2 -1</clus>
<clus scale="   90.190">  5  6 -1 -1</clus>
<clus scale="   90.432">  7  8 -1 -1</clus>
<clus scale="   91.624">  1  5  2 -1</clus>
<clus scale="   37.158">  1  5  2 -1</clus>
</clustering>
</event>
<event>
 9    1  0.1601012E-005  0.1220171E+03  0.7546771E-02  0.1250517E+00
         21   -1    0    0  501  502  0.00000000000E+00  0.00000000000E+00  0.19892366572E+03  0.19892366572E+03  0.00000000000E+00 0.  1.
         -2   -1    0    0    0  501 -0.00000000000E+00 -0.00000000000E+00 -0.31730626167E+03  0.31730626167E+03  0.00000000000E+00 0.  1.
         23    2    1    2    0    0 -0.22313821962E+02  0.16415274972E+02 -0.22831254083E+03  0.24783646719E+03  0.92352207684E+02 0.  0.
         23    2    1    2    0    0  0.48571336279E+02 -0.60016134034E+02 -0.73210535472E+01  0.14057214507E+03  0.11724256519E+03 0.  0.
        -11    1    4    4    0    0  0.15908546888E+02 -0.71803720555E+02 -0.47435656797E+02  0.87515699651E+02  0.00000000000E+00 0.  1.
         11    1    4    4    0    0  0.32662789391E+02  0.11787586521E+02  0.40114603250E+02  0.53056445421E+02  0.00000000000E+00 0. -1.
        -13    1    3    3    0    0 -0.31899645567E+02 -0.31566380133E+02 -0.13809873821E+03  0.14520773133E+03  0.00000000000E+00 0.  1.
         13    1    3    3    0    0  0.95858236058E+01  0.47981655105E+02 -0.90213802617E+02  0.10262873586E+03  0.00000000000E+00 0. -1.
         -2    1    1    2    0  502 -0.26257514317E+02  0.43600859062E+02  0.11725099843E+03  0.12782131513E+03  0.00000000000E+00 0.  1.
<scales pt_clust_5="13000.00000" pt_clust_6="13000.00000" pt_clust_7="13000.00000" pt_clust_8="13000.00000" pt_clust_9="50.89688"></scales>
<clustering>
<clus scale="   50.897">  1  9  2 -1</clus>
<clus scale="   92.352">  7  8 -1 -1</clus>
<clus scale="   98.343">  2  7  1 -1</clus>
<clus scale="  117.243">  5  6 -1 -1</clus>
<clus scale="   50.897">  1  5  2 -1</clus>
</clustering>
</event>
<event>
 9    1  0.1601012E-005  0.9427606E+02  0.7546771E-02  0.1293013E+00
         21   -1    0    0  501  502  0.00000000000E+00  0.00000000000E+00  0.21675578273E+03  0.21675578273E+03  0.00000000000E+00 0. -1.
         -1   -1    0    0    0  501 -0.00000000000E+00 -0.00000000000E+00 -0.59729202567E+02  0.59729202567E+02  0.00000000000E+00 0.  1.
         23    2    1    2    0    0 -0.10351074820E+02 -0.25877956441E+02  0.21895537795E+02  0.98338489264E+02  0.91729114876E+02 0.  0.
         23    2    1    2    0    0  0.11451987935E+01  0.55056390292E+01  0.96443752018E+02  0.13346444253E+03  0.92085485156E+02 0.  0.
        -11    1    4    4    0    0 -0.38055413393E+02 -0.22124061648E+02  0.40991093818E+02  0.60149466870E+02  0.00000000000E+00 0. -1.
         11    1    4    4    0    0  0.39200612187E+02  0.27629700677E+02  0.55452658200E+02  0.73314975665E+02  0.00000000000E+00 0.  1.
        -11    1    3    3    0    0  0.45586648003E+01  0.24530206342E+02 -0.19307272675E+02  0.31548109707E+02  0.00000000000E+00 0.  1.
         11    1    3    3    0    0 -0.14909739620E+02 -0.50408162783E+02  0.41202810471E+02  0.66790379557E+02  0.00000000000E+00 0. -1.
         -1    1    1    2    0  502  0.92058760260E+01  0.20372317412E+02  0.38687290350E+02  0.44682053498E+02  0.00000000000E+00 0.  1.
<scales pt_clust_5="13000.00000" pt_clust_6="13000.00000" pt_clust_7="13000.00000" pt_clust_8="13000.00000" pt_clust_9="22.35575"></scales>
<clustering>
<clus scale="   22.356">  1  9  2 -1</clus>
<clus scale="   91.729">  7  8 -1 -1</clus>
<clus scale="   92.085">  5  6 -1 -1</clus>
<clus scale="   93.928">  2  7  1 -1</clus>
<clus scale="   22.356">  1  5  2 -1</clus>
</clustering>
</event>
<event>
 9    1  0.1601012E-005  0.1235888E+03  0.7546771E-02  0.1237294E+00
         21   -1    0    0  501  502  0.00000000000E+00  0.00000000000E+00  0.55078021447E+02  0.55078021447E+02  0.00000000000E+00 0.  1.
          2   -1    0    0  502    0 -0.00000000000E+00 -0.00000000000E+00 -0.36664579972E+03  0.36664579972E+03  0.00000000000E+00 0. -1.
         23    2    1    2    0    0  0.52711258271E+02  0.79444194024E+02 -0.17827688926E+03  0.22164411459E+03  0.90849367522E+02 0.  0.
         23    2    1    2    0    0 -0.35774788967E+02 -0.62766396006E+02 -0.13269418571E+03  0.17630263791E+03  0.90859326553E+02 0.  0.
        -13    1    4    4    0    0 -0.28786039913E+02  0.15010308199E+02 -0.66224055054E+02  0.73753446794E+02  0.00000000000E+00 0.  1.
         13    1    4    4    0    0 -0.69887490537E+01 -0.77776704205E+02 -0.66470130652E+02  0.10254919112E+03  0.00000000000E+00 0. -1.
        -13    1    3    3    0    0 -0.15777534710E+02  0.29665791699E+02 -0.10303319996E+03  0.10837356732E+03  0.00000000000E+00 0. -1.
         13    1    3    3    0    0  0.68488792981E+02  0.49778402325E+02 -0.75243689294E+02  0.11327054728E+03  0.00000000000E+00 0.  1.
          2    1    1    2  501    0 -0.16936469304E+02 -0.16677798017E+02 -0.59670331086E+00  0.23777068659E+02  0.00000000000E+00 0. -1.
<scales pt_clust_5="13000.00000" pt_clust_6="13000.00000" pt_clust_7="13000.00000" pt_clust_8="13000.00000" pt_clust_9="23.76958"></scales>
<clustering>
<clus scale="   23.770">  1  9  2 -1</clus>
<clus scale="   90.849">  7  8 -1 -1</clus>
<clus scale="   90.859">  5  6 -1 -1</clus>
<clus scale="  123.581">  2  7  1 -1</clus>
<clus scale="   23.770">  1  5  2 -1</clus>
</clustering>
</event>
<event>
 9    1  0.1601012E-005  0.1328420E+03  0.7546771E-02  0.1223320E+00
          2   -1    0    0  502    0 -0.00000000000E+00  0.00000000000E+00  0.79356137642E+02  0.79356137642E+02  0.00000000000E+00 0. -1.
         21   -1    0    0  501  502  0.00000000000E+00 -0.00000000000E+00 -0.28759009868E+03  0.28759009868E+03  0.00000000000E+00 0.  1.
         23    2    1    2    0    0 -0.39527069490E+02 -0.89275790995E+02 -0.40177369446E+02  0.13932804451E+03  0.90914943165E+02 0.  0.
         23    2    1    2    0    0  0.19568353443E+02  0.94834765368E+02 -0.14370761702E+03  0.19564750047E+03  0.90826824626E+02 0.  0.
        -11    1    4    4    0    0 -0.32922735425E+02  0.13399397568E+02 -0.32611062546E+02  0.48238281100E+02  0.00000000000E+00 0.  1.
         11    1    4    4    0    0  0.52491088868E+02  0.81435367799E+02 -0.11109655448E+03  0.14740921937E+03  0.00000000000E+00 0. -1.
        -13    1    3    3    0    0 -0.45268712087E+02 -0.18817397306E+01 -0.79241437386E+01  0.45995535570E+02  0.00000000000E+00 0.  1.
         13    1    3    3    0    0  0.57416425970E+01 -0.87394051264E+02 -0.32253225708E+02  0.93332508938E+02  0.00000000000E+00 0. -1.
          2    1    1    2  501    0  0.19958716047E+02 -0.55589743729E+01 -0.24348974568E+02  0.31970691341E+02  0.00000000000E+00 0. -1.
<scales pt_clust_5="13000.00000" pt_clust_6="13000.00000" pt_clust_7="13000.00000" pt_clust_8="13000.00000" pt_clust_9="20.71841"></scales>
<clustering>
<clus scale="   20.718">  2  9  1 -1</clus>
<clus scale="   90.827">  5  6 -1 -1</clus>
<clus scale="   90.915">  7  8 -1 -1</clus>
<clus scale="  132.782">  2  5  1 -1</clus>
<clus scale="   20.718">  2  5  1 -1</clus>
</clustering>
</event>
<event>
 9    1  0.1601012E-005  0.1151529E+03  0.7546771E-02  0.1261256E+00
         21   -1    0    0  501  502  0.00000000000E+00  0.00000000000E+00  0.83157024312E+03  0.83157024312E+03  0.00000000000E+00 0.  1.
         -3   -1    0    0    0  501 -0.00000000000E+00 -0.00000000000E+00 -0.20686592048E+02  0.20686592048E+02  0.00000000000E+00 0.  1.
         23    2    1    2    0    0 -0.90709223858E+01 -0.43368889899E+02  0.23178425200E+03  0.25250749229E+03  0.89849607364E+02 0.  0.
         23    2    1    2    0    0  0.11717664235E+01  0.85914434325E+01  0.33616962829E+03  0.35421575866E+03  0.11128161915E+03 0.  0.
        -13    1    4    4    0    0  0.46382111444E+02 -0.25649101658E+02  0.19514621690E+03  0.20221578239E+03  0.00000000000E+00 0.  1.
         13    1    4    4    0    0 -0.45210345020E+02  0.34240545090E+02  0.14102341139E+03  0.15199997627E+03  0.00000000000E+00 0. -1.
        -13    1    3    3    0    0  0.22461549652E+02 -0.91634800801E+00  0.10174462131E+02  0.24675505792E+02  0.00000000000E+00 0. -1.
         13    1    3    3    0    0 -0.31532472038E+02 -0.42452541891E+02  0.22160978987E+03  0.22783198650E+03  0.00000000000E+00 0.  1.
         -3    1    1    2    0  502  0.78991559623E+01  0.34777446466E+02  0.24292977078E+03  0.24553358421E+03  0.00000000000E+00 0.  1.
<scales pt_clust_5="13000.00000" pt_clust_6="13000.00000" pt_clust_7="13000.00000" pt_clust_8="13000.00000" pt_clust_9="35.66325"></scales>
<clustering>
<clus scale="   35.663">  1  9  2 -1</clus>
<clus scale="   89.850">  7  8 -1 -1</clus>
<clus scale="   94.602">  2  7  1 -1</clus>
<clus scale="  111.282">  5  6 -1 -1</clus>
<clus scale="   35.663">  1  5  2 -1</clus>
</clustering>
</event>
<event>
 9    1  0.1601012E-005  0.1769166E+03  0.7546771E-02  0.1171199E+00
         21   -1    0    0  501  502  0.00000000000E+00  0.00000000000E+00  0.15460064028E+03  0.15460064028E+03  0.00000000000E+00 0. -1.
          2   -1    0    0  502    0 -0.00000000000E+00 -0.00000000000E+00 -0.42326171228E+03  0.42326171228E+03  0.00000000000E+00 0. -1.
         23    2    1    2    0    0  0.13526780303E+03  0.23820138299E+02 -0.19809929860E+03  0.25671592114E+03  0.88289039724E+02 0.  0.
         23    2    1    2    0    0 -0.18317943762E+03  0.18965878643E+02 -0.12185508114E+03  0.23894441566E+03  0.91276295152E+02 0.  0.
        -11    1    3    3    0    0  0.10057936419E+03  0.18290391231E+02 -0.70025742637E+02  0.12391267709E+03  0.00000000000E+00 0. -1.
         11    1    3    3    0    0  0.34688438834E+02  0.55297470684E+01 -0.12807355596E+03  0.13280324404E+03  0.00000000000E+00 0.  1.
        -13    1    4    4    0    0 -0.93339809966E+02 -0.20864931062E+02 -0.99791995708E+02  0.13822484538E+03  0.00000000000E+00 0. -1.
         13    1    4    4    0    0 -0.89839627659E+02  0.39830809706E+02 -0.22063085429E+02  0.10071957028E+03  0.00000000000E+00 0.  1.
          2    1    1    2  501    0  0.47911634597E+02 -0.42786016943E+02  0.51293307738E+02  0.82202015756E+02  0.00000000000E+00 0. -1.
<scales pt_clust_5="13000.00000" pt_clust_6="13000.00000" pt_clust_7="13000.00000" pt_clust_8="13000.00000" pt_clust_9="64.23525"></scales>
<clustering>
<clus scale="   64.235">  1  9  2 -1</clus>
<clus scale="   88.289">  5  6 -1 -1</clus>
<clus scale="   91.276">  7  8 -1 -1</clus>
<clus scale="  175.394">  2  5  1 -1</clus>
<clus scale="   64.235">  1  5  2 -1</clus>
</clustering>
</event>
<event>
 9    1  0.1601012E-005  0.1048615E+03  0.7546771E-02  0.1275471E+00
         21   -1    0    0  501  502  0.00000000000E+00  0.00000000000E+00  0.11949984591E+03  0.11949984591E+03  0.00000000000E+00 0. -1.
          1   -1    0    0  502    0 -0.00000000000E+00 -0.00000000000E+00 -0.21541739687E+03  0.21541739687E+03  0.00000000000E+00 0. -1.
         23    2    1    2    0    0  0.41843212428E+02 -0.10154988530E+02 -0.13971675671E+03  0.17653979677E+03  0.98952258798E+02 0.  0.
         23    2    1    2    0    0 -0.17320616317E+02  0.41887377551E+01 -0.17583602702E+02  0.92008755791E+02  0.88537442840E+02 0.  0.
        -11    1    3    3    0    0  0.12907802885E+02  0.36928240795E+02 -0.18403446456E+02  0.43231853823E+02  0.00000000000E+00 0.  1.
         11    1    3    3    0    0  0.28935409543E+02 -0.47083229325E+02 -0.12131331025E+03  0.13330794295E+03  0.00000000000E+00 0. -1.
        -11    1    4    4    0    0 -0.31314497421E+02  0.36161160587E+02 -0.28200031584E+02  0.55528993013E+02  0.00000000000E+00 0.  1.
         11    1    4    4    0    0  0.13993881105E+02 -0.31972422832E+02  0.10616428882E+02  0.36479762777E+02  0.00000000000E+00 0. -1.
          1    1    1    2  501    0 -0.24522596111E+02  0.59662507746E+01  0.61382808452E+02  0.66368690222E+02  0.00000000000E+00 0. -1.
<scales pt_clust_5="13000.00000" pt_clust_6="13000.00000" pt_clust_7="13000.00000" pt_clust_8="13000.00000" pt_clust_9="25.23795"></scales>
<clustering>
<clus scale="   25.238">  1  9  2 -1</clus>
<clus scale="   88.537">  7  8 -1 -1</clus>
<clus scale="   95.096">  1  7  2 -1</clus>
<clus scale="   98.952">  5  6 -1 -1</clus>
<clus scale="   25.238">  1  5  2 -1</clus>
</clustering>
</event>
<event>
 9    1  0.1601012E-005  0.2015364E+03  0.7546771E-02  0.1168493E+00
          2   -1    0    0  502    0 -0.00000000000E+00  0.00000000000E+00  0.21010253450E+03  0.21010253450E+03  0.00000000000E+00 0. -1.
         21   -1    0    0  501  502  0.00000000000E+00 -0.00000000000E+00 -0.40185671493E+03  0.40185671493E+03  0.00000000000E+00 0. -1.
         23    2    1    2    0    0 -0.27011280946E+02 -0.79661249711E+02 -0.11274960248E+03  0.16925090221E+03  0.94116263407E+02 0.  0.
         23    2    1    2    0    0  0.76565309839E+02  0.23083824743E+03  0.11841449844E+02  0.25950603504E+03  0.89747530003E+02 0.  0.
        -11    1    3    3    0    0  0.20600478934E+02 -0.69292391358E+02 -0.90102559686E+02  0.11551747268E+03  0.00000000000E+00 0.  1.
         11    1    3    3    0    0 -0.47611759880E+02 -0.10368858354E+02 -0.22647042793E+02  0.53733429535E+02  0.00000000000E+00 0. -1.
        -13    1    4    4    0    0  0.55216884285E+02  0.21421895131E+03  0.34901592852E+02  0.22395710436E+03  0.00000000000E+00 0. -1.
         13    1    4    4    0    0  0.21348425554E+02  0.16619296126E+02 -0.23060143008E+02  0.35548930686E+02  0.00000000000E+00 0.  1.
          2    1    1    2  501    0 -0.49554028894E+02 -0.15117699772E+03 -0.90846027799E+02  0.18320231217E+03  0.00000000000E+00 0. -1.
<scales pt_clust_5="13000.00000" pt_clust_6="13000.00000" pt_clust_7="13000.00000" pt_clust_8="13000.00000" pt_clust_9="180.45031"></scales>
<clustering>
<clus scale="   89.748">  7  8 -1 -1</clus>
<clus scale="   94.116">  5  6 -1 -1</clus>
<clus scale="  126.228">  1  5  2 -1</clus>
<clus scale="  180.450">  2  9  1 -1</clus>
<clus scale="  180.450">  2  5  1 -1</clus>
</clustering>
</event>
<event>
 9    1  0.1601012E-005  0.9542450E+02  0.7546771E-02  0.1291491E+00
         21   -1    0    0  501  502  0.00000000000E+00  0.00000000000E+00  0.41491425897E+02  0.41491425897E+02  0.00000000000E+00 0.  1.
         -1   -1    0    0    0  501 -0.00000000000E+00 -0.00000000000E+00 -0.32446968415E+03  0.32446968415E+03  0.00000000000E+00 0.  1.
         23    2    1    2    0    0 -0.15414678483E+02 -0.84792890936E+01 -0.12378016171E+03  0.15472222343E+03  0.91147832298E+02 0.  0.
         23    2    1    2    0    0  0.18969067055E+02 -0.27272532127E+02 -0.13658652417E+03  0.16878762511E+03  0.93433223703E+02 0.  0.
        -11    1    4    4    0    0  0.98516408731E+01  0.33549383144E+02 -0.31682884191E+02  0.47184966757E+02  0.00000000000E+00 0. -1.
         11    1    4    4    0    0  0.91174261819E+01 -0.60821915271E+02 -0.10490363998E+03  0.12160265835E+03  0.00000000000E+00 0.  1.
        -13    1    3    3    0    0  0.31359008190E+02 -0.17785869611E+02 -0.21770392206E+02  0.42115015485E+02  0.00000000000E+00 0.  1.
         13    1    3    3    0    0 -0.46773686673E+02  0.93065805177E+01 -0.10200976951E+03  0.11260720794E+03  0.00000000000E+00 0. -1.
         -1    1    1    2    0  502 -0.35543885719E+01  0.35751821221E+02 -0.22611572368E+02  0.42451261509E+02  0.00000000000E+00 0.  1.
<scales pt_clust_5="13000.00000" pt_clust_6="13000.00000" pt_clust_7="13000.00000" pt_clust_8="13000.00000" pt_clust_9="35.92807"></scales>
<clustering>
<clus scale="   35.928">  1  9  2 -1</clus>
<clus scale="   91.148">  7  8 -1 -1</clus>
<clus scale="   93.188">  2  7  1 -1</clus>
<clus scale="   93.433">  5  6 -1 -1</clus>
<clus scale="   35.928">  1  5  2 -1</clus>
</clustering>
</event>
<event>
 9    1  0.1601012E-005  0.1110315E+03  0.7546771E-02  0.1261217E+00
          4   -1    0    0  502    0 -0.00000000000E+00  0.00000000000E+00  0.71776150238E+03  0.71776150238E+03  0.00000000000E+00 0. -1.
         21   -1    0    0  501  502  0.00000000000E+00 -0.00000000000E+00 -0.55838509580E+02  0.55838509580E+02  0.00000000000E+00 0. -1.
         23    2    1    2    0    0  0.74765842965E+02  0.57683309440E+01  0.39425320207E+03  0.41056611867E+03  0.86635705918E+02 0.  0.
         23    2    1    2    0    0 -0.43850454163E+02 -0.11502317417E+02  0.30032913203E+03  0.31769878064E+03  0.93165240516E+02 0.  0.
        -11    1    3    3    0    0  0.19626426059E+01  0.35374373642E+02  0.14200909108E+03  0.14636181273E+03  0.00000000000E+00 0.  1.
         11    1    3    3    0    0  0.72803200359E+02 -0.29606042698E+02  0.25224411099E+03  0.26420430593E+03  0.00000000000E+00 0. -1.
        -11    1    4    4    0    0 -0.69037350002E+02 -0.16456634735E+02  0.26291315189E+03  0.27232389164E+03  0.00000000000E+00 0. -1.
         11    1    4    4    0    0  0.25186895839E+02  0.49543173172E+01  0.37415980134E+02  0.45374888996E+02  0.00000000000E+00 0.  1.
          4    1    1    2  501    0 -0.30915388802E+02  0.57339864734E+01 -0.32659341293E+02  0.45335112654E+02  0.00000000000E+00 0. -1.
<scales pt_clust_5="13000.00000" pt_clust_6="13000.00000" pt_clust_7="13000.00000" pt_clust_8="13000.00000" pt_clust_9="31.44264"></scales>
<clustering>
<clus scale="   31.443">  2  9  1 -1</clus>
<clus scale="   86.636">  5  6 -1 -1</clus>
<clus scale="   93.165">  7  8 -1 -1</clus>
<clus scale="  105.612">  1  5  2 -1</clus>
<clus scale="   31.443">  2  5  1 -1</clus>
</clustering>
</event>
<event>
 9    1  0.1601012E-005  0.1126197E+03  0.7546771E-02  0.1259704E+00
          1   -1    0    0  502    0 -0.00000000000E+00  0.00000000000E+00  0.28713684987E+03  0.28713684987E+03  0.00000000000E+00 0. -1.
         21   -1    0    0  501  502  0.00000000000E+00 -0.00000000000E+00 -0.16648191361E+03  0.16648191361E+03  0.00000000000E+00 0.  1.
         23    2    1    2    0    0  0.44961609777E+02 -0.45791294716E+02  0.22951670290E+03  0.25131713444E+03  0.79774658436E+02 0.  0.
         23    2    1    2    0    0 -0.63122744868E+02  0.70242897467E+02 -0.58044624110E+02  0.14305561921E+03  0.90427795706E+02 0.  0.
        -11    1    4    4    0    0 -0.16342426864E+02  0.68943961914E+02 -0.31556987908E+01  0.70924630666E+02  0.00000000000E+00 0. -1.
         11    1    4    4    0    0 -0.46780318004E+02  0.12989355526E+01 -0.54888925320E+02  0.72130988548E+02  0.00000000000E+00 0.  1.
        -11    1    3    3    0    0  0.65481813850E+02 -0.31453227351E+02  0.13233078937E+03  0.15095897214E+03  0.00000000000E+00 0. -1.
         11    1    3    3    0    0 -0.20520204072E+02 -0.14338067365E+02  0.97185913531E+02  0.10035816230E+03  0.00000000000E+00 0.  1.
          1    1    1    2  501    0  0.18161135091E+02 -0.24451602751E+02 -0.50817142535E+02  0.59246009826E+02  0.00000000000E+00 0. -1.
<scales pt_clust_5="13000.00000" pt_clust_6="13000.00000" pt_clust_7="13000.00000" pt_clust_8="13000.00000" pt_clust_9="30.45829"></scales>
<clustering>
<clus scale="   30.458">  2  9  1 -1</clus>
<clus scale="   79.775">  7  8 -1 -1</clus>
<clus scale="   90.428">  5  6 -1 -1</clus>
<clus scale="  104.259">  1  7  2 -1</clus>
<clus scale="   30.458">  2  5  1 -1</clus>
</clustering>
</event>
<event>
 9    1  0.1601012E-005  0.1000797E+03  0.7546771E-02  0.1280943E+00
         21   -1    0    0  501  502  0.00000000000E+00  0.00000000000E+00  0.25574194152E+03  0.25574194152E+03  0.00000000000E+00 0. -1.
          2   -1    0    0  502    0 -0.00000000000E+00 -0.00000000000E+00 -0.31295107177E+03  0.31295107177E+03  0.00000000000E+00 0. -1.
         23    2    1    2    0    0  0.44728895715E+02 -0.29421886544E+02 -0.21880554720E+03  0.24265752186E+03  0.90224630288E+02 0.  0.
         23    2    1    2    0    0  0.20541163793E+02  0.28711513150E+02 -0.45820934015E+02  0.10858976767E+03  0.91901519309E+02 0.  0.
        -11    1    3    3    0    0 -0.15539468564E+02 -0.38818719691E+02 -0.11356518002E+03  0.12101825563E+03  0.00000000000E+00 0.  1.
         11    1    3    3    0    0  0.60268364279E+02  0.93968331466E+01 -0.10524036717E+03  0.12163926623E+03  0.00000000000E+00 0. -1.
        -13    1    4    4    0    0  0.85385038273E+00  0.51133089317E+02  0.31581351742E+01  0.51237639499E+02  0.00000000000E+00 0.  1.
         13    1    4    4    0    0  0.19687313410E+02 -0.22421576167E+02 -0.48979069189E+02  0.57352128171E+02  0.00000000000E+00 0. -1.
          2    1    1    2  501    0 -0.65270059508E+02  0.71037339440E+00  0.20741735097E+03  0.21744572376E+03  0.00000000000E+00 0. -1.
<scales pt_clust_5="13000.00000" pt_clust_6="13000.00000" pt_clust_7="13000.00000" pt_clust_8="13000.00000" pt_clust_9="65.27393"></scales>
<clustering>
<clus scale="   65.274">  1  9  2 -1</clus>
<clus scale="   90.225">  5  6 -1 -1</clus>
<clus scale="   91.902">  7  8 -1 -1</clus>
<clus scale="   98.542">  2  5  1 -1</clus>
<clus scale="   65.274">  1  5  2 -1</clus>
</clustering>
</event>
<event>
 9    1  0.1601012E-005  0.2030193E+03  0.7546771E-02  0.1147219E+00
         -1   -1    0    0    0  501 -0.00000000000E+00  0.00000000000E+00  0.19141165726E+03  0.19141165726E+03  0.00000000000E+00 0.  1.
         21   -1    0    0  501  502  0.00000000000E+00 -0.00000000000E+00 -0.45492981155E+03  0.45492981155E+03  0.00000000000E+00 0. -1.
         23    2    1    2    0    0 -0.16176103895E+02 -0.15330835864E+03 -0.68785419019E+01  0.17888398142E+03  0.90482292759E+02 0.  0.
         23    2    1    2    0    0 -0.39824382140E+02  0.25470865481E+03 -0.16008629642E+03  0.31665756257E+03  0.90453907498E+02 0.  0.
        -11    1    4    4    0    0 -0.25702302117E+02  0.19395015472E+03 -0.71475949609E+02  0.20829326015E+03  0.00000000000E+00 0.  1.
         11    1    4    4    0    0 -0.14122080024E+02  0.60758500092E+02 -0.88610346809E+02  0.10836430242E+03  0.00000000000E+00 0. -1.
        -13    1    3    3    0    0  0.36284503438E+02 -0.82312065186E+02 -0.10297575192E+02  0.90542152171E+02  0.00000000000E+00 0.  1.
         13    1    3    3    0    0 -0.52460607333E+02 -0.70996293455E+02  0.34190332904E+01  0.88341829248E+02  0.00000000000E+00 0. -1.
         -1    1    1    2    0  502  0.56000486036E+02 -0.10140029617E+03 -0.96553315970E+02  0.15079992482E+03  0.00000000000E+00 0.  1.
<scales pt_clust_5="13000.00000" pt_clust_6="13000.00000" pt_clust_7="13000.00000" pt_clust_8="13000.00000" pt_clust_9="115.83641"></scales>
<clustering>
<clus scale="   90.454">  5  6 -1 -1</clus>
<clus scale="   90.482">  7  8 -1 -1</clus>
<clus scale="  115.836">  2  9  1 -1</clus>
<clus scale="  203.007">  2  5  1 -1</clus>
<clus scale="  115.836">  2  5  1 -1</clus>
</clustering>
</event>
<event>
 9    1  0.1601012E-005  0.1119259E+03  0.7546771E-02  0.1263996E+00
         -3   -1    0    0    0  501 -0.00000000000E+00  0.00000000000E+00  0.26323059664E+03  0.26323059664E+03  0.00000000000E+00 0.  1.
         21   -1    0    0  501  502  0.00000000000E+00 -0.00000000000E+00 -0.15064135961E+03  0.15064135961E+03  0.00000000000E+00 0.  1.
         23    2    1    2    0    0 -0.17455703106E+02  0.29463863760E+02  0.18310067382E+03  0.21519150000E+03  0.10774369625E+03 0.  0.
         23    2    1    2    0    0  0.33617482107E+02  0.92430830760E+00  0.20980885059E+02  0.10092827440E+03  0.92818799743E+02 0.  0.
        -11    1    4    4    0    0  0.35013958748E+02 -0.41496869068E+02  0.21718098486E+02  0.58477715854E+02  0.00000000000E+00 0. -1.
         11    1    4    4    0    0 -0.13964766409E+01  0.42421177375E+02 -0.73721342767E+00  0.42450558542E+02  0.00000000000E+00 0.  1.
        -13    1    3    3    0    0  0.12740322868E+02  0.39060914938E+02  0.14392843274E+02  0.43534180136E+02  0.00000000000E+00 0. -1.
         13    1    3    3    0    0 -0.30196025974E+02 -0.95970511789E+01  0.16870783054E+03  0.17165731986E+03  0.00000000000E+00 0.  1.
         -3    1    1    2    0  502 -0.16161779001E+02 -0.30388172067E+02 -0.91492321837E+02  0.97752181854E+02  0.00000000000E+00 0.  1.
<scales pt_clust_5="13000.00000" pt_clust_6="13000.00000" pt_clust_7="13000.00000" pt_clust_8="13000.00000" pt_clust_9="34.41866"></scales>
<clustering>
<clus scale="   34.419">  2  9  1 -1</clus>
<clus scale="   92.819">  5  6 -1 -1</clus>
<clus scale="   97.642">  2  5  1 -1</clus>
<clus scale="  107.744">  7  8 -1 -1</clus>
<clus scale="   34.419">  2  5  1 -1</clus>
</clustering>
</event>
<event>
 9    1  0.1601012E-005  0.9477801E+02  0.7546771E-02  0.1292268E+00
         -3   -1    0    0    0  501 -0.00000000000E+00  0.00000000000E+00  0.23366537536E+02  0.23366537536E+02  0.00000000000E+00 0.  1.
         21   -1    0    0  501  502  0.00000000000E+00 -0.00000000000E+00 -0.61967303212E+03  0.61967303212E+03  0.00000000000E+00 0. -1.
         23    2    1    2    0    0 -0.86786546279E+01 -0.79160112814E+01 -0.15636816479E+03  0.18166030555E+03  0.91714128531E+02 0.  0.
         23    2    1    2    0    0  0.28760861652E+02  0.32678704550E+02 -0.26248915076E+03  0.28108867324E+03  0.90637757365E+02 0.  0.
        -11    1    4    4    0    0  0.32210746295E+02  0.57328991791E+02 -0.23490122546E+03  0.24393181670E+03  0.00000000000E+00 0. -1.
         11    1    4    4    0    0 -0.34498846434E+01 -0.24650287241E+02 -0.27587925303E+02  0.37156856536E+02  0.00000000000E+00 0.  1.
        -13    1    3    3    0    0 -0.10836385143E+02  0.27564749275E+02 -0.13895777916E+03  0.14207922802E+03  0.00000000000E+00 0. -1.
         13    1    3    3    0    0  0.21577305155E+01 -0.35480760557E+02 -0.17410385628E+02  0.39581077529E+02  0.00000000000E+00 0.  1.
         -3    1    1    2    0  502 -0.20082207024E+02 -0.24762693268E+02 -0.17744917903E+03  0.18029059087E+03  0.00000000000E+00 0.  1.
<scales pt_clust_5="13000.00000" pt_clust_6="13000.00000" pt_clust_7="13000.00000" pt_clust_8="13000.00000" pt_clust_9="31.88238"></scales>
<clustering>
<clus scale="   31.882">  2  9  1 -1</clus>
<clus scale="   90.638">  5  6 -1 -1</clus>
<clus scale="   91.714">  7  8 -1 -1</clus>
<clus scale="   93.737">  2  5  1 -1</clus>
<clus scale="   31.882">  2  5  1 -1</clus>
</clustering>
</event>
<event>
 9    1  0.1601012E-005  0.1197513E+03  0.7546771E-02  0.1246023E+00
          2   -1    0    0  502    0 -0.00000000000E+00  0.00000000000E+00  0.37654596318E+03  0.37654596318E+03  0.00000000000E+00 0. -1.
         21   -1    0    0  501  502  0.00000000000E+00 -0.00000000000E+00 -0.83296485712E+02  0.83296485712E+02  0.00000000000E+00 0. -1.
         23    2    1    2    0    0 -0.57115131065E+02  0.21047024344E+02  0.13992211586E+03  0.17730407862E+03  0.90296303123E+02 0.  0.
         23    2    1    2    0    0  0.34591558657E+02 -0.10671324579E+03  0.94821112860E+02  0.17638285250E+03  0.97650266024E+02 0.  0.
        -11    1    3    3    0    0 -0.79482321119E+02  0.29446149375E+02  0.11388955800E+03  0.14196952668E+03  0.00000000000E+00 0. -1.
         11    1    3    3    0    0  0.22367190054E+02 -0.83991250313E+01  0.26032557864E+02  0.35334551945E+02  0.00000000000E+00 0.  1.
        -13    1    4    4    0    0 -0.24800457802E+02 -0.47635088796E+02  0.71506040777E+02  0.89427502813E+02  0.00000000000E+00 0. -1.
         13    1    4    4    0    0  0.59392016459E+02 -0.59078156994E+02  0.23315072083E+02  0.86955349686E+02  0.00000000000E+00 0.  1.
          2    1    1    2  501    0  0.22523572408E+02  0.85666221446E+02  0.58506248743E+02  0.10615551777E+03  0.00000000000E+00 0. -1.
<scales pt_clust_5="13000.00000" pt_clust_6="13000.00000" pt_clust_7="13000.00000" pt_clust_8="13000.00000" pt_clust_9="88.57772"></scales>
<clustering>
<clus scale="   88.578">  2  9  1 -1</clus>
<clus scale="   90.296">  5  6 -1 -1</clus>
<clus scale="   97.650">  7  8 -1 -1</clus>
<clus scale="  113.834">  1  5  2 -1</clus>
<clus scale="   88.578">  2  5  1 -1</clus>
</clustering>
</event>
<event>
 9    1  0.1601012E-005  0.1641524E+03  0.7546771E-02  0.1184196E+00
          1   -1    0    0  502    0 -0.00000000000E+00  0.00000000000E+00  0.69187310992E+03  0.69187310992E+03  0.00000000000E+00 0. -1.
         21   -1    0    0  501  502  0.00000000000E+00 -0.00000000000E+00 -0.79012441075E+02  0.79012441075E+02  0.00000000000E+00 0. -1.
         23    2    1    2    0    0  0.12919684630E+03 -0.62051560275E+02  0.49584272939E+03  0.52420642949E+03  0.91597746719E+02 0.  0.
         23    2    1    2    0    0 -0.10470625360E+03  0.59327175284E+02  0.14512888938E+03  0.20929681406E+03  0.90882608761E+02 0.  0.
        -11    1    3    3    0    0  0.64116233541E+02 -0.24047978040E+02  0.99655727490E+02  0.12091509696E+03  0.00000000000E+00 0.  1.
         11    1    3    3    0    0  0.65080612759E+02 -0.38003582234E+02  0.39618700190E+03  0.40329133253E+03  0.00000000000E+00 0. -1.
        -13    1    4    4    0    0 -0.86431765348E+01 -0.19862722577E+02  0.43469912795E+02  0.48568153837E+02  0.00000000000E+00 0.  1.
         13    1    4    4    0    0 -0.96063077063E+02  0.79189897861E+02  0.10165897658E+03  0.16072866023E+03  0.00000000000E+00 0. -1.
          1    1    1    2  501    0 -0.24490592703E+02  0.27243849904E+01 -0.28110949920E+02  0.37382307445E+02  0.00000000000E+00 0. -1.
<scales pt_clust_5="13000.00000" pt_clust_6="13000.00000" pt_clust_7="13000.00000" pt_clust_8="13000.00000" pt_clust_9="24.64166"></scales>
<clustering>
<clus scale="   24.642">  2  9  1 -1</clus>
<clus scale="   90.883">  7  8 -1 -1</clus>
<clus scale="   91.598">  5  6 -1 -1</clus>
<clus scale="  163.754">  2  7  1 -1</clus>
<clus scale="   24.642">  2  5  1 -1</clus>
</clustering>
</event>
<event>
 9    1  0.1601012E-005  0.1151265E+03  0.7546771E-02  0.1251522E+00
          2   -1    0    0  502    0 -0.00000000000E+00  0.00000000000E+00  0.51049485626E+03  0.51049485626E+03  0.00000000000E+00 0. -1.
         21   -1    0    0  501  502  0.00000000000E+00 -0.00000000000E+00 -0.41362542725E+02  0.41362542725E+02  0.00000000000E+00 0.  1.
         23    2    1    2    0    0  0.60693653807E+02  0.14528925444E+02  0.22652465789E+03  0.25173478071E+03  0.90344728128E+02 0.  0.
         23    2    1    2    0    0 -0.83052743840E+02 -0.32555657633E+02  0.12263468696E+03  0.17675971787E+03  0.90813557979E+02 0.  0.
        -13    1    3    3    0    0  0.37750917130E+02  0.35430413183E+02  0.21056328149E+03  0.21683482523E+03  0.00000000000E+00 0. -1.
         13    1    3    3    0    0  0.22942736676E+02 -0.20901487739E+02  0.15961376405E+02  0.34899955482E+02  0.00000000000E+00 0.  1.
        -13    1    4    4    0    0 -0.30444485833E+02 -0.56266674730E+02  0.90138702968E+02  0.11053411770E+03  0.00000000000E+00 0. -1.
         13    1    4    4    0    0 -0.52608258008E+02  0.23711017097E+02  0.32495983987E+02  0.66225600168E+02  0.00000000000E+00 0.  1.
          2    1    1    2  501    0  0.22359090034E+02  0.18026732188E+02  0.11997296868E+03  0.12336290040E+03  0.00000000000E+00 0. -1.
<scales pt_clust_5="13000.00000" pt_clust_6="13000.00000" pt_clust_7="13000.00000" pt_clust_8="13000.00000" pt_clust_9="28.72095"></scales>
<clustering>
<clus scale="   28.721">  2  9  1 -1</clus>
<clus scale="   90.345">  5  6 -1 -1</clus>
<clus scale="   90.814">  7  8 -1 -1</clus>
<clus scale="  114.757">  1  5  2 -1</clus>
<clus scale="   28.721">  2  5  1 -1</clus>
</clustering>
</event>
<event>
 9    1  0.1601012E-005  0.1430615E+03  0.7546771E-02  0.1209517E+00
         21   -1    0    0  501  502  0.00000000000E+00  0.00000000000E+00  0.50965586433E+03  0.50965586433E+03  0.00000000000E+00 0.  1.
          2   -1    0    0  502    0 -0.00000000000E+00 -0.00000000000E+00 -0.15859095219E+03  0.15859095219E+03  0.00000000000E+00 0. -1.
         23    2    1    2    0    0  0.28802988279E+01  0.10693191714E+03 -0.92797473539E+02  0.16892296677E+03  0.92091620588E+02 0.  0.
         23    2    1    2    0    0 -0.92961826270E+01 -0.13893225103E+03  0.43470671417E+03  0.46542678123E+03  0.90904191057E+02 0.  0.
        -11    1    3    3    0    0  0.25253495071E+02  0.58926262209E+02 -0.24021980767E+01  0.64154609708E+02  0.00000000000E+00 0.  1.
         11    1    3    3    0    0 -0.22373196243E+02  0.48005654930E+02 -0.90395275462E+02  0.10476835706E+03  0.00000000000E+00 0. -1.
        -13    1    4    4    0    0  0.28866491693E+02 -0.10897068837E+03  0.24628110241E+03  0.27085469660E+03  0.00000000000E+00 0.  1.
         13    1    4    4    0    0 -0.38162674320E+02 -0.29961562654E+02  0.18842561177E+03  0.19457208463E+03  0.00000000000E+00 0. -1.
          2    1    1    2  501    0  0.64158837991E+01  0.32000333887E+02  0.91556715094E+01  0.33897068525E+02  0.00000000000E+00 0. -1.
<scales pt_clust_5="13000.00000" pt_clust_6="13000.00000" pt_clust_7="13000.00000" pt_clust_8="13000.00000" pt_clust_9="32.63719"></scales>
<clustering>
<clus scale="   32.637">  1  9  2 -1</clus>
<clus scale="   90.904">  7  8 -1 -1</clus>
<clus scale="   92.092">  5  6 -1 -1</clus>
<clus scale="  142.300">  1  7  2 -1</clus>
<clus scale="   32.637">  1  5  2 -1</clus>
</clustering>
</event>
<event>
 9    1  0.1601012E-005  0.1318651E+03  0.7546771E-02  0.1225818E+00
          2   -1    0    0  502    0 -0.00000000000E+00  0.00000000000E+00  0.10996025893E+04  0.10996025893E+04  0.00000000000E+00 0. -1.
         21   -1    0    0  501  502  0.00000000000E+00 -0.00000000000E+00 -0.32738516364E+02  0.32738516364E+02  0.00000000000E+00 0. -1.
         23    2    1    2    0    0  0.70404520082E+02  0.91967282576E+02  0.71637888492E+03  0.73173444302E+03  0.93924495363E+02 0.  0.
         23    2    1    2    0    0 -0.62213338965E+02 -0.25439825650E+02  0.28773736019E+03  0.30879006354E+03  0.89670678699E+02 0.  0.
        -11    1    4    4    0    0 -0.57081046672E+02 -0.55904979566E+02  0.18519625936E+03  0.20169597693E+03  0.00000000000E+00 0.  1.
         11    1    4    4    0    0 -0.51322922927E+01  0.30465153916E+02  0.10254110083E+03  0.10709408661E+03  0.00000000000E+00 0. -1.
        -13    1    3    3    0    0  0.52729413428E+02  0.11109047022E+03  0.60149656016E+03  0.61393777820E+03  0.00000000000E+00 0. -1.
         13    1    3    3    0    0  0.17675106654E+02 -0.19123187643E+02  0.11488232476E+03  0.11779666482E+03  0.00000000000E+00 0.  1.
          2    1    1    2  501    0 -0.81911811172E+01 -0.66527456926E+02  0.62747827811E+02  0.91816599088E+02  0.00000000000E+00 0. -1.
<scales pt_clust_5="13000.00000" pt_clust_6="13000.00000" pt_clust_7="13000.00000" pt_clust_8="13000.00000" pt_clust_9="67.02983"></scales>
<clustering>
<clus scale="   67.030">  2  9  1 -1</clus>
<clus scale="   89.671">  5  6 -1 -1</clus>
<clus scale="   93.924">  7  8 -1 -1</clus>
<clus scale="  128.870">  2  5  1 -1</clus>
<clus scale="   67.030">  2  5  1 -1</clus>
</clustering>
</event>
<event>
 9    1  0.1601012E-005  0.1030998E+03  0.7546771E-02  0.1275096E+00
          2   -1    0    0  502    0 -0.00000000000E+00  0.00000000000E+00  0.29369298658E+03  0.29369298658E+03  0.00000000000E+00 0. -1.
         21   -1    0    0  501  502  0.00000000000E+00 -0.00000000000E+00 -0.55516652580E+02  0.55516652580E+02  0.00000000000E+00 0.  1.
         23    2    1    2    0    0 -0.29043334342E+02 -0.44809876871E+02  0.11458777832E+03  0.15736852090E+03  0.93717939019E+02 0.  0.
         23    2    1    2    0    0 -0.15241598413E+02  0.40039167555E+02  0.97702671438E+02  0.14032418959E+03  0.91157144087E+02 0.  0.
        -13    1    3    3    0    0 -0.46821444797E+02  0.32071685010E+01  0.22597103767E+02  0.52088028580E+02  0.00000000000E+00 0.  1.
         13    1    3    3    0    0  0.17778110455E+02 -0.48017045372E+02  0.91990674558E+02  0.10528049232E+03  0.00000000000E+00 0. -1.
        -13    1    4    4    0    0 -0.27868039296E+02  0.19121793306E+02 -0.55235156183E+01  0.34245873010E+02  0.00000000000E+00 0.  1.
         13    1    4    4    0    0  0.12626440883E+02  0.20917374250E+02  0.10322618706E+03  0.10607831658E+03  0.00000000000E+00 0. -1.
          2    1    1    2  501    0  0.44284932755E+02  0.47707093160E+01  0.25885884236E+02  0.51516928666E+02  0.00000000000E+00 0. -1.
<scales pt_clust_5="13000.00000" pt_clust_6="13000.00000" pt_clust_7="13000.00000" pt_clust_8="13000.00000" pt_clust_9="44.54116"></scales>
<clustering>
<clus scale="   44.541">  2  9  1 -1</clus>
<clus scale="   91.157">  7  8 -1 -1</clus>
<clus scale="   93.718">  5  6 -1 -1</clus>
<clus scale="  100.778">  2  7  1 -1</clus>
<clus scale="   44.541">  2  5  1 -1</clus>
</clustering>
</event>
<event>
 9    1  0.1601012E-005  0.1029231E+03  0.7546771E-02  0.1275099E+00
         -2   -1    0    0    0  501 -0.00000000000E+00  0.00000000000E+00  0.11937966772E+03  0.11937966772E+03  0.00000000000E+00 0.  1.
         21   -1    0    0  501  502  0.00000000000E+00 -0.00000000000E+00 -0.14804061041E+03  0.14804061041E+03  0.00000000000E+00 0. -1.
         23    2    1    2    0    0  0.60557262156E+02  0.13824923369E+02  0.19604550938E+02  0.11209087090E+03  0.91223431284E+02 0.  0.
         23    2    1    2    0    0 -0.33892301403E+02  0.11775505716E+01  0.29822442981E+01  0.95643353587E+02  0.89379430433E+02 0.  0.
        -11    1    4    4    0    0 -0.23772832739E+02  0.36208890049E+02  0.27859965527E+02  0.51501543416E+02  0.00000000000E+00 0. -1.
         11    1    4    4    0    0 -0.10119468664E+02 -0.35031339478E+02 -0.24877721229E+02  0.44141810171E+02  0.00000000000E+00 0.  1.
        -11    1    3    3    0    0  0.20219113493E+02  0.34726836106E+02  0.44766487300E+02  0.60156496587E+02  0.00000000000E+00 0.  1.
         11    1    3    3    0    0  0.40338148663E+02 -0.20901912737E+02 -0.25161936363E+02  0.51934374311E+02  0.00000000000E+00 0. -1.
         -2    1    1    2    0  502 -0.26664960753E+02 -0.15002473941E+02 -0.51247737929E+02  0.59686053640E+02  0.00000000000E+00 0.  1.
<scales pt_clust_5="13000.00000" pt_clust_6="13000.00000" pt_clust_7="13000.00000" pt_clust_8="13000.00000" pt_clust_9="30.59566"></scales>
<clustering>
<clus scale="   30.596">  2  9  1 -1</clus>
<clus scale="   89.379">  5  6 -1 -1</clus>
<clus scale="   91.223">  7  8 -1 -1</clus>
<clus scale="  101.292">  2  5  1 -1</clus>
<clus scale="   30.596">  2  5  1 -1</clus>
</clustering>
</event>
<event>
 9    1  0.1601012E-005  0.1444659E+03  0.7546771E-02  0.1207450E+00
          1   -1    0    0  502    0 -0.00000000000E+00  0.00000000000E+00  0.24185373516E+03  0.24185373516E+03  0.00000000000E+00 0. -1.
         21   -1    0    0  501  502  0.00000000000E+00 -0.00000000000E+00 -0.17981965822E+03  0.17981965822E+03  0.00000000000E+00 0.  1.
         23    2    1    2    0    0  0.10507832527E+03  0.18954774429E+02  0.12765217989E+03  0.19007772285E+03  0.91835307911E+02 0.  0.
         23    2    1    2    0    0 -0.12310606833E+03 -0.59563138207E+01  0.87974420219E+01  0.15393208298E+03  0.91799288937E+02 0.  0.
        -11    1    4    4    0    0 -0.26829203830E+01 -0.24057448683E+02 -0.16838220152E+02  0.29487023532E+02  0.00000000000E+00 0.  1.
         11    1    4    4    0    0 -0.12042314795E+03  0.18101134862E+02  0.25635662174E+02  0.12444505945E+03  0.00000000000E+00 0. -1.
        -13    1    3    3    0    0  0.92844620835E+02  0.45943143769E+00  0.42545655599E+02  0.10212966026E+03  0.00000000000E+00 0.  1.
         13    1    3    3    0    0  0.12233704438E+02  0.18495342992E+02  0.85106524290E+02  0.87948062590E+02  0.00000000000E+00 0. -1.
          1    1    1    2  501    0  0.18027743062E+02 -0.12998460609E+02 -0.74415544972E+02  0.77663587553E+02  0.00000000000E+00 0. -1.
<scales pt_clust_5="13000.00000" pt_clust_6="13000.00000" pt_clust_7="13000.00000" pt_clust_8="13000.00000" pt_clust_9="22.22520"></scales>
<clustering>
<clus scale="   22.225">  2  9  1 -1</clus>
<clus scale="   91.799">  5  6 -1 -1</clus>
<clus scale="   91.835">  7  8 -1 -1</clus>
<clus scale="  144.443">  2  5  1 -1</clus>
<clus scale="   22.225">  2  5  1 -1</clus>
</clustering>
</event>
<event>
 9    1  0.1601012E-005  0.1001386E+03  0.7546771E-02  0.1280491E+00
          1   -1    0    0  502    0 -0.00000000000E+00  0.00000000000E+00  0.49463013189E+03  0.49463013189E+03  0.00000000000E+00 0. -1.
         21   -1    0    0  501  502  0.00000000000E+00 -0.00000000000E+00 -0.33539818701E+02  0.33539818701E+02  0.00000000000E+00 0.  1.
         23    2    1    2    0    0  0.12758591619E+02  0.37962760954E+02  0.25555937180E+03  0.27262463902E+03  0.86079314606E+02 0.  0.
         23    2    1    2    0    0 -0.20495039762E+02 -0.67047966134E+02  0.19439998654E+03  0.22345637351E+03  0.85005409694E+02 0.  0.
        -11    1    4    4    0    0  0.27039217386E+02 -0.46145672835E+02  0.65976387478E+02  0.84931890966E+02  0.00000000000E+00 0.  1.
         11    1    4    4    0    0 -0.47534257148E+02 -0.20902293299E+02  0.12842359906E+03  0.13852448255E+03  0.00000000000E+00 0. -1.
        -13    1    3    3    0    0 -0.27281002236E+01 -0.24204107055E+02  0.12308126644E+03  0.12546824092E+03  0.00000000000E+00 0.  1.
         13    1    3    3    0    0  0.15486691842E+02  0.62166868009E+02  0.13247810536E+03  0.14715639810E+03  0.00000000000E+00 0. -1.
          1    1    1    2  501    0  0.77364481435E+01  0.29085205180E+02  0.11130954842E+02  0.32088938062E+02  0.00000000000E+00 0. -1.
<scales pt_clust_5="13000.00000" pt_clust_6="13000.00000" pt_clust_7="13000.00000" pt_clust_8="13000.00000" pt_clust_9="30.09654"></scales>
<clustering>
<clus scale="   30.097">  2  9  1 -1</clus>
<clus scale="   85.005">  5  6 -1 -1</clus>
<clus scale="   86.079">  7  8 -1 -1</clus>
<clus scale="   99.217">  2  5  1 -1</clus>
<clus scale="   30.097">  2  5  1 -1</clus>
</clustering>
</event>
<event>
 9    1  0.1601012E-005  0.1409273E+03  0.7546771E-02  0.1214102E+00
         -1   -1    0    0    0  501 -0.00000000000E+00  0.00000000000E+00  0.36284669379E+03  0.36284669379E+03  0.00000000000E+00 0.  1.
         21   -1    0    0  501  502  0.00000000000E+00 -0.00000000000E+00 -0.12481570355E+03  0.12481570355E+03  0.00000000000E+00 0. -1.
         23    2    1    2    0    0 -0.94069885276E+02 -0.22675841099E+02  0.23920087173E+03  0.27271949666E+03  0.88292297158E+02 0.  0.
         23    2    1    2    0    0  0.12821003491E+03 -0.67451592130E+01  0.24904159582E+02  0.16287562983E+03  0.97082147718E+02 0.  0.
        -11    1    4    4    0    0  0.43849028437E+01  0.29152282174E+02 -0.64868113719E+01  0.30185454289E+02  0.00000000000E+00 0.  1.
         11    1    4    4    0    0  0.12382513206E+03 -0.35897441387E+02  0.31390970954E+02  0.13269017554E+03  0.00000000000E+00 0. -1.
        -13    1    3    3    0    0 -0.13543104303E+02  0.18310105774E+02  0.12519050667E+03  0.12724519090E+03  0.00000000000E+00 0.  1.
         13    1    3    3    0    0 -0.80526780973E+02 -0.40985946873E+02  0.11401036506E+03  0.14547430576E+03  0.00000000000E+00 0. -1.
         -1    1    1    2    0  502 -0.34140149630E+02  0.29421000312E+02 -0.26074041064E+02  0.52067270848E+02  0.00000000000E+00 0.  1.
<scales pt_clust_5="13000.00000" pt_clust_6="13000.00000" pt_clust_7="13000.00000" pt_clust_8="13000.00000" pt_clust_9="45.06823"></scales>
<clustering>
<clus scale="   45.068">  2  9  1 -1</clus>
<clus scale="   88.292">  7  8 -1 -1</clus>
<clus scale="   97.082">  5  6 -1 -1</clus>
<clus scale="  135.023">  1  7  2 -1</clus>
<clus scale="   45.068">  2  5  1 -1</clus>
</clustering>
</event>
<event>
 9    1  0.1601012E-005  0.1002283E+03  0.7546771E-02  0.1281261E+00
          1   -1    0    0  502    0 -0.00000000000E+00  0.00000000000E+00  0.69417376672E+03  0.69417376672E+03  0.00000000000E+00 0. -1.
         21   -1    0    0  501  502  0.00000000000E+00 -0.00000000000E+00 -0.36596566012E+02  0.36596566012E+02  0.00000000000E+00 0.  1.
         23    2    1    2    0    0  0.35223767510E+02  0.18925150081E+02  0.45536989942E+03  0.46673921349E+03  0.94259604324E+02 0.  0.
         23    2    1    2    0    0 -0.92428012038E+01 -0.27719402014E+02  0.21373832797E+03  0.23427689176E+03  0.91366265913E+02 0.  0.
        -13    1    3    3    0    0  0.56718830428E+02 -0.18050758129E+02  0.25480532712E+03  0.26166507280E+03  0.00000000000E+00 0.  1.
         13    1    3    3    0    0 -0.21495062918E+02  0.36975908210E+02  0.20056457230E+03  0.20507414069E+03  0.00000000000E+00 0. -1.
        -13    1    4    4    0    0  0.36101373095E+02 -0.34220199746E+02  0.12156735588E+03  0.13135049762E+03  0.00000000000E+00 0.  1.
         13    1    4    4    0    0 -0.45344174299E+02  0.65007977312E+01  0.92170972090E+02  0.10292639414E+03  0.00000000000E+00 0. -1.
          1    1    1    2  501    0 -0.25980966306E+02  0.87942519338E+01 -0.11531026676E+02  0.29754227489E+02  0.00000000000E+00 0. -1.
<scales pt_clust_5="13000.00000" pt_clust_6="13000.00000" pt_clust_7="13000.00000" pt_clust_8="13000.00000" pt_clust_9="27.42899"></scales>
<clustering>
<clus scale="   27.429">  2  9  1 -1</clus>
<clus scale="   91.366">  7  8 -1 -1</clus>
<clus scale="   94.260">  5  6 -1 -1</clus>
<clus scale="   97.512">  2  7  1 -1</clus>
<clus scale="   27.429">  2  5  1 -1</clus>
</clustering>
</event>
<event>
 9    1  0.1601012E-005  0.1079482E+03  0.7546771E-02  0.1264811E+00
         21   -1    0    0  501  502  0.00000000000E+00  0.00000000000E+00  0.20079561623E+03  0.20079561623E+03  0.00000000000E+00 0.  1.
          4   -1    0    0  502    0 -0.00000000000E+00 -0.00000000000E+00 -0.15885989084E+03  0.15885989084E+03  0.00000000000E+00 0. -1.
         23    2    1    2    0    0 -0.38847242325E+02 -0.41760213855E+02 -0.44482567870E+02  0.11592190549E+03  0.90587888984E+02 0.  0.
         23    2    1    2    0    0  0.30966944116E+00  0.66619350464E+02 -0.31230308010E+02  0.11746280298E+03  0.91563880407E+02 0.  0.
        -11    1    4    4    0    0  0.28894295082E+01 -0.22466791204E+02 -0.14176817366E+02  0.26722418687E+02  0.00000000000E+00 0. -1.
         11    1    4    4    0    0 -0.25797600670E+01  0.89086141668E+02 -0.17053490644E+02  0.90740384298E+02  0.00000000000E+00 0.  1.
        -13    1    3    3    0    0  0.27549255217E+02  0.17287038200E+01 -0.96195006017E+01  0.29231569779E+02  0.00000000000E+00 0.  1.
         13    1    3    3    0    0 -0.66396497542E+02 -0.43488917675E+02 -0.34863067268E+02  0.86690335711E+02  0.00000000000E+00 0. -1.
          4    1    1    2  501    0  0.38537572884E+02 -0.24859136610E+02  0.11764860127E+03  0.12627079859E+03  0.00000000000E+00 0. -1.
<scales pt_clust_5="13000.00000" pt_clust_6="13000.00000" pt_clust_7="13000.00000" pt_clust_8="13000.00000" pt_clust_9="45.85980"></scales>
<clustering>
<clus scale="   45.860">  1  9  2 -1</clus>
<clus scale="   90.588">  7  8 -1 -1</clus>
<clus scale="   91.564">  5  6 -1 -1</clus>
<clus scale="  107.122">  2  7  1 -1</clus>
<clus scale="   45.860">  1  5  2 -1</clus>
</clustering>
</event>
<event>
 9    1  0.1601012E-005  0.1015176E+03  0.7546771E-02  0.1281245E+00
          1   -1    0    0  502    0 -0.00000000000E+00  0.00000000000E+00  0.27201919583E+02  0.27201919583E+02  0.00000000000E+00 0. -1.
         21   -1    0    0  501  502  0.00000000000E+00 -0.00000000000E+00 -0.67368016015E+03  0.67368016015E+03  0.00000000000E+00 0.  1.
         23    2    1    2    0    0  0.84625586210E+01  0.29773521553E+02 -0.12018303245E+03  0.15521678274E+03  0.93221300524E+02 0.  0.
         23    2    1    2    0    0 -0.60830120468E+01 -0.63630245031E+02 -0.33672463153E+03  0.35308039760E+03  0.84832060995E+02 0.  0.
        -11    1    3    3    0    0 -0.14836837917E+02  0.55978706164E+02 -0.97665010766E+02  0.11354383132E+03  0.00000000000E+00 0. -1.
         11    1    3    3    0    0  0.23299396538E+02 -0.26205184611E+02 -0.22518021686E+02  0.41672951421E+02  0.00000000000E+00 0.  1.
        -13    1    4    4    0    0  0.18612218960E+02 -0.74513251855E+02 -0.27866910947E+03  0.28905901122E+03  0.00000000000E+00 0.  1.
         13    1    4    4    0    0 -0.24695231007E+02  0.10883006824E+02 -0.58055522063E+02  0.64021386380E+02  0.00000000000E+00 0. -1.
          1    1    1    2  501    0 -0.23795465742E+01  0.33856723478E+02 -0.18957057658E+03  0.19258489939E+03  0.00000000000E+00 0. -1.
<scales pt_clust_5="13000.00000" pt_clust_6="13000.00000" pt_clust_7="13000.00000" pt_clust_8="13000.00000" pt_clust_9="33.94024"></scales>
<clustering>
<clus scale="   33.940">  2  9  1 -1</clus>
<clus scale="   84.832">  7  8 -1 -1</clus>
<clus scale="   93.221">  5  6 -1 -1</clus>
<clus scale="   93.873">  2  7  1 -1</clus>
<clus scale="   33.940">  2  5  1 -1</clus>
</clustering>
</event>
<event>
 9    1  0.1601012E-005  0.1045381E+03  0.7546771E-02  0.1271470E+00
          2   -1    0    0  502    0 -0.00000000000E+00  0.00000000000E+00  0.43383281101E+03  0.43383281101E+03  0.00000000000E+00 0. -1.
         21   -1    0    0  501  502  0.00000000000E+00 -0.00000000000E+00 -0.45762743472E+02  0.45762743472E+02  0.00000000000E+00 0. -1.
         23    2    1    2    0    0  0.19151224288E+02  0.60718303934E+02  0.20937120653E+03  0.23745833035E+03  0.92177408857E+02 0.  0.
         23    2    1    2    0    0  0.30587572373E+02 -0.35609911552E+02  0.14297055255E+03  0.17594892240E+03  0.91179926584E+02 0.  0.
        -11    1    3    3    0    0 -0.96955433945E+01  0.35167688763E+02  0.15232817451E+02  0.39532374355E+02  0.00000000000E+00 0. -1.
         11    1    3    3    0    0  0.28846767683E+02  0.25550615171E+02  0.19413838908E+03  0.19792595600E+03  0.00000000000E+00 0.  1.
        -13    1    4    4    0    0  0.52237924893E+02 -0.43122928071E+02  0.62105509023E+02  0.91899303444E+02  0.00000000000E+00 0. -1.
         13    1    4    4    0    0 -0.21650352520E+02  0.75130165188E+01  0.80865043531E+02  0.84049618956E+02  0.00000000000E+00 0.  1.
          2    1    1    2  501    0 -0.49738796661E+02 -0.25108392383E+02  0.35728308453E+02  0.66188301733E+02  0.00000000000E+00 0. -1.
<scales pt_clust_5="13000.00000" pt_clust_6="13000.00000" pt_clust_7="13000.00000" pt_clust_8="13000.00000" pt_clust_9="55.71696"></scales>
<clustering>
<clus scale="   55.717">  2  9  1 -1</clus>
<clus scale="   91.180">  7  8 -1 -1</clus>
<clus scale="   92.177">  5  6 -1 -1</clus>
<clus scale="  103.660">  2  7  1 -1</clus>
<clus scale="   55.717">  2  5  1 -1</clus>
</clustering>
</event>
<event>
 9    1  0.1601012E-005  0.1154860E+03  0.7546771E-02  0.1255120E+00
         -3   -1    0    0    0  501 -0.00000000000E+00  0.00000000000E+00  0.42545710591E+03  0.42545710591E+03  0.00000000000E+00 0.  1.
         21   -1    0    0  501  502  0.00000000000E+00 -0.00000000000E+00 -0.85542481082E+02  0.85542481082E+02  0.00000000000E+00 0.  1.
         23    2    1    2    0    0 -0.46860266428E+02  0.11861089512E+02  0.19761178513E+03  0.22778145699E+03  0.10245684220E+03 0.  0.
         23    2    1    2    0    0  0.59344036662E+02  0.93853678133E+01  0.19580969955E+03  0.22430938259E+03  0.91451959316E+02 0.  0.
        -11    1    3    3    0    0 -0.70997249768E+02  0.11685879742E+02  0.18886687726E+03  0.20210855149E+03  0.00000000000E+00 0.  1.
         11    1    3    3    0    0  0.24136983340E+02  0.17520977000E+00  0.87449078721E+01  0.25672905502E+02  0.00000000000E+00 0. -1.
        -13    1    4    4    0    0  0.77038015776E+02  0.25729942220E+02  0.12112296629E+03  0.14583435385E+03  0.00000000000E+00 0.  1.
         13    1    4    4    0    0 -0.17693979114E+02 -0.16344574407E+02  0.74686733269E+02  0.78475028741E+02  0.00000000000E+00 0. -1.
         -3    1    1    2    0  502 -0.12483770233E+02 -0.21246457325E+02 -0.53506859863E+02  0.58908747402E+02  0.00000000000E+00 0.  1.
<scales pt_clust_5="13000.00000" pt_clust_6="13000.00000" pt_clust_7="13000.00000" pt_clust_8="13000.00000" pt_clust_9="24.64257"></scales>
<clustering>
<clus scale="   24.643">  2  9  1 -1</clus>
<clus scale="   91.452">  7  8 -1 -1</clus>
<clus scale="  102.457">  5  6 -1 -1</clus>
<clus scale="  105.845">  2  7  1 -1</clus>
<clus scale="   24.643">  2  5  1 -1</clus>
</clustering>
</event>
<event>
 9    1  0.1601012E-005  0.1602221E+03  0.7546771E-02  0.1189105E+00
          2   -1    0    0  502    0 -0.00000000000E+00  0.00000000000E+00  0.12839459044E+04  0.12839459044E+04  0.00000000000E+00 0. -1.
         21   -1    0    0  501  502  0.00000000000E+00 -0.00000000000E+00 -0.81849787793E+02  0.81849787793E+02  0.00000000000E+00 0. -1.
         23    2    1    2    0    0  0.75708256729E+02  0.11881364120E+03  0.75564042758E+03  0.77366069881E+03  0.87806603475E+02 0.  0.
         23    2    1    2    0    0 -0.54773900257E+02 -0.10647602530E+03  0.50588753343E+03  0.52792745344E+03  0.91912325121E+02 0.  0.
        -11    1    3    3    0    0  0.33106917246E+02 -0.57674424874E+01  0.18504084367E+03  0.18806766120E+03  0.00000000000E+00 0.  1.
         11    1    3    3    0    0  0.42601339483E+02  0.12458108369E+03  0.57059958391E+03  0.58559303761E+03  0.00000000000E+00 0. -1.
        -13    1    4    4    0    0 -0.29137645117E+02 -0.10346373225E+03  0.47796233416E+03  0.48989972355E+03  0.00000000000E+00 0.  1.
         13    1    4    4    0    0 -0.25636255141E+02 -0.30122930535E+01  0.27925199263E+02  0.38027729895E+02  0.00000000000E+00 0. -1.
          2    1    1    2  501    0 -0.20934356472E+02 -0.12337615897E+02 -0.59431844439E+02  0.64207539903E+02  0.00000000000E+00 0. -1.
<scales pt_clust_5="13000.00000" pt_clust_6="13000.00000" pt_clust_7="13000.00000" pt_clust_8="13000.00000" pt_clust_9="24.29947"></scales>
<clustering>
<clus scale="   24.299">  2  9  1 -1</clus>
<clus scale="   87.807">  5  6 -1 -1</clus>
<clus scale="   91.912">  7  8 -1 -1</clus>
<clus scale="  157.903">  1  5  2 -1</clus>
<clus scale="   24.299">  2  5  1 -1</clus>
</clustering>
</event>
<event>
 9    1  0.1601012E-005  0.1057202E+03  0.7546771E-02  0.1270624E+00
          4   -1    0    0  502    0 -0.00000000000E+00  0.00000000000E+00  0.26582793996E+03  0.26582793996E+03  0.00000000000E+00 0. -1.
         21   -1    0    0  501  502  0.00000000000E+00 -0.00000000000E+00 -0.12271776840E+03  0.12271776840E+03  0.00000000000E+00 0. -1.
         23    2    1    2    0    0  0.30720406885E+02  0.15667906268E+02  0.10497876326E+03  0.14655105135E+03  0.96267560629E+02 0.  0.
         23    2    1    2    0    0 -0.24761936412E+02 -0.52644252676E+02  0.11384551733E+03  0.15752347925E+03  0.92023224589E+02 0.  0.
        -11    1    4    4    0    0 -0.10214292783E+02 -0.25300490871E+02 -0.10607693982E+02  0.29274046304E+02  0.00000000000E+00 0.  1.
         11    1    4    4    0    0 -0.14547643629E+02 -0.27343761805E+02  0.12445321131E+03  0.12824943295E+03  0.00000000000E+00 0. -1.
        -13    1    3    3    0    0  0.70163675943E+01  0.51148803793E+02  0.28495037185E+02  0.58969455550E+02  0.00000000000E+00 0.  1.
         13    1    3    3    0    0  0.23704039291E+02 -0.35480897526E+02  0.76483726079E+02  0.87581595800E+02  0.00000000000E+00 0. -1.
          4    1    1    2  501    0 -0.59584704735E+01  0.36976346409E+02 -0.75714109043E+02  0.84471177761E+02  0.00000000000E+00 0. -1.
<scales pt_clust_5="13000.00000" pt_clust_6="13000.00000" pt_clust_7="13000.00000" pt_clust_8="13000.00000" pt_clust_9="37.45335"></scales>
<clustering>
<clus scale="   37.453">  2  9  1 -1</clus>
<clus scale="   92.023">  5  6 -1 -1</clus>
<clus scale="   96.268">  7  8 -1 -1</clus>
<clus scale="  101.870">  2  5  1 -1</clus>
<clus scale="   37.453">  2  5  1 -1</clus>
</clustering>
</event>
<event>
 9    1  0.1601012E-005  0.1422356E+03  0.7546771E-02  0.1214557E+00
         -1   -1    0    0    0  501 -0.00000000000E+00  0.00000000000E+00  0.11258084648E+04  0.11258084648E+04  0.00000000000E+00 0.  1.
         21   -1    0    0  501  502  0.00000000000E+00 -0.00000000000E+00 -0.21832630412E+02  0.21832630412E+02  0.00000000000E+00 0. -1.
         23    2    1    2    0    0 -0.83837378332E+02 -0.91895301563E-01  0.58394143960E+03  0.59710061390E+03  0.92264965059E+02 0.  0.
         23    2    1    2    0    0  0.10599254541E+03  0.16122613066E+02  0.45669040592E+03  0.48154558103E+03  0.10874585700E+03 0.  0.
        -11    1    3    3    0    0 -0.10372376868E+03  0.47304673162E+01  0.50376220464E+03  0.51435139383E+03  0.00000000000E+00 0.  1.
         11    1    3    3    0    0  0.19886390347E+02 -0.48223626178E+01  0.80179234960E+02  0.82749220063E+02  0.00000000000E+00 0. -1.
        -13    1    4    4    0    0  0.11165745198E+03  0.45501674892E+02  0.32904217443E+03  0.35043764289E+03  0.00000000000E+00 0. -1.
         13    1    4    4    0    0 -0.56649065714E+01 -0.29379061827E+02  0.12764823149E+03  0.13110793814E+03  0.00000000000E+00 0.  1.
         -1    1    1    2    0  502 -0.22155167076E+02 -0.16030717764E+02  0.63343988820E+02  0.68994900245E+02  0.00000000000E+00 0.  1.
<scales pt_clust_5="13000.00000" pt_clust_6="13000.00000" pt_clust_7="13000.00000" pt_clust_8="13000.00000" pt_clust_9="27.34658"></scales>
<clustering>
<clus scale="   27.347">  2  9  1 -1</clus>
<clus scale="   92.265">  5  6 -1 -1</clus>
<clus scale="  108.746">  7  8 -1 -1</clus>
<clus scale="  130.070">  1  5  2 -1</clus>
<clus scale="   27.347">  2  5  1 -1</clus>
</clustering>
</event>
<event>
 9    1  0.1601012E-005  0.9681046E+02  0.7546771E-02  0.1293949E+00
         -1   -1    0    0    0  501 -0.00000000000E+00  0.00000000000E+00  0.58942732939E+02  0.58942732939E+02  0.00000000000E+00 0.  1.
         21   -1    0    0  501  502  0.00000000000E+00 -0.00000000000E+00 -0.32608198262E+03  0.32608198262E+03  0.00000000000E+00 0. -1.
         23    2    1    2    0    0  0.15169341523E+02  0.43636224342E+02 -0.30772201514E+02  0.95320690270E+02  0.77491138915E+02 0.  0.
         23    2    1    2    0    0  0.16521084045E+02 -0.23672969424E+02 -0.66140231723E+02  0.11540547780E+03  0.90058527388E+02 0.  0.
        -11    1    4    4    0    0 -0.14159541559E+02  0.26056195570E+02 -0.36933089690E+01  0.29884083989E+02  0.00000000000E+00 0.  1.
         11    1    4    4    0    0  0.30680625604E+02 -0.49729164994E+02 -0.62446922754E+02  0.85521393814E+02  0.00000000000E+00 0. -1.
        -13    1    3    3    0    0 -0.31460406023E+02  0.20177504789E+02 -0.18482894385E+02  0.41695398205E+02  0.00000000000E+00 0.  1.
         13    1    3    3    0    0  0.46629747546E+02  0.23458719553E+02 -0.12289307129E+02  0.53625292064E+02  0.00000000000E+00 0. -1.
         -1    1    1    2    0  502 -0.31690425568E+02 -0.19963254918E+02 -0.17022681645E+03  0.17429854749E+03  0.00000000000E+00 0.  1.
<scales pt_clust_5="13000.00000" pt_clust_6="13000.00000" pt_clust_7="13000.00000" pt_clust_8="13000.00000" pt_clust_9="37.45417"></scales>
<clustering>
<clus scale="   37.454">  2  9  1 -1</clus>
<clus scale="   77.491">  7  8 -1 -1</clus>
<clus scale="   85.244">  1  7  2 -1</clus>
<clus scale="   90.059">  5  6 -1 -1</clus>
<clus scale="   37.454">  2  5  1 -1</clus>
</clustering>
</event>
<event>
 9    1  0.1601012E-005  0.9313594E+02  0.7546771E-02  0.1295652E+00
          2   -1    0    0  502    0 -0.00000000000E+00  0.00000000000E+00  0.67294493113E+02  0.67294493113E+02  0.00000000000E+00 0. -1.
         21   -1    0    0  501  502  0.00000000000E+00 -0.00000000000E+00 -0.51176713878E+03  0.51176713878E+03  0.00000000000E+00 0.  1.
         23    2    1    2    0    0  0.65127700673E+00 -0.18334430619E+02  0.15166976250E+02  0.93518581370E+02  0.90438445282E+02 0.  0.
         23    2    1    2    0    0  0.45746577718E+02  0.33803537841E+02 -0.29924093724E+03  0.31785347945E+03  0.90830982229E+02 0.  0.
        -11    1    4    4    0    0 -0.16817382750E+02  0.32212489349E+02 -0.17508055238E+03  0.17881182471E+03  0.00000000000E+00 0.  1.
         11    1    4    4    0    0  0.62563960467E+02  0.15910484914E+01 -0.12416038486E+03  0.13904165474E+03  0.00000000000E+00 0. -1.
        -13    1    3    3    0    0 -0.43511716786E+02 -0.57643960648E+01 -0.33253007905E+01  0.44017671281E+02  0.00000000000E+00 0. -1.
         13    1    3    3    0    0  0.44162993793E+02 -0.12570034554E+02  0.18492277041E+02  0.49500910089E+02  0.00000000000E+00 0.  1.
          2    1    1    2  501    0 -0.46397854724E+02 -0.15469107222E+02 -0.16039868468E+03  0.16768957107E+03  0.00000000000E+00 0. -1.
<scales pt_clust_5="13000.00000" pt_clust_6="13000.00000" pt_clust_7="13000.00000" pt_clust_8="13000.00000" pt_clust_9="48.90863"></scales>
<clustering>
<clus scale="   48.909">  2  9  1 -1</clus>
<clus scale="   90.438">  7  8 -1 -1</clus>
<clus scale="   90.831">  5  6 -1 -1</clus>
<clus scale="   92.753">  1  7  2 -1</clus>
<clus scale="   48.909">  2  5  1 -1</clus>
</clustering>
</event>
<event>
 9    1  0.1601012E-005  0.9877196E+02  0.7546771E-02  0.1283681E+00
          1   -1    0    0  502    0 -0.00000000000E+00  0.00000000000E+00  0.54709402417E+03  0.54709402417E+03  0.00000000000E+00 0. -1.
         21   -1    0    0  501  502  0.00000000000E+00 -0.00000000000E+00 -0.30693889020E+02  0.30693889020E+02  0.00000000000E+00 0.  1.
         23    2    1    2    0    0 -0.24765903785E+02 -0.71894335148E+01  0.23926771512E+03  0.25714369863E+03  0.90602451983E+02 0.  0.
         23    2    1    2    0    0  0.46043216751E+02  0.14802692829E+01  0.28006929422E+03  0.29841936736E+03  0.92158234804E+02 0.  0.
        -13    1    4    4    0    0  0.37514256663E+02 -0.43177412544E+02  0.14341029171E+03  0.15439598498E+03  0.00000000000E+00 0. -1.
         13    1    4    4    0    0  0.85289600870E+01  0.44657681827E+02  0.13665900251E+03  0.14402338238E+03  0.00000000000E+00 0.  1.
        -13    1    3    3    0    0  0.23370006648E+01 -0.42750440788E+02  0.16492107612E+03  0.17038786081E+03  0.00000000000E+00 0. -1.
         13    1    3    3    0    0 -0.27102904450E+02  0.35561007273E+02  0.74346638991E+02  0.86755837828E+02  0.00000000000E+00 0.  1.
          1    1    1    2  501    0 -0.21277312966E+02  0.57091642319E+01 -0.29368741834E+01  0.22224847204E+02  0.00000000000E+00 0. -1.
<scales pt_clust_5="13000.00000" pt_clust_6="13000.00000" pt_clust_7="13000.00000" pt_clust_8="13000.00000" pt_clust_9="22.02995"></scales>
<clustering>
<clus scale="   22.030">  2  9  1 -1</clus>
<clus scale="   90.602">  7  8 -1 -1</clus>
<clus scale="   92.158">  5  6 -1 -1</clus>
<clus scale="   97.322">  1  7  2 -1</clus>
<clus scale="   22.030">  2  5  1 -1</clus>
</clustering>
</event>
<event>
 9    1  0.1601012E-005  0.9825423E+02  0.7546771E-02  0.1284244E+00
         -1   -1    0    0    0  501 -0.00000000000E+00  0.00000000000E+00  0.16057442140E+03  0.16057442140E+03  0.00000000000E+00 0.  1.
         21   -1    0    0  501  502  0.00000000000E+00 -0.00000000000E+00 -0.26434366564E+03  0.26434366564E+03  0.00000000000E+00 0. -1.
         23    2    1    2    0    0 -0.32463790373E+02  0.10491627546E+02  0.12361767082E+03  0.15848573378E+03  0.93125868260E+02 0.  0.
         23    2    1    2    0    0  0.13432867100E+02  0.25090358406E+02 -0.14128730931E+03  0.17134609833E+03  0.92668299000E+02 0.  0.
        -11    1    3    3    0    0 -0.40081634477E+02  0.45849325878E+02  0.92639850099E+02  0.11086406060E+03  0.00000000000E+00 0.  1.
         11    1    3    3    0    0  0.76178441042E+01 -0.35357698333E+02  0.30977820724E+02  0.47621673186E+02  0.00000000000E+00 0. -1.
        -13    1    4    4    0    0 -0.13250589129E+02 -0.30577196072E+02 -0.34278158801E+02  0.47807271442E+02  0.00000000000E+00 0.  1.
         13    1    4    4    0    0  0.26683456229E+02  0.55667554478E+02 -0.10700915051E+03  0.12353882689E+03  0.00000000000E+00 0. -1.
         -1    1    1    2    0  502  0.19030923273E+02 -0.35581985951E+02 -0.86099605757E+02  0.95086254928E+02  0.00000000000E+00 0.  1.
<scales pt_clust_5="13000.00000" pt_clust_6="13000.00000" pt_clust_7="13000.00000" pt_clust_8="13000.00000" pt_clust_9="40.35163"></scales>
<clustering>
<clus scale="   40.352">  2  9  1 -1</clus>
<clus scale="   92.668">  7  8 -1 -1</clus>
<clus scale="   93.126">  5  6 -1 -1</clus>
<clus scale="   97.821">  2  7  1 -1</clus>
<clus scale="   40.352">  2  5  1 -1</clus>
</clustering>
</event>
<event>
 9    1  0.1601012E-005  0.3411647E+03  0.7546771E-02  0.1066646E+00
         21   -1    0    0  501  502  0.00000000000E+00  0.00000000000E+00  0.29608120382E+03  0.29608120382E+03  0.00000000000E+00 0.  1.
         -1   -1    0    0    0  501 -0.00000000000E+00 -0.00000000000E+00 -0.70136379375E+03  0.70136379375E+03  0.00000000000E+00 0.  1.
         23    2    1    2    0    0 -0.34677315739E+02  0.36768738433E+03 -0.40871643958E+03  0.56052932722E+03  0.10367000467E+03 0.  0.
         23    2    1    2    0    0  0.23014135232E+02 -0.26457557970E+03 -0.92060797051E+02  0.29589332609E+03  0.92454217166E+02 0.  0.
        -11    1    3    3    0    0  0.36983511751E+02  0.11863127526E+03 -0.14034438549E+03  0.18745054321E+03  0.00000000000E+00 0. -1.
         11    1    3    3    0    0 -0.71660827490E+02  0.24905610907E+03 -0.26837205409E+03  0.37307878401E+03  0.00000000000E+00 0.  1.
        -11    1    4    4    0    0 -0.16893413708E+02 -0.15802726591E+03 -0.17559449561E+02  0.15989477310E+03  0.00000000000E+00 0.  1.
         11    1    4    4    0    0  0.39907548940E+02 -0.10654831380E+03 -0.74501347490E+02  0.13599855298E+03  0.00000000000E+00 0. -1.
         -1    1    1    2    0  502  0.11663180507E+02 -0.10311180463E+03  0.95494646705E+02  0.14102234427E+03  0.00000000000E+00 0.  1.
<scales pt_clust_5="13000.00000" pt_clust_6="13000.00000" pt_clust_7="13000.00000" pt_clust_8="13000.00000" pt_clust_9="103.76933"></scales>
<clustering>
<clus scale="   92.454">  7  8 -1 -1</clus>
<clus scale="  103.670">  5  6 -1 -1</clus>
<clus scale="  103.769">  1  9  2 -1</clus>
<clus scale="  337.926">  1  7  2 -1</clus>
<clus scale="  103.769">  1  5  2 -1</clus>
</clustering>
</event>
<event>
 9    1  0.1601012E-005  0.1617794E+03  0.7546771E-02  0.1187215E+00
          2   -1    0    0  502    0 -0.00000000000E+00  0.00000000000E+00  0.32366463048E+03  0.32366463048E+03  0.00000000000E+00 0. -1.
         21   -1    0    0  501  502  0.00000000000E+00 -0.00000000000E+00 -0.14117990862E+03  0.14117990862E+03  0.00000000000E+00 0.  1.
         23    2    1    2    0    0  0.33555550290E+02  0.14831610268E+03  0.17704944286E+03  0.25052764056E+03  0.91071138120E+02 0.  0.
         23    2    1    2    0    0  0.40271687613E+01 -0.10425257094E+03  0.40872514582E+02  0.14642099832E+03  0.94253539264E+02 0.  0.
        -13    1    3    3    0    0  0.58924448215E+02  0.13567624713E+03  0.13816617882E+03  0.20241054222E+03  0.00000000000E+00 0.  1.
         13    1    3    3    0    0 -0.25368897924E+02  0.12639855553E+02  0.38883264047E+02  0.48117098346E+02  0.00000000000E+00 0. -1.
        -13    1    4    4    0    0  0.38163954381E+02 -0.61874801790E+02 -0.81828353462E+01  0.73156936137E+02  0.00000000000E+00 0.  1.
         13    1    4    4    0    0 -0.34136785620E+02 -0.42377769154E+02  0.49055349928E+02  0.73264062182E+02  0.00000000000E+00 0. -1.
          2    1    1    2  501    0 -0.37582719052E+02 -0.44063531738E+02 -0.35437235584E+02  0.67895900218E+02  0.00000000000E+00 0. -1.
<scales pt_clust_5="13000.00000" pt_clust_6="13000.00000" pt_clust_7="13000.00000" pt_clust_8="13000.00000" pt_clust_9="57.91421"></scales>
<clustering>
<clus scale="   57.914">  2  9  1 -1</clus>
<clus scale="   91.071">  5  6 -1 -1</clus>
<clus scale="   94.254">  7  8 -1 -1</clus>
<clus scale="  159.946">  1  5  2 -1</clus>
<clus scale="   57.914">  2  5  1 -1</clus>
</clustering>
</event>
<event>
 9    1  0.1601012E-005  0.9768346E+02  0.7546771E-02  0.1286351E+00
         21   -1    0    0  501  502  0.00000000000E+00  0.00000000000E+00  0.13666318631E+03  0.13666318631E+03  0.00000000000E+00 0.  1.
         -3   -1    0    0    0  501 -0.00000000000E+00 -0.00000000000E+00 -0.19399096584E+03  0.19399096584E+03  0.00000000000E+00 0.  1.
         23    2    1    2    0    0 -0.92070568620E+00 -0.26216660321E+02 -0.76845962805E+02  0.12395748372E+03  0.93658927998E+02 0.  0.
         23    2    1    2    0    0 -0.38555544488E+02  0.16893610866E+02 -0.60109300991E+02  0.11733319810E+03  0.91553411792E+02 0.  0.
        -11    1    3    3    0    0 -0.48973509836E+01 -0.53150719751E+02 -0.13571603534E+02  0.55074236074E+02  0.00000000000E+00 0.  1.
         11    1    3    3    0    0  0.39766452974E+01  0.26934059430E+02 -0.63274359270E+02  0.68883247646E+02  0.00000000000E+00 0. -1.
        -13    1    4    4    0    0 -0.68100220879E+02  0.17470176048E+02 -0.49299220204E+02  0.85867690359E+02  0.00000000000E+00 0.  1.
         13    1    4    4    0    0  0.29544676391E+02 -0.57656518162E+00 -0.10810080787E+02  0.31465507736E+02  0.00000000000E+00 0. -1.
         -3    1    1    2    0  502  0.39476250175E+02  0.93230494545E+01  0.79627484269E+02  0.89363470333E+02  0.00000000000E+00 0.  1.
<scales pt_clust_5="13000.00000" pt_clust_6="13000.00000" pt_clust_7="13000.00000" pt_clust_8="13000.00000" pt_clust_9="40.56222"></scales>
<clustering>
<clus scale="   40.562">  1  9  2 -1</clus>
<clus scale="   91.553">  7  8 -1 -1</clus>
<clus scale="   93.659">  5  6 -1 -1</clus>
<clus scale="   95.667">  1  7  2 -1</clus>
<clus scale="   40.562">  1  5  2 -1</clus>
</clustering>
</event>
<event>
 9    1  0.1601012E-005  0.9495812E+02  0.7546771E-02  0.1291395E+00
          1   -1    0    0  502    0 -0.00000000000E+00  0.00000000000E+00  0.32735240553E+03  0.32735240553E+03  0.00000000000E+00 0. -1.
         21   -1    0    0  501  502  0.00000000000E+00 -0.00000000000E+00 -0.89457692598E+02  0.89457692598E+02  0.00000000000E+00 0. -1.
         23    2    1    2    0    0  0.74638541661E+01  0.11590094493E+02  0.17026330484E+03  0.19383482102E+03  0.91609527100E+02 0.  0.
         23    2    1    2    0    0 -0.42808472391E+02 -0.11547496354E+02  0.12145004506E+03  0.15858824785E+03  0.91837949286E+02 0.  0.
        -13    1    4    4    0    0  0.14013828718E+02  0.28690815128E+02  0.45081345522E+02  0.55243804921E+02  0.00000000000E+00 0.  1.
         13    1    4    4    0    0 -0.56822301109E+02 -0.40238311482E+02  0.76368699538E+02  0.10334444292E+03  0.00000000000E+00 0. -1.
        -13    1    3    3    0    0 -0.41230713046E+02  0.10899001234E+00  0.93759086882E+02  0.10242436209E+03  0.00000000000E+00 0. -1.
         13    1    3    3    0    0  0.48694567212E+02  0.11481104481E+02  0.76504217960E+02  0.91410458930E+02  0.00000000000E+00 0.  1.
          1    1    1    2  501    0  0.35344618225E+02 -0.42598138997E-01 -0.53818636968E+02  0.64387029262E+02  0.00000000000E+00 0. -1.
<scales pt_clust_5="13000.00000" pt_clust_6="13000.00000" pt_clust_7="13000.00000" pt_clust_8="13000.00000" pt_clust_9="35.34464"></scales>
<clustering>
<clus scale="   35.345">  2  9  1 -1</clus>
<clus scale="   91.610">  7  8 -1 -1</clus>
<clus scale="   91.838">  5  6 -1 -1</clus>
<clus scale="   94.737">  1  7  2 -1</clus>
<clus scale="   35.345">  2  5  1 -1</clus>
</clustering>
</event>
<event>
 9    1  0.1601012E-005  0.9286959E+02  0.7546771E-02  0.1296346E+00
         21   -1    0    0  501  502  0.00000000000E+00  0.00000000000E+00  0.11243081757E+03  0.11243081757E+03  0.00000000000E+00 0.  1.
          1   -1    0    0  502    0 -0.00000000000E+00 -0.00000000000E+00 -0.15666585428E+03  0.15666585428E+03  0.00000000000E+00 0. -1.
         23    2    1    2    0    0  0.20301803153E+02  0.17009824663E+02 -0.95255691541E+02  0.13316058310E+03  0.89199757710E+02 0.  0.
         23    2    1    2    0    0  0.85645805743E+01 -0.27110796181E+02  0.46616567172E+02  0.10503797031E+03  0.89730282298E+02 0.  0.
        -11    1    4    4    0    0 -0.39796173567E+02 -0.13877610419E+02  0.31669264193E+02  0.52718742361E+02  0.00000000000E+00 0.  1.
         11    1    4    4    0    0  0.48360754141E+02 -0.13233185761E+02  0.14947302979E+02  0.52319227946E+02  0.00000000000E+00 0. -1.
        -13    1    3    3    0    0 -0.70932379457E+01 -0.20014396577E+02  0.58783670489E+01  0.22032823107E+02  0.00000000000E+00 0.  1.
         13    1    3    3    0    0  0.27395041099E+02  0.37024221240E+02 -0.10113405859E+03  0.11112776000E+03  0.00000000000E+00 0. -1.
          1    1    1    2  501    0 -0.28866383727E+02  0.10100971517E+02  0.44040876617E+01  0.30898118441E+02  0.00000000000E+00 0. -1.
<scales pt_clust_5="13000.00000" pt_clust_6="13000.00000" pt_clust_7="13000.00000" pt_clust_8="13000.00000" pt_clust_9="30.58264"></scales>
<clustering>
<clus scale="   30.583">  1  9  2 -1</clus>
<clus scale="   89.200">  7  8 -1 -1</clus>
<clus scale="   89.730">  5  6 -1 -1</clus>
<clus scale="   92.357">  2  7  1 -1</clus>
<clus scale="   30.583">  1  5  2 -1</clus>
</clustering>
</event>
<event>
 9    1  0.1601012E-005  0.1090927E+03  0.7546771E-02  0.1262339E+00
         -3   -1    0    0    0  501 -0.00000000000E+00  0.00000000000E+00  0.22334789451E+03  0.22334789451E+03  0.00000000000E+00 0.  1.
         21   -1    0    0  501  502  0.00000000000E+00 -0.00000000000E+00 -0.12590417613E+03  0.12590417613E+03  0.00000000000E+00 0. -1.
         23    2    1    2    0    0 -0.28204732263E+02 -0.52984842889E+02  0.16457296662E+03  0.19830576906E+03  0.92940928564E+02 0.  0.
         23    2    1    2    0    0  0.21177061807E+01  0.44377511746E+02 -0.68303639707E+02  0.12345087878E+03  0.92740951293E+02 0.  0.
        -13    1    4    4    0    0 -0.12822516722E+02  0.18580617796E+02  0.20056148181E+02  0.30197770988E+02  0.00000000000E+00 0.  1.
         13    1    4    4    0    0  0.14940222902E+02  0.25796893950E+02 -0.88359787888E+02  0.93253107795E+02  0.00000000000E+00 0. -1.
        -13    1    3    3    0    0 -0.59546867998E+02 -0.16184945581E+02  0.81995577043E+02  0.10262093649E+03  0.00000000000E+00 0.  1.
         13    1    3    3    0    0  0.31342135735E+02 -0.36799897308E+02  0.82577389575E+02  0.95684832566E+02  0.00000000000E+00 0. -1.
         -3    1    1    2    0  502  0.26087026083E+02  0.86073311425E+01  0.11743914689E+01  0.27495422793E+02  0.00000000000E+00 0.  1.
<scales pt_clust_5="13000.00000" pt_clust_6="13000.00000" pt_clust_7="13000.00000" pt_clust_8="13000.00000" pt_clust_9="27.47033"></scales>
<clustering>
<clus scale="   27.470">  2  9  1 -1</clus>
<clus scale="   92.741">  5  6 -1 -1</clus>
<clus scale="   92.941">  7  8 -1 -1</clus>
<clus scale="  108.922">  2  5  1 -1</clus>
<clus scale="   27.470">  2  5  1 -1</clus>
</clustering>
</event>
<event>
 9    1  0.1601012E-005  0.2126830E+03  0.7546771E-02  0.1139642E+00
         21   -1    0    0  501  502  0.00000000000E+00  0.00000000000E+00  0.15809806214E+03  0.15809806214E+03  0.00000000000E+00 0. -1.
          1   -1    0    0  502    0 -0.00000000000E+00 -0.00000000000E+00 -0.80825584423E+03  0.80825584423E+03  0.00000000000E+00 0. -1.
         23    2    1    2    0    0 -0.18700786465E+03 -0.22846798620E+02 -0.37285759707E+03  0.42720771972E+03  0.89385292155E+02 0.  0.
         23    2    1    2    0    0  0.19122832220E+03  0.44247234203E+02 -0.37824588855E+03  0.43587070085E+03  0.91581803373E+02 0.  0.
        -13    1    4    4    0    0  0.91686474112E+01  0.32755251658E+02 -0.65705695026E+02  0.73987897425E+02  0.00000000000E+00 0.  1.
         13    1    4    4    0    0  0.18205967479E+03  0.11491982544E+02 -0.31254019353E+03  0.36188280343E+03  0.00000000000E+00 0. -1.
        -13    1    3    3    0    0 -0.12832584931E+03  0.51993936412E+01 -0.31493158389E+03  0.34011242234E+03  0.00000000000E+00 0.  1.
         13    1    3    3    0    0 -0.58682015339E+02 -0.28046192261E+02 -0.57926013176E+02  0.87095297388E+02  0.00000000000E+00 0. -1.
          1    1    1    2  501    0 -0.42204575512E+01 -0.21400435583E+02  0.10094570353E+03  0.10327548580E+03  0.00000000000E+00 0. -1.
<scales pt_clust_5="13000.00000" pt_clust_6="13000.00000" pt_clust_7="13000.00000" pt_clust_8="13000.00000" pt_clust_9="21.81263"></scales>
<clustering>
<clus scale="   21.813">  1  9  2 -1</clus>
<clus scale="   89.385">  7  8 -1 -1</clus>
<clus scale="   91.582">  5  6 -1 -1</clus>
<clus scale="  211.746">  2  7  1 -1</clus>
<clus scale="   21.813">  1  5  2 -1</clus>
</clustering>
</event>
<event>
 9    1  0.1601012E-005  0.1307686E+03  0.7546771E-02  0.1226503E+00
          1   -1    0    0  502    0 -0.00000000000E+00  0.00000000000E+00  0.63467021295E+03  0.63467021295E+03  0.00000000000E+00 0. -1.
         21   -1    0    0  501  502  0.00000000000E+00 -0.00000000000E+00 -0.40159111098E+02  0.40159111098E+02  0.00000000000E+00 0. -1.
         23    2    1    2    0    0 -0.78875421830E+01  0.93937391156E+02  0.30023692646E+03  0.32827666285E+03  0.93471431925E+02 0.  0.
         23    2    1    2    0    0  0.52487136592E+02 -0.78694309660E+02  0.24391944033E+03  0.27758111128E+03  0.92773304808E+02 0.  0.
        -13    1    3    3    0    0  0.26860260924E+02  0.81765926538E+02  0.14399098460E+03  0.16775143518E+03  0.00000000000E+00 0. -1.
         13    1    3    3    0    0 -0.34747803107E+02  0.12171464618E+02  0.15624594186E+03  0.16052522767E+03  0.00000000000E+00 0.  1.
        -13    1    4    4    0    0  0.55041446150E+02 -0.44095296241E+02  0.22935732648E+03  0.23995570249E+03  0.00000000000E+00 0. -1.
         13    1    4    4    0    0 -0.25543095585E+01 -0.34599013419E+02  0.14562113852E+02  0.37625408791E+02  0.00000000000E+00 0.  1.
          1    1    1    2  501    0 -0.44599594409E+02 -0.15243081496E+02  0.50354735057E+02  0.68971549914E+02  0.00000000000E+00 0. -1.
<scales pt_clust_5="13000.00000" pt_clust_6="13000.00000" pt_clust_7="13000.00000" pt_clust_8="13000.00000" pt_clust_9="47.13253"></scales>
<clustering>
<clus scale="   47.133">  2  9  1 -1</clus>
<clus scale="   92.773">  7  8 -1 -1</clus>
<clus scale="   93.471">  5  6 -1 -1</clus>
<clus scale="  130.271">  2  7  1 -1</clus>
<clus scale="   47.133">  2  5  1 -1</clus>
</clustering>
</event>
<event>
 9    1  0.1601012E-005  0.1334368E+03  0.7546771E-02  0.1225769E+00
         21   -1    0    0  501  502  0.00000000000E+00  0.00000000000E+00  0.31056455628E+03  0.31056455628E+03  0.00000000000E+00 0.  1.
          1   -1    0    0  502    0 -0.00000000000E+00 -0.00000000000E+00 -0.80699677729E+02  0.80699677729E+02  0.00000000000E+00 0. -1.
         23    2    1    2    0    0 -0.49028792726E+02  0.89775096417E+02  0.36670744693E+02  0.14788498476E+03  0.10030869728E+03 0.  0.
         23    2    1    2    0    0  0.29499709892E+02 -0.57685991570E+02  0.12999951328E+03  0.16986288510E+03  0.88065996708E+02 0.  0.
        -13    1    3    3    0    0 -0.78695622890E+02  0.48891476900E+02  0.20999405980E+02  0.94996592713E+02  0.00000000000E+00 0.  1.
         13    1    3    3    0    0  0.29666830164E+02  0.40883619517E+02  0.15671338714E+02  0.52888392052E+02  0.00000000000E+00 0. -1.
        -13    1    4    4    0    0  0.16555316505E+02  0.12038393397E+02 -0.14324972075E+01  0.20519587433E+02  0.00000000000E+00 0. -1.
         13    1    4    4    0    0  0.12944393387E+02 -0.69724384966E+02  0.13143201048E+03  0.14934329767E+03  0.00000000000E+00 0.  1.
          1    1    1    2  501    0  0.19529082834E+02 -0.32089104847E+02  0.63194620585E+02  0.73516364145E+02  0.00000000000E+00 0. -1.
<scales pt_clust_5="13000.00000" pt_clust_6="13000.00000" pt_clust_7="13000.00000" pt_clust_8="13000.00000" pt_clust_9="37.56455"></scales>
<clustering>
<clus scale="   37.565">  1  9  2 -1</clus>
<clus scale="   88.066">  7  8 -1 -1</clus>
<clus scale="  100.309">  5  6 -1 -1</clus>
<clus scale="  124.496">  1  7  2 -1</clus>
<clus scale="   37.565">  1  5  2 -1</clus>
</clustering>
</event>
<event>
 9    1  0.1601012E-005  0.1152346E+03  0.7546771E-02  0.1251472E+00
          1   -1    0    0  502    0 -0.00000000000E+00  0.00000000000E+00  0.78861500387E+02  0.78861500387E+02  0.00000000000E+00 0. -1.
         21   -1    0    0  501  502  0.00000000000E+00 -0.00000000000E+00 -0.24852346654E+03  0.24852346654E+03  0.00000000000E+00 0.  1.
         23    2    1    2    0    0  0.38599289951E+02  0.45758128849E+02 -0.27826475689E+02  0.11337835288E+03  0.92177147989E+02 0.  0.
         23    2    1    2    0    0 -0.44169486980E+02 -0.77553121912E+02 -0.11820788060E+03  0.17400395630E+03  0.91317268222E+02 0.  0.
        -11    1    3    3    0    0 -0.16789204030E+01 -0.24275761336E+02 -0.21275180510E+02  0.32322819616E+02  0.00000000000E+00 0.  1.
         11    1    3    3    0    0  0.40278210354E+02  0.70033890185E+02 -0.65512951792E+01  0.81055533262E+02  0.00000000000E+00 0. -1.
        -13    1    4    4    0    0 -0.34667946640E+02 -0.39263516036E+02 -0.12354883889E+03  0.13419316602E+03  0.00000000000E+00 0.  1.
         13    1    4    4    0    0 -0.95015403403E+01 -0.38289605876E+02  0.53409582978E+01  0.39810790278E+02  0.00000000000E+00 0. -1.
          1    1    1    2  501    0  0.55701970292E+01  0.31794993063E+02 -0.23627609868E+02  0.40002657748E+02  0.00000000000E+00 0. -1.
<scales pt_clust_5="13000.00000" pt_clust_6="13000.00000" pt_clust_7="13000.00000" pt_clust_8="13000.00000" pt_clust_9="32.27923"></scales>
<clustering>
<clus scale="   32.279">  2  9  1 -1</clus>
<clus scale="   91.317">  7  8 -1 -1</clus>
<clus scale="   92.177">  5  6 -1 -1</clus>
<clus scale="  114.548">  2  7  1 -1</clus>
<clus scale="   32.279">  2  5  1 -1</clus>
</clustering>
</event>
<event>
 9    1  0.1601012E-005  0.1176474E+03  0.7546771E-02  0.1247729E+00
         21   -1    0    0  501  502  0.00000000000E+00  0.00000000000E+00  0.16055052818E+03  0.16055052818E+03  0.00000000000E+00 0. -1.
          1   -1    0    0  502    0 -0.00000000000E+00 -0.00000000000E+00 -0.45637161014E+03  0.45637161014E+03  0.00000000000E+00 0. -1.
         23    2    1    2    0    0 -0.37104039747E+02 -0.73207231262E+02 -0.38426577649E+03  0.40341732361E+03  0.91374731390E+02 0.  0.
         23    2    1    2    0    0  0.21311466229E+02  0.34054759738E+02 -0.17526300128E+02  0.99433902056E+02  0.89252587797E+02 0.  0.
        -11    1    3    3    0    0 -0.50726430134E+02 -0.28634313387E+02 -0.10312437357E+03  0.11843872273E+03  0.00000000000E+00 0.  1.
         11    1    3    3    0    0  0.13622390387E+02 -0.44572917875E+02 -0.28114140291E+03  0.28497860088E+03  0.00000000000E+00 0. -1.
        -13    1    4    4    0    0 -0.18124425040E+02  0.19349195063E+02 -0.42795618203E+02  0.50342338742E+02  0.00000000000E+00 0.  1.
         13    1    4    4    0    0  0.39435891269E+02  0.14705564675E+02  0.25269318076E+02  0.49091563314E+02  0.00000000000E+00 0. -1.
          1    1    1    2  501    0  0.15792573518E+02  0.39152471523E+02  0.10597099465E+03  0.11407091265E+03  0.00000000000E+00 0. -1.
<scales pt_clust_5="13000.00000" pt_clust_6="13000.00000" pt_clust_7="13000.00000" pt_clust_8="13000.00000" pt_clust_9="42.21755"></scales>
<clustering>
<clus scale="   42.218">  1  9  2 -1</clus>
<clus scale="   89.253">  7  8 -1 -1</clus>
<clus scale="   91.375">  5  6 -1 -1</clus>
<clus scale="  116.007">  1  7  2 -1</clus>
<clus scale="   42.218">  1  5  2 -1</clus>
</clustering>
</event>
<event>
 9    1  0.1601012E-005  0.1977561E+03  0.7546771E-02  0.1152000E+00
          1   -1    0    0  502    0 -0.00000000000E+00  0.00000000000E+00  0.16557598593E+04  0.16557598593E+04  0.00000000000E+00 0. -1.
         21   -1    0    0  501  502  0.00000000000E+00 -0.00000000000E+00 -0.54083297130E+02  0.54083297130E+02  0.00000000000E+00 0. -1.
         23    2    1    2    0    0  0.67053051815E+02  0.11654637832E+03  0.54204292028E+03  0.56740727031E+03  0.10030609610E+03 0.  0.
         23    2    1    2    0    0 -0.36695587015E+00 -0.23579332553E+03  0.88330682459E+03  0.91937083663E+03  0.97021450485E+02 0.  0.
        -11    1    4    4    0    0 -0.40999397992E+02 -0.70020149562E+02  0.35595779463E+03  0.36508865161E+03  0.00000000000E+00 0.  1.
         11    1    4    4    0    0  0.40632442122E+02 -0.16577317597E+03  0.52734902997E+03  0.55428218502E+03  0.00000000000E+00 0. -1.
        -13    1    3    3    0    0  0.65253226390E+02  0.24657161037E+02  0.16145997451E+03  0.17588428728E+03  0.00000000000E+00 0. -1.
         13    1    3    3    0    0  0.17998254252E+01  0.91889217283E+02  0.38058294577E+03  0.39152298303E+03  0.00000000000E+00 0.  1.
          1    1    1    2  501    0 -0.66686095945E+02  0.11924694721E+03  0.17632681734E+03  0.22306504954E+03  0.00000000000E+00 0. -1.
<scales pt_clust_5="13000.00000" pt_clust_6="13000.00000" pt_clust_7="13000.00000" pt_clust_8="13000.00000" pt_clust_9="136.62675"></scales>
<clustering>
<clus scale="   97.021">  5  6 -1 -1</clus>
<clus scale="  100.306">  7  8 -1 -1</clus>
<clus scale="  136.627">  2  9  1 -1</clus>
<clus scale="  196.111">  2  5  1 -1</clus>
<clus scale="  136.627">  2  5  1 -1</clus>
</clustering>
</event>
<event>
 9    1  0.1601012E-005  0.1685888E+03  0.7546771E-02  0.1199367E+00
         21   -1    0    0  501  502  0.00000000000E+00  0.00000000000E+00  0.14226002250E+03  0.14226002250E+03  0.00000000000E+00 0.  1.
         -1   -1    0    0    0  501 -0.00000000000E+00 -0.00000000000E+00 -0.64901314608E+03  0.64901314608E+03  0.00000000000E+00 0.  1.
         23    2    1    2    0    0  0.24907130926E+02  0.53597145647E+02  0.59929323871E+02  0.12370602384E+03  0.90656700146E+02 0.  0.
         23    2    1    2    0    0  0.30138568980E+02  0.89564910802E+02 -0.46436341549E+03  0.48319093211E+03  0.94392206444E+02 0.  0.
        -11    1    4    4    0    0  0.63974155647E+02  0.66899423611E+02 -0.30778740334E+03  0.32140521329E+03  0.00000000000E+00 0.  1.
         11    1    4    4    0    0 -0.33835586667E+02  0.22665487191E+02 -0.15657601215E+03  0.16178571882E+03  0.00000000000E+00 0. -1.
        -13    1    3    3    0    0  0.79338368759E+01 -0.25457936710E+02  0.21128567184E+02  0.34021591091E+02  0.00000000000E+00 0. -1.
         13    1    3    3    0    0  0.16973294050E+02  0.79055082357E+02  0.38800756687E+02  0.89684432746E+02  0.00000000000E+00 0.  1.
         -1    1    1    2    0  502 -0.55045699906E+02 -0.14316205645E+03 -0.10231903196E+03  0.18437621263E+03  0.00000000000E+00 0.  1.
<scales pt_clust_5="13000.00000" pt_clust_6="13000.00000" pt_clust_7="13000.00000" pt_clust_8="13000.00000" pt_clust_9="139.68638"></scales>
<clustering>
<clus scale="   90.657">  7  8 -1 -1</clus>
<clus scale="   94.392">  5  6 -1 -1</clus>
<clus scale="  108.220">  2  7  1 -1</clus>
<clus scale="  139.686">  1  9  2 -1</clus>
<clus scale="  139.686">  1  5  2 -1</clus>
</clustering>
</event>
<event>
 9    1  0.1601012E-005  0.1602858E+03  0.7546771E-02  0.1188551E+00
         21   -1    0    0  501  502  0.00000000000E+00  0.00000000000E+00  0.24687805701E+03  0.24687805701E+03  0.00000000000E+00 0. -1.
          2   -1    0    0  502    0 -0.00000000000E+00 -0.00000000000E+00 -0.41186853700E+03  0.41186853700E+03  0.00000000000E+00 0. -1.
         23    2    1    2    0    0  0.31759879674E+02 -0.10237722872E+03 -0.18002262084E+03  0.22750563560E+03  0.88661622470E+02 0.  0.
         23    2    1    2    0    0 -0.47240921091E+02  0.19288893068E+03 -0.13425384081E+03  0.25597448942E+03  0.89783078903E+02 0.  0.
        -13    1    4    4    0    0 -0.66484333582E+02  0.18567437452E+03 -0.11851728411E+03  0.23009017059E+03  0.00000000000E+00 0. -1.
         13    1    4    4    0    0  0.19243412491E+02  0.72145561547E+01 -0.15736556692E+02  0.25884318831E+02  0.00000000000E+00 0.  1.
        -13    1    3    3    0    0 -0.22551186131E+02 -0.70545505778E+01 -0.11155458114E+02  0.26129809137E+02  0.00000000000E+00 0.  1.
         13    1    3    3    0    0  0.54311065805E+02 -0.95322678138E+02 -0.16886716273E+03  0.20137582646E+03  0.00000000000E+00 0. -1.
          2    1    1    2  501    0  0.15481041417E+02 -0.90511701962E+02  0.14928598165E+03  0.17526646899E+03  0.00000000000E+00 0. -1.
<scales pt_clust_5="13000.00000" pt_clust_6="13000.00000" pt_clust_7="13000.00000" pt_clust_8="13000.00000" pt_clust_9="91.82609"></scales>
<clustering>
<clus scale="   88.662">  7  8 -1 -1</clus>
<clus scale="   89.783">  5  6 -1 -1</clus>
<clus scale="   91.826">  1  9  2 -1</clus>
<clus scale="  159.660">  2  7  1 -1</clus>
<clus scale="   91.826">  1  5  2 -1</clus>
</clustering>
</event>
<event>
 9    1  0.1601012E-005  0.1160853E+03  0.7546771E-02  0.1250079E+00
         21   -1    0    0  501  502  0.00000000000E+00  0.00000000000E+00  0.27315046089E+03  0.27315046089E+03  0.00000000000E+00 0.  1.
          2   -1    0    0  502    0 -0.00000000000E+00 -0.00000000000E+00 -0.24230305003E+03  0.24230305003E+03  0.00000000000E+00 0. -1.
         23    2    1    2    0    0 -0.82822374322E+02 -0.44313565614E+01 -0.19022968774E+03  0.22474646437E+03  0.86281264121E+02 0.  0.
         23    2    1    2    0    0  0.27765766746E+02 -0.54757648774E+02  0.15004651212E+03  0.18309704419E+03  0.85095439898E+02 0.  0.
        -11    1    4    4    0    0 -0.17437652297E+01  0.22193473677E+02  0.37335911833E+02  0.43469084456E+02  0.00000000000E+00 0. -1.
         11    1    4    4    0    0  0.29509531975E+02 -0.76951122451E+02  0.11271060028E+03  0.13962795974E+03  0.00000000000E+00 0.  1.
        -13    1    3    3    0    0 -0.48825913172E+02 -0.99852380459E+01 -0.18284709075E+03  0.18951710575E+03  0.00000000000E+00 0. -1.
         13    1    3    3    0    0 -0.33996461150E+02  0.55538814845E+01 -0.73825969910E+01  0.35229358618E+02  0.00000000000E+00 0.  1.
          2    1    1    2  501    0  0.55056607577E+02  0.59189005335E+02  0.71030586489E+02  0.10761000236E+03  0.00000000000E+00 0. -1.
<scales pt_clust_5="13000.00000" pt_clust_6="13000.00000" pt_clust_7="13000.00000" pt_clust_8="13000.00000" pt_clust_9="80.83668"></scales>
<clustering>
<clus scale="   80.837">  1  9  2 -1</clus>
<clus scale="   85.095">  5  6 -1 -1</clus>
<clus scale="   86.281">  7  8 -1 -1</clus>
<clus scale="  115.207">  1  5  2 -1</clus>
<clus scale="   80.837">  1  5  2 -1</clus>
</clustering>
</event>
<event>
 9    1  0.1601012E-005  0.1080581E+03  0.7546771E-02  0.1266819E+00
         21   -1    0    0  501  502  0.00000000000E+00  0.00000000000E+00  0.18905007099E+03  0.18905007099E+03  0.00000000000E+00 0.  1.
          3   -1    0    0  502    0 -0.00000000000E+00 -0.00000000000E+00 -0.92252094737E+02  0.92252094737E+02  0.00000000000E+00 0. -1.
         23    2    1    2    0    0 -0.12455833800E+02  0.49628067882E+02 -0.32519527539E+01  0.11036542845E+03  0.97733615933E+02 0.  0.
         23    2    1    2    0    0 -0.35963751554E+01 -0.35389168798E+02  0.10972118821E+03  0.14740053295E+03  0.91776090508E+02 0.  0.
        -11    1    3    3    0    0 -0.38039976794E+02  0.21637605552E+00  0.27360441100E+02  0.46858087779E+02  0.00000000000E+00 0.  1.
         11    1    3    3    0    0  0.25584142994E+02  0.49411691827E+02 -0.30612393854E+02  0.63507340673E+02  0.00000000000E+00 0. -1.
        -13    1    4    4    0    0  0.21730881207E+02 -0.18976144181E+00 -0.70425558805E+01  0.22844360371E+02  0.00000000000E+00 0. -1.
         13    1    4    4    0    0 -0.25327256362E+02 -0.35199407356E+02  0.11676374409E+03  0.12455617258E+03  0.00000000000E+00 0.  1.
          3    1    1    2  501    0  0.16052208955E+02 -0.14238899084E+02 -0.96712592044E+01  0.23536204326E+02  0.00000000000E+00 0. -1.
<scales pt_clust_5="13000.00000" pt_clust_6="13000.00000" pt_clust_7="13000.00000" pt_clust_8="13000.00000" pt_clust_9="21.45740"></scales>
<clustering>
<clus scale="   21.457">  1  9  2 -1</clus>
<clus scale="   91.776">  7  8 -1 -1</clus>
<clus scale="   97.734">  5  6 -1 -1</clus>
<clus scale="  102.701">  1  7  2 -1</clus>
<clus scale="   21.457">  1  5  2 -1</clus>
</clustering>
</event>
<event>
 9    1  0.1601012E-005  0.2609381E+03  0.7546771E-02  0.1106703E+00
         21   -1    0    0  501  502  0.00000000000E+00  0.00000000000E+00  0.34003444246E+03  0.34003444246E+03  0.00000000000E+00 0.  1.
         -3   -1    0    0    0  501 -0.00000000000E+00 -0.00000000000E+00 -0.51565307764E+03  0.51565307764E+03  0.00000000000E+00 0.  1.
         23    2    1    2    0    0  0.14608492856E+03 -0.14911592424E+03 -0.96092920525E+02  0.24715631088E+03  0.90972674008E+02 0.  0.
         23    2    1    2    0    0 -0.57420122971E+02  0.29989728264E+03 -0.21701358125E+03  0.38604664964E+03  0.93282745425E+02 0.  0.
        -11    1    4    4    0    0 -0.69656412526E+02  0.21669875861E+03 -0.19343617224E+03  0.29871042921E+03  0.00000000000E+00 0.  1.
         11    1    4    4    0    0  0.12236289555E+02  0.83198524026E+02 -0.23577409007E+02  0.87336220423E+02  0.00000000000E+00 0. -1.
        -11    1    3    3    0    0  0.70689947240E+02 -0.13204675538E+03 -0.54585711786E+02  0.15941459838E+03  0.00000000000E+00 0.  1.
         11    1    3    3    0    0  0.75394981325E+02 -0.17069168867E+02 -0.41507208740E+02  0.87741712498E+02  0.00000000000E+00 0. -1.
         -3    1    1    2    0  502 -0.88664805594E+02 -0.15078135839E+03  0.13748786660E+03  0.22248455958E+03  0.00000000000E+00 0.  1.
<scales pt_clust_5="13000.00000" pt_clust_6="13000.00000" pt_clust_7="13000.00000" pt_clust_8="13000.00000" pt_clust_9="174.91845"></scales>
<clustering>
<clus scale="   90.973">  7  8 -1 -1</clus>
<clus scale="   93.283">  5  6 -1 -1</clus>
<clus scale="  174.918">  1  9  2 -1</clus>
<clus scale="  260.121">  2  7  1 -1</clus>
<clus scale="  174.918">  1  5  2 -1</clus>
</clustering>
</event>
<event>
 9    1  0.1601012E-005  0.1037212E+03  0.7546771E-02  0.1273560E+00
          1   -1    0    0  502    0 -0.00000000000E+00  0.00000000000E+00  0.87396901249E+03  0.87396901249E+03  0.00000000000E+00 0. -1.
         21   -1    0    0  501  502  0.00000000000E+00 -0.00000000000E+00 -0.63855707216E+02  0.63855707216E+02  0.00000000000E+00 0. -1.
         23    2    1    2    0    0 -0.74212815974E+01 -0.37243815210E+02  0.57853472267E+03  0.58711125158E+03  0.92493346779E+02 0.  0.
         23    2    1    2    0    0 -0.47585274989E+02  0.84295188330E+02  0.24362811076E+03  0.27733265246E+03  0.90491472503E+02 0.  0.
        -11    1    3    3    0    0  0.76866991104E+00  0.31057879514E+02  0.16653772140E+03  0.16941072983E+03  0.00000000000E+00 0. -1.
         11    1    3    3    0    0 -0.81899515085E+01 -0.68301694723E+02  0.41199700127E+03  0.41770052174E+03  0.00000000000E+00 0.  1.
        -13    1    4    4    0    0 -0.57204889592E+02  0.46471037822E+02  0.21927458160E+03  0.23132941638E+03  0.00000000000E+00 0. -1.
         13    1    4    4    0    0  0.96196146028E+01  0.37824150508E+02  0.24353529163E+02  0.46003236075E+02  0.00000000000E+00 0.  1.
          1    1    1    2  501    0  0.55006556587E+02 -0.47051373120E+02 -0.12049528157E+02  0.73380815673E+02  0.00000000000E+00 0. -1.
<scales pt_clust_5="13000.00000" pt_clust_6="13000.00000" pt_clust_7="13000.00000" pt_clust_8="13000.00000" pt_clust_9="72.38476"></scales>
<clustering>
<clus scale="   72.385">  2  9  1 -1</clus>
<clus scale="   90.491">  7  8 -1 -1</clus>
<clus scale="   92.493">  5  6 -1 -1</clus>
<clus scale="  101.940">  2  7  1 -1</clus>
<clus scale="   72.385">  2  5  1 -1</clus>
</clustering>
</event>
<event>
 9    1  0.1601012E-005  0.1284527E+03  0.7546771E-02  0.1229957E+00
         21   -1    0    0  501  502  0.00000000000E+00  0.00000000000E+00  0.11413176247E+03  0.11413176247E+03  0.00000000000E+00 0.  1.
          1   -1    0    0  502    0 -0.00000000000E+00 -0.00000000000E+00 -0.53088375950E+03  0.53088375950E+03  0.00000000000E+00 0. -1.
         23    2    1    2    0    0  0.80568871594E+02 -0.20463776209E+02 -0.33252476520E+03  0.35455614386E+03  0.90704081903E+02 0.  0.
         23    2    1    2    0    0 -0.98772456860E+02  0.59000122668E+02 -0.15173732783E+03  0.21062183319E+03  0.90001818041E+02 0.  0.
        -11    1    3    3    0    0  0.62735233768E+02 -0.35089858647E+02 -0.32066184127E+03  0.32861987794E+03  0.00000000000E+00 0. -1.
         11    1    3    3    0    0  0.17833637826E+02  0.14626082438E+02 -0.11862923933E+02  0.25936265919E+02  0.00000000000E+00 0.  1.
        -13    1    4    4    0    0 -0.24981376409E+02  0.39389079730E+02 -0.11849881239E+03  0.12734809502E+03  0.00000000000E+00 0. -1.
         13    1    4    4    0    0 -0.73791080452E+02  0.19611042939E+02 -0.33238515442E+02  0.83273738166E+02  0.00000000000E+00 0.  1.
          1    1    1    2  501    0  0.18203585267E+02 -0.38536346460E+02  0.67510096005E+02  0.79837544913E+02  0.00000000000E+00 0. -1.
<scales pt_clust_5="13000.00000" pt_clust_6="13000.00000" pt_clust_7="13000.00000" pt_clust_8="13000.00000" pt_clust_9="42.61949"></scales>
<clustering>
<clus scale="   42.619">  1  9  2 -1</clus>
<clus scale="   90.002">  7  8 -1 -1</clus>
<clus scale="   90.704">  5  6 -1 -1</clus>
<clus scale="  127.958">  1  7  2 -1</clus>
<clus scale="   42.619">  1  5  2 -1</clus>
</clustering>
</event>
<event>
 9    1  0.1601012E-005  0.1009444E+03  0.7546771E-02  0.1281073E+00
         -1   -1    0    0    0  501 -0.00000000000E+00  0.00000000000E+00  0.85290394516E+03  0.85290394516E+03  0.00000000000E+00 0.  1.
         21   -1    0    0  501  502  0.00000000000E+00 -0.00000000000E+00 -0.24387110569E+02  0.24387110569E+02  0.00000000000E+00 0.  1.
         23    2    1    2    0    0 -0.29545556013E+02  0.32936656203E+02  0.53810841341E+03  0.54842783741E+03  0.96201169750E+02 0.  0.
         23    2    1    2    0    0 -0.13958680464E+02 -0.19090225408E+02  0.25302521655E+03  0.26985604735E+03  0.90781301014E+02 0.  0.
        -11    1    4    4    0    0 -0.48229701612E+02  0.81352873876E+01  0.15422087288E+03  0.16179111425E+03  0.00000000000E+00 0.  1.
         11    1    4    4    0    0  0.34271021147E+02 -0.27225512795E+02  0.98804343671E+02  0.10806493310E+03  0.00000000000E+00 0. -1.
        -13    1    3    3    0    0  0.48618187845E+01  0.59895152530E+02  0.36336545242E+03  0.36830085337E+03  0.00000000000E+00 0.  1.
         13    1    3    3    0    0 -0.34407374797E+02 -0.26958496328E+02  0.17474296099E+03  0.18012698404E+03  0.00000000000E+00 0. -1.
         -1    1    1    2    0  502  0.43504236477E+02 -0.13846430795E+02  0.37383204624E+02  0.59007170964E+02  0.00000000000E+00 0.  1.
<scales pt_clust_5="13000.00000" pt_clust_6="13000.00000" pt_clust_7="13000.00000" pt_clust_8="13000.00000" pt_clust_9="45.65460"></scales>
<clustering>
<clus scale="   45.655">  2  9  1 -1</clus>
<clus scale="   90.781">  5  6 -1 -1</clus>
<clus scale="   95.793">  2  5  1 -1</clus>
<clus scale="   96.201">  7  8 -1 -1</clus>
<clus scale="   45.655">  2  5  1 -1</clus>
</clustering>
</event>
<event>
 9    1  0.1601012E-005  0.1052275E+03  0.7546771E-02  0.1270044E+00
         21   -1    0    0  501  502  0.00000000000E+00  0.00000000000E+00  0.14496584048E+03  0.14496584048E+03  0.00000000000E+00 0.  1.
          2   -1    0    0  502    0 -0.00000000000E+00 -0.00000000000E+00 -0.16848870991E+03  0.16848870991E+03  0.00000000000E+00 0. -1.
         23    2    1    2    0    0 -0.27044794921E+01 -0.51382478410E+02 -0.57886113997E+02  0.11970942980E+03  0.91280184559E+02 0.  0.
         23    2    1    2    0    0  0.26690843786E+02  0.46042165757E+02 -0.41337504764E+02  0.11415574906E+03  0.92143711528E+02 0.  0.
        -11    1    3    3    0    0 -0.17744411353E+02 -0.70196329246E+02 -0.61940745681E+02  0.95284021480E+02  0.00000000000E+00 0. -1.
         11    1    3    3    0    0  0.15039931861E+02  0.18813850836E+02  0.40546316840E+01  0.24425408323E+02  0.00000000000E+00 0.  1.
        -13    1    4    4    0    0  0.56871460657E+02  0.19126792175E+02 -0.57304192983E+01  0.60274662351E+02  0.00000000000E+00 0.  1.
         13    1    4    4    0    0 -0.30180616871E+02  0.26915373582E+02 -0.35607085466E+02  0.53881086711E+02  0.00000000000E+00 0. -1.
          2    1    1    2  501    0 -0.23986364294E+02  0.53403126534E+01  0.75700749330E+02  0.79589371529E+02  0.00000000000E+00 0. -1.
<scales pt_clust_5="13000.00000" pt_clust_6="13000.00000" pt_clust_7="13000.00000" pt_clust_8="13000.00000" pt_clust_9="24.57366"></scales>
<clustering>
<clus scale="   24.574">  1  9  2 -1</clus>
<clus scale="   91.280">  5  6 -1 -1</clus>
<clus scale="   92.144">  7  8 -1 -1</clus>
<clus scale="  104.472">  2  5  1 -1</clus>
<clus scale="   24.574">  1  5  2 -1</clus>
</clustering>
</event>
<event>
 9    1  0.1601012E-005  0.1151343E+03  0.7546771E-02  0.1253727E+00
          3   -1    0    0  502    0 -0.00000000000E+00  0.00000000000E+00  0.81125604722E+02  0.81125604722E+02  0.00000000000E+00 0. -1.
         21   -1    0    0  501  502  0.00000000000E+00 -0.00000000000E+00 -0.26238783683E+03  0.26238783683E+03  0.00000000000E+00 0. -1.
         23    2    1    2    0    0  0.75244889677E+02 -0.39819965214E+01 -0.21475808423E+02  0.11785260898E+03  0.88036227635E+02 0.  0.
         23    2    1    2    0    0 -0.50674863827E+02  0.17796509257E+02 -0.64881209470E+02  0.12665817293E+03  0.94594206276E+02 0.  0.
        -11    1    4    4    0    0 -0.13080249572E+02  0.51611572076E+02 -0.14284696050E+02  0.55126217376E+02  0.00000000000E+00 0. -1.
         11    1    4    4    0    0 -0.37594614255E+02 -0.33815062819E+02 -0.50596513421E+02  0.71531955550E+02  0.00000000000E+00 0.  1.
        -11    1    3    3    0    0  0.42269251523E+02  0.11570411597E+02  0.31195796651E+02  0.53793510552E+02  0.00000000000E+00 0. -1.
         11    1    3    3    0    0  0.32975638154E+02 -0.15552408118E+02 -0.52671605073E+02  0.64059098424E+02  0.00000000000E+00 0.  1.
          3    1    1    2  501    0 -0.24570025850E+02 -0.13814512735E+02 -0.94905214211E+02  0.99002659645E+02  0.00000000000E+00 0. -1.
<scales pt_clust_5="13000.00000" pt_clust_6="13000.00000" pt_clust_7="13000.00000" pt_clust_8="13000.00000" pt_clust_9="28.18735"></scales>
<clustering>
<clus scale="   28.187">  2  9  1 -1</clus>
<clus scale="   88.036">  7  8 -1 -1</clus>
<clus scale="   94.594">  5  6 -1 -1</clus>
<clus scale="  109.810">  1  7  2 -1</clus>
<clus scale="   28.187">  2  5  1 -1</clus>
</clustering>
</event>
<event>
 9    1  0.1601012E-005  0.1151182E+03  0.7546771E-02  0.1253367E+00
         21   -1    0    0  501  502  0.00000000000E+00  0.00000000000E+00  0.17618720133E+03  0.17618720133E+03  0.00000000000E+00 0.  1.
          1   -1    0    0  502    0 -0.00000000000E+00 -0.00000000000E+00 -0.23485800343E+03  0.23485800343E+03  0.00000000000E+00 0. -1.
         23    2    1    2    0    0  0.55231776652E+02  0.37483944302E+02 -0.19365874858E+03  0.22597551614E+03  0.95423413061E+02 0.  0.
         23    2    1    2    0    0 -0.44685697169E+02 -0.18192727860E+02  0.95102756765E+02  0.13952631169E+03  0.89973720779E+02 0.  0.
        -11    1    3    3    0    0 -0.27143406101E+02  0.96406725366E+01 -0.38092167774E+02  0.47756887540E+02  0.00000000000E+00 0.  1.
         11    1    3    3    0    0  0.82375182753E+02  0.27843271766E+02 -0.15556658080E+03  0.17821862860E+03  0.00000000000E+00 0. -1.
        -11    1    4    4    0    0 -0.38694263523E+02  0.21502517298E+02  0.99309651383E+01  0.45367701599E+02  0.00000000000E+00 0. -1.
         11    1    4    4    0    0 -0.59914336460E+01 -0.39695245159E+02  0.85171791626E+02  0.94158610091E+02  0.00000000000E+00 0.  1.
          1    1    1    2  501    0 -0.10546079483E+02 -0.19291216442E+02  0.39885189713E+02  0.45543376936E+02  0.00000000000E+00 0. -1.
<scales pt_clust_5="13000.00000" pt_clust_6="13000.00000" pt_clust_7="13000.00000" pt_clust_8="13000.00000" pt_clust_9="21.98570"></scales>
<clustering>
<clus scale="   21.986">  1  9  2 -1</clus>
<clus scale="   89.974">  7  8 -1 -1</clus>
<clus scale="   95.423">  5  6 -1 -1</clus>
<clus scale="  110.643">  1  7  2 -1</clus>
<clus scale="   21.986">  1  5  2 -1</clus>
</clustering>
</event>
<event>
 9    1  0.1601012E-005  0.9263348E+02  0.7546771E-02  0.1296776E+00
         -1   -1    0    0    0  501 -0.00000000000E+00  0.00000000000E+00  0.15423984332E+03  0.15423984332E+03  0.00000000000E+00 0.  1.
         21   -1    0    0  501  502  0.00000000000E+00 -0.00000000000E+00 -0.26216768400E+03  0.26216768400E+03  0.00000000000E+00 0.  1.
         23    2    1    2    0    0 -0.29051844250E+01  0.23473923849E+01  0.80429576808E+02  0.12191927195E+03  0.91550214088E+02 0.  0.
         23    2    1    2    0    0  0.13317204722E+02  0.61070408057E+02 -0.17537292634E+02  0.11197868675E+03  0.91239941758E+02 0.  0.
        -11    1    3    3    0    0 -0.43808157591E+02 -0.28296040540E+01  0.18766356720E+02  0.47742407513E+02  0.00000000000E+00 0. -1.
         11    1    3    3    0    0  0.40902973166E+02  0.51769964389E+01  0.61663220088E+02  0.74176864436E+02  0.00000000000E+00 0.  1.
        -13    1    4    4    0    0  0.53647184265E+01  0.42652088285E+02  0.35195822357E+02  0.55558318461E+02  0.00000000000E+00 0.  1.
         13    1    4    4    0    0  0.79524862958E+01  0.18418319772E+02 -0.52733114991E+02  0.56420368291E+02  0.00000000000E+00 0. -1.
         -1    1    1    2    0  502 -0.10412020297E+02 -0.63417800442E+02 -0.17082012486E+03  0.18250956862E+03  0.00000000000E+00 0.  1.
<scales pt_clust_5="13000.00000" pt_clust_6="13000.00000" pt_clust_7="13000.00000" pt_clust_8="13000.00000" pt_clust_9="64.26685"></scales>
<clustering>
<clus scale="   64.267">  2  9  1 -1</clus>
<clus scale="   91.240">  7  8 -1 -1</clus>
<clus scale="   91.550">  5  6 -1 -1</clus>
<clus scale="   92.327">  2  7  1 -1</clus>
<clus scale="   64.267">  2  5  1 -1</clus>
</clustering>
</event>
<event>
 9    1  0.1601012E-005  0.9207866E+02  0.7546771E-02  0.1304613E+00
         21   -1    0    0  501  502  0.00000000000E+00  0.00000000000E+00  0.19027290716E+03  0.19027290716E+03  0.00000000000E+00 0.  1.
          3   -1    0    0  502    0 -0.00000000000E+00 -0.00000000000E+00 -0.82901235125E+02  0.82901235125E+02  0.00000000000E+00 0. -1.
         23    2    1    2    0    0  0.14346980065E+02 -0.21419618853E+02  0.25458060283E+01  0.94321395400E+02  0.90694038355E+02 0.  0.
         23    2    1    2    0    0  0.14369173974E+02  0.10394528508E+02  0.13973308519E+02  0.82934253767E+02  0.79801740040E+02 0.  0.
        -11    1    3    3    0    0  0.20334117612E+01  0.35531734615E+02 -0.33978986723E+01  0.35751708260E+02  0.00000000000E+00 0.  1.
         11    1    3    3    0    0  0.12313568304E+02 -0.56951353467E+02  0.59437047006E+01  0.58569687140E+02  0.00000000000E+00 0. -1.
        -13    1    4    4    0    0  0.94020132405E+00 -0.26867624808E+02  0.29931259273E+02  0.40232244817E+02  0.00000000000E+00 0.  1.
         13    1    4    4    0    0  0.13428972650E+02  0.37262153316E+02 -0.15957950753E+02  0.42702008950E+02  0.00000000000E+00 0. -1.
          3    1    1    2  501    0 -0.28716154039E+02  0.11025090345E+02  0.90852557487E+02  0.95918493117E+02  0.00000000000E+00 0. -1.
<scales pt_clust_5="13000.00000" pt_clust_6="13000.00000" pt_clust_7="13000.00000" pt_clust_8="13000.00000" pt_clust_9="30.75988"></scales>
<clustering>
<clus scale="   30.760">  1  9  2 -1</clus>
<clus scale="   79.802">  7  8 -1 -1</clus>
<clus scale="   81.372">  1  7  2 -1</clus>
<clus scale="   90.694">  5  6 -1 -1</clus>
<clus scale="   30.760">  1  5  2 -1</clus>
</clustering>
</event>
<event>
 9    1  0.1601012E-005  0.1744260E+03  0.7546771E-02  0.1173325E+00
         21   -1    0    0  501  502  0.00000000000E+00  0.00000000000E+00  0.55943209567E+03  0.55943209567E+03  0.00000000000E+00 0. -1.
         -2   -1    0    0    0  501 -0.00000000000E+00 -0.00000000000E+00 -0.26546766401E+03  0.26546766401E+03  0.00000000000E+00 0.  1.
         23    2    1    2    0    0 -0.10947924337E+03  0.99064338620E+02 -0.17207292401E+03  0.24406050603E+03  0.90316064524E+02 0.  0.
         23    2    1    2    0    0  0.20115835024E+03 -0.17392117924E+02  0.33362934316E+03  0.40026436048E+03  0.90198958002E+02 0.  0.
        -11    1    4    4    0    0  0.16677863657E+03  0.22338525493E+02  0.24464139346E+03  0.29692344928E+03  0.00000000000E+00 0. -1.
         11    1    4    4    0    0  0.34379713667E+02 -0.39730643417E+02  0.88987949694E+02  0.10334091121E+03  0.00000000000E+00 0.  1.
        -11    1    3    3    0    0 -0.75916032944E+01  0.27640086981E+02  0.34894738400E+01  0.28875305653E+02  0.00000000000E+00 0. -1.
         11    1    3    3    0    0 -0.10188764008E+03  0.71424251639E+02 -0.17556239785E+03  0.21518520037E+03  0.00000000000E+00 0.  1.
         -2    1    1    2    0  502 -0.91679106863E+02 -0.81672220696E+02  0.13240801251E+03  0.18057489318E+03  0.00000000000E+00 0.  1.
<scales pt_clust_5="13000.00000" pt_clust_6="13000.00000" pt_clust_7="13000.00000" pt_clust_8="13000.00000" pt_clust_9="122.78196"></scales>
<clustering>
<clus scale="   90.199">  5  6 -1 -1</clus>
<clus scale="   90.316">  7  8 -1 -1</clus>
<clus scale="  122.782">  1  9  2 -1</clus>
<clus scale="  174.365">  1  5  2 -1</clus>
<clus scale="  122.782">  1  5  2 -1</clus>
</clustering>
</event>
<event>
 9    1  0.1601012E-005  0.1699776E+03  0.7546771E-02  0.1184753E+00
          2   -1    0    0  502    0 -0.00000000000E+00  0.00000000000E+00  0.50752518308E+03  0.50752518308E+03  0.00000000000E+00 0. -1.
         21   -1    0    0  501  502  0.00000000000E+00 -0.00000000000E+00 -0.78127454221E+02  0.78127454221E+02  0.00000000000E+00 0.  1.
         23    2    1    2    0    0 -0.16185866345E+02 -0.96878113750E+02  0.27116930691E+03  0.31485270872E+03  0.12630155971E+03 0.  0.
         23    2    1    2    0    0  0.17411688295E+02  0.14468630891E+03  0.11975915890E+03  0.20942395312E+03  0.90988137263E+02 0.  0.
        -11    1    4    4    0    0 -0.19857101888E+02  0.56607184348E+02  0.52347685292E+01  0.60216946259E+02  0.00000000000E+00 0.  1.
         11    1    4    4    0    0  0.37268790183E+02  0.88079124567E+02  0.11452439037E+03  0.14920700686E+03  0.00000000000E+00 0. -1.
        -13    1    3    3    0    0 -0.42101029048E+02 -0.10630527199E+03  0.26188198448E+03  0.28575423233E+03  0.00000000000E+00 0. -1.
         13    1    3    3    0    0  0.25915162703E+02  0.94271582363E+01  0.92873224287E+01  0.29098476390E+02  0.00000000000E+00 0.  1.
          2    1    1    2  501    0 -0.12258219496E+01 -0.47808195165E+02  0.38469263048E+02  0.61375975461E+02  0.00000000000E+00 0. -1.
<scales pt_clust_5="13000.00000" pt_clust_6="13000.00000" pt_clust_7="13000.00000" pt_clust_8="13000.00000" pt_clust_9="47.82391"></scales>
<clustering>
<clus scale="   47.824">  2  9  1 -1</clus>
<clus scale="   90.988">  5  6 -1 -1</clus>
<clus scale="  126.302">  7  8 -1 -1</clus>
<clus scale="  145.668">  2  5  1 -1</clus>
<clus scale="   47.824">  2  5  1 -1</clus>
</clustering>
</event>
<event>
 9    1  0.1601012E-005  0.1258513E+03  0.7546771E-02  0.1237359E+00
          4   -1    0    0  502    0 -0.00000000000E+00  0.00000000000E+00  0.29110689146E+03  0.29110689146E+03  0.00000000000E+00 0. -1.
         21   -1    0    0  501  502  0.00000000000E+00 -0.00000000000E+00 -0.18776023298E+03  0.18776023298E+03  0.00000000000E+00 0. -1.
         23    2    1    2    0    0 -0.41327020256E+02 -0.54959266518E+02  0.21522405840E+03  0.24438519858E+03  0.93135849124E+02 0.  0.
         23    2    1    2    0    0  0.14511083337E+02  0.88592103197E+02 -0.28173322353E+02  0.14037223042E+03  0.10417050779E+03 0.  0.
        -11    1    4    4    0    0 -0.31402022387E+02  0.40283481566E+02  0.23321832605E+02  0.56149388003E+02  0.00000000000E+00 0. -1.
         11    1    4    4    0    0  0.45913105724E+02  0.48308621631E+02 -0.51495154958E+02  0.84222842420E+02  0.00000000000E+00 0.  1.
        -13    1    3    3    0    0 -0.61730455596E+00  0.24300318924E+02  0.68947547974E+02  0.73107119601E+02  0.00000000000E+00 0.  1.
         13    1    3    3    0    0 -0.40709715700E+02 -0.79259585442E+02  0.14627651042E+03  0.17127807898E+03  0.00000000000E+00 0. -1.
          4    1    1    2  501    0  0.26815936919E+02 -0.33632836679E+02 -0.83704077564E+02  0.94109695445E+02  0.00000000000E+00 0. -1.
<scales pt_clust_5="13000.00000" pt_clust_6="13000.00000" pt_clust_7="13000.00000" pt_clust_8="13000.00000" pt_clust_9="43.01467"></scales>
<clustering>
<clus scale="   43.015">  2  9  1 -1</clus>
<clus scale="   93.136">  7  8 -1 -1</clus>
<clus scale="  104.171">  5  6 -1 -1</clus>
<clus scale="  116.882">  1  7  2 -1</clus>
<clus scale="   43.015">  2  5  1 -1</clus>
</clustering>
</event>
<event>
 9    1  0.1601012E-005  0.1081055E+03  0.7546771E-02  0.1264450E+00
          2   -1    0    0  502    0 -0.00000000000E+00  0.00000000000E+00  0.75674030920E+03  0.75674030920E+03  0.00000000000E+00 0. -1.
         21   -1    0    0  501  502  0.00000000000E+00 -0.00000000000E+00 -0.44848976592E+02  0.44848976592E+02  0.00000000000E+00 0.  1.
         23    2    1    2    0    0  0.35130404206E+02  0.43585283133E+02  0.47511229037E+03  0.48676476868E+03  0.89857828571E+02 0.  0.
         23    2    1    2    0    0 -0.22318570450E+02 -0.68008708221E+02  0.25659035166E+03  0.28086667917E+03  0.89017862926E+02 0.  0.
        -13    1    4    4    0    0  0.11731941257E+02  0.17800804233E+02  0.60107776821E+02  0.63776578078E+02  0.00000000000E+00 0. -1.
         13    1    4    4    0    0 -0.34050511707E+02 -0.85809512453E+02  0.19648257484E+03  0.21709010109E+03  0.00000000000E+00 0.  1.
        -13    1    3    3    0    0 -0.17336135305E+02 -0.11035947572E+02  0.38591154102E+02  0.43721972748E+02  0.00000000000E+00 0.  1.
         13    1    3    3    0    0  0.52466539511E+02  0.54621230705E+02  0.43652113627E+03  0.44304279593E+03  0.00000000000E+00 0. -1.
          2    1    1    2  501    0 -0.12811833756E+02  0.24423425088E+02 -0.19811309424E+02  0.33957837951E+02  0.00000000000E+00 0. -1.
<scales pt_clust_5="13000.00000" pt_clust_6="13000.00000" pt_clust_7="13000.00000" pt_clust_8="13000.00000" pt_clust_9="27.57983"></scales>
<clustering>
<clus scale="   27.580">  2  9  1 -1</clus>
<clus scale="   89.018">  5  6 -1 -1</clus>
<clus scale="   89.858">  7  8 -1 -1</clus>
<clus scale="  107.408">  2  5  1 -1</clus>
<clus scale="   27.580">  2  5  1 -1</clus>
</clustering>
</event>
<event>
 9    1  0.1601012E-005  0.2897482E+03  0.7546771E-02  0.1090528E+00
         21   -1    0    0  501  502  0.00000000000E+00  0.00000000000E+00  0.21248628897E+03  0.21248628897E+03  0.00000000000E+00 0. -1.
          2   -1    0    0  502    0 -0.00000000000E+00 -0.00000000000E+00 -0.87737667564E+03  0.87737667564E+03  0.00000000000E+00 0. -1.
         23    2    1    2    0    0 -0.10591701658E+03  0.27185267090E+03 -0.67457915195E+03  0.74065309064E+03  0.91584274529E+02 0.  0.
         23    2    1    2    0    0  0.44054220956E+02 -0.22267161509E+03 -0.50947871473E+02  0.24959770879E+03  0.90442844235E+02 0.  0.
        -13    1    4    4    0    0  0.20557171934E+02 -0.21483609893E+02  0.19021116762E+02  0.35297955958E+02  0.00000000000E+00 0.  1.
         13    1    4    4    0    0  0.23497049022E+02 -0.20118800520E+03 -0.69968988235E+02  0.21429975283E+03  0.00000000000E+00 0. -1.
        -13    1    3    3    0    0 -0.90171420919E+02  0.12284797896E+03 -0.28365217930E+03  0.32199545013E+03  0.00000000000E+00 0.  1.
         13    1    3    3    0    0 -0.15745595664E+02  0.14900469195E+03 -0.39092697266E+03  0.41865764051E+03  0.00000000000E+00 0. -1.
          2    1    1    2  501    0  0.61862795627E+02 -0.49181055811E+02  0.60636636764E+02  0.99612165178E+02  0.00000000000E+00 0. -1.
<scales pt_clust_5="13000.00000" pt_clust_6="13000.00000" pt_clust_7="13000.00000" pt_clust_8="13000.00000" pt_clust_9="79.03026"></scales>
<clustering>
<clus scale="   79.030">  1  9  2 -1</clus>
<clus scale="   90.443">  5  6 -1 -1</clus>
<clus scale="   91.584">  7  8 -1 -1</clus>
<clus scale="  289.389">  1  5  2 -1</clus>
<clus scale="   79.030">  1  5  2 -1</clus>
</clustering>
</event>
<event>
 9    1  0.1601012E-005  0.9756928E+02  0.7546771E-02  0.1287926E+00
         -3   -1    0    0    0  501 -0.00000000000E+00  0.00000000000E+00  0.95347605676E+02  0.95347605676E+02  0.00000000000E+00 0.  1.
         21   -1    0    0  501  502  0.00000000000E+00 -0.00000000000E+00 -0.15876749698E+03  0.15876749698E+03  0.00000000000E+00 0.  1.
         23    2    1    2    0    0 -0.11915177371E+02 -0.16537273104E+02  0.12880777179E+02  0.94733927615E+02  0.91614135193E+02 0.  0.
         23    2    1    2    0    0  0.18665370889E+02 -0.24362384067E+01 -0.20430631791E+02  0.99992453456E+02  0.96055966524E+02 0.  0.
        -11    1    4    4    0    0  0.56051954090E+02  0.17023563290E+01  0.21522767494E+01  0.56119086500E+02  0.00000000000E+00 0.  1.
         11    1    4    4    0    0 -0.37386583202E+02 -0.41385947357E+01 -0.22582908540E+02  0.43873366956E+02  0.00000000000E+00 0. -1.
        -11    1    3    3    0    0 -0.11986117595E+02  0.28057905402E+02 -0.22416220178E+02  0.37860269381E+02  0.00000000000E+00 0. -1.
         11    1    3    3    0    0  0.70940223504E-01 -0.44595178506E+02  0.35296997357E+02  0.56873658234E+02  0.00000000000E+00 0.  1.
         -3    1    1    2    0  502 -0.67501935173E+01  0.18973511511E+02 -0.55870036687E+02  0.59388721581E+02  0.00000000000E+00 0.  1.
<scales pt_clust_5="13000.00000" pt_clust_6="13000.00000" pt_clust_7="13000.00000" pt_clust_8="13000.00000" pt_clust_9="20.13850"></scales>
<clustering>
<clus scale="   20.139">  2  9  1 -1</clus>
<clus scale="   91.614">  7  8 -1 -1</clus>
<clus scale="   93.200">  1  7  2 -1</clus>
<clus scale="   96.056">  5  6 -1 -1</clus>
<clus scale="   20.139">  2  5  1 -1</clus>
</clustering>
</event>
<event>
 9    1  0.1601012E-005  0.1165590E+03  0.7546771E-02  0.1250094E+00
         21   -1    0    0  501  502  0.00000000000E+00  0.00000000000E+00  0.12507270907E+03  0.12507270907E+03  0.00000000000E+00 0. -1.
          2   -1    0    0  502    0 -0.00000000000E+00 -0.00000000000E+00 -0.44573721269E+03  0.44573721269E+03  0.00000000000E+00 0. -1.
         23    2    1    2    0    0  0.47931659087E+02 -0.55886427643E+02 -0.27096649800E+03  0.29637812792E+03  0.94849432970E+02 0.  0.
         23    2    1    2    0    0 -0.70659464320E+02  0.64667423921E+01 -0.13215201806E+03  0.17565162079E+03  0.91404361786E+02 0.  0.
        -11    1    4    4    0    0 -0.45203609491E+02  0.15723262736E+01 -0.45682065097E+01  0.45461049610E+02  0.00000000000E+00 0.  1.
         11    1    4    4    0    0 -0.25455854829E+02  0.48944161184E+01 -0.12758381155E+03  0.13019057118E+03  0.00000000000E+00 0. -1.
        -11    1    3    3    0    0  0.68891628752E+02 -0.24553973440E+02 -0.11793328356E+03  0.13877036245E+03  0.00000000000E+00 0.  1.
         11    1    3    3    0    0 -0.20959969665E+02 -0.31332454203E+02 -0.15303321444E+03  0.15760776547E+03  0.00000000000E+00 0. -1.
          2    1    1    2  501    0  0.22727805233E+02  0.49419685251E+02  0.82454012442E+02  0.98780173055E+02  0.00000000000E+00 0. -1.
<scales pt_clust_5="13000.00000" pt_clust_6="13000.00000" pt_clust_7="13000.00000" pt_clust_8="13000.00000" pt_clust_9="54.39539"></scales>
<clustering>
<clus scale="   54.395">  1  9  2 -1</clus>
<clus scale="   91.404">  5  6 -1 -1</clus>
<clus scale="   94.849">  7  8 -1 -1</clus>
<clus scale="  113.773">  1  5  2 -1</clus>
<clus scale="   54.395">  1  5  2 -1</clus>
</clustering>
</event>
<event>
 9    1  0.1601012E-005  0.1000408E+03  0.7546771E-02  0.1281035E+00
         -1   -1    0    0    0  501 -0.00000000000E+00  0.00000000000E+00  0.17711979580E+03  0.17711979580E+03  0.00000000000E+00 0.  1.
         21   -1    0    0  501  502  0.00000000000E+00 -0.00000000000E+00 -0.11818162038E+03  0.11818162038E+03  0.00000000000E+00 0.  1.
         23    2    1    2    0    0  0.38708258899E+02 -0.40774456876E+02  0.82944007998E+02  0.13401614595E+03  0.88992883267E+02 0.  0.
         23    2    1    2    0    0 -0.13296766277E+02  0.19401123662E+02  0.29558662298E+02  0.98263698999E+02  0.90712912153E+02 0.  0.
        -13    1    4    4    0    0 -0.57229031233E+01  0.41954896702E+02  0.50964622133E+02  0.66259774273E+02  0.00000000000E+00 0.  1.
         13    1    4    4    0    0 -0.75738631537E+01 -0.22553773040E+02 -0.21405959835E+02  0.32003924726E+02  0.00000000000E+00 0. -1.
        -13    1    3    3    0    0  0.21120214122E+02  0.24232524167E+02  0.48995575228E+02  0.58599019309E+02  0.00000000000E+00 0.  1.
         13    1    3    3    0    0  0.17588044777E+02 -0.65006981042E+02  0.33948432770E+02  0.75417126641E+02  0.00000000000E+00 0. -1.
         -1    1    1    2    0  502 -0.25411492622E+02  0.21373333214E+02 -0.53564494878E+02  0.63021571239E+02  0.00000000000E+00 0.  1.
<scales pt_clust_5="13000.00000" pt_clust_6="13000.00000" pt_clust_7="13000.00000" pt_clust_8="13000.00000" pt_clust_9="33.20487"></scales>
<clustering>
<clus scale="   33.205">  2  9  1 -1</clus>
<clus scale="   88.993">  7  8 -1 -1</clus>
<clus scale="   90.713">  5  6 -1 -1</clus>
<clus scale="   98.484">  1  7  2 -1</clus>
<clus scale="   33.205">  2  5  1 -1</clus>
</clustering>
</event>
<event>
 9    1  0.1601012E-005  0.1421968E+03  0.7546771E-02  0.1216886E+00
         -2   -1    0    0    0  501 -0.00000000000E+00  0.00000000000E+00  0.14006269048E+03  0.14006269048E+03  0.00000000000E+00 0.  1.
         21   -1    0    0  501  502  0.00000000000E+00 -0.00000000000E+00 -0.20606825967E+03  0.20606825967E+03  0.00000000000E+00 0. -1.
         23    2    1    2    0    0 -0.83435489675E+02 -0.27991090133E+02  0.13348850604E+02  0.14512889024E+03  0.11462644069E+03 0.  0.
         23    2    1    2    0    0  0.83173014746E+02 -0.43629691173E+01 -0.91198605511E+01  0.12367323375E+03  0.90967637146E+02 0.  0.
        -13    1    3    3    0    0 -0.44925711266E+02 -0.46953575017E+02 -0.40265571327E+02  0.76447851336E+02  0.00000000000E+00 0. -1.
         13    1    3    3    0    0 -0.38509778409E+02  0.18962484884E+02  0.53614421930E+02  0.68681038905E+02  0.00000000000E+00 0.  1.
        -13    1    4    4    0    0  0.70810156005E+02  0.21322092428E+02  0.26047505790E+02  0.78403969140E+02  0.00000000000E+00 0.  1.
         13    1    4    4    0    0  0.12362858741E+02 -0.25685061545E+02 -0.35167366341E+02  0.45269264609E+02  0.00000000000E+00 0. -1.
         -2    1    1    2    0  502  0.26247492911E+00  0.32354059251E+02 -0.70234559241E+02  0.77328826158E+02  0.00000000000E+00 0.  1.
<scales pt_clust_5="13000.00000" pt_clust_6="13000.00000" pt_clust_7="13000.00000" pt_clust_8="13000.00000" pt_clust_9="32.35512"></scales>
<clustering>
<clus scale="   32.355">  2  9  1 -1</clus>
<clus scale="   90.968">  7  8 -1 -1</clus>
<clus scale="  114.626">  5  6 -1 -1</clus>
<clus scale="  123.919">  2  7  1 -1</clus>
<clus scale="   32.355">  2  5  1 -1</clus>
</clustering>
</event>
<event>
 9    1  0.1601012E-005  0.9396185E+02  0.7546771E-02  0.1299271E+00
         21   -1    0    0  501  502  0.00000000000E+00  0.00000000000E+00  0.17397497016E+03  0.17397497016E+03  0.00000000000E+00 0. -1.
         -4   -1    0    0    0  501 -0.00000000000E+00 -0.00000000000E+00 -0.61628682907E+02  0.61628682907E+02  0.00000000000E+00 0.  1.
         23    2    1    2    0    0  0.10962611951E+02 -0.12537063749E+02  0.28227681155E+02  0.99245296213E+02  0.93677478664E+02 0.  0.
         23    2    1    2    0    0  0.67813627009E+01 -0.18843719761E+01  0.66398393547E+02  0.10743030165E+03  0.84160473562E+02 0.  0.
        -11    1    3    3    0    0 -0.30473526150E+02 -0.30229604974E+01  0.44249149023E+02  0.53812278110E+02  0.00000000000E+00 0. -1.
         11    1    3    3    0    0  0.41436138100E+02 -0.95141032520E+01 -0.16021467868E+02  0.45433018103E+02  0.00000000000E+00 0.  1.
        -11    1    4    4    0    0  0.35087767519E+02  0.26105766384E+02  0.26861675343E+02  0.51324575695E+02  0.00000000000E+00 0.  1.
         11    1    4    4    0    0 -0.28306404818E+02 -0.27990138360E+02  0.39536718204E+02  0.56105725960E+02  0.00000000000E+00 0. -1.
         -4    1    1    2    0  502 -0.17743974652E+02  0.14421435726E+02  0.17720212555E+02  0.28928055203E+02  0.00000000000E+00 0.  1.
<scales pt_clust_5="13000.00000" pt_clust_6="13000.00000" pt_clust_7="13000.00000" pt_clust_8="13000.00000" pt_clust_9="22.86540"></scales>
<clustering>
<clus scale="   22.865">  1  9  2 -1</clus>
<clus scale="   84.160">  7  8 -1 -1</clus>
<clus scale="   84.477">  1  7  2 -1</clus>
<clus scale="   93.677">  5  6 -1 -1</clus>
<clus scale="   22.865">  1  5  2 -1</clus>
</clustering>
</event>
<event>
 9    1  0.1601012E-005  0.9972945E+02  0.7546771E-02  0.1281052E+00
          2   -1    0    0  502    0 -0.00000000000E+00  0.00000000000E+00  0.58887918545E+03  0.58887918545E+03  0.00000000000E+00 0. -1.
         21   -1    0    0  501  502  0.00000000000E+00 -0.00000000000E+00 -0.25172319374E+02  0.25172319374E+02  0.00000000000E+00 0.  1.
         23    2    1    2    0    0  0.36287050866E+01  0.36040574726E+02  0.32494641852E+03  0.33982410505E+03  0.92618340198E+02 0.  0.
         23    2    1    2    0    0  0.25195609751E+02 -0.36495441104E+02  0.20943972850E+03  0.23310863768E+03  0.92238284447E+02 0.  0.
        -11    1    3    3    0    0  0.65268560836E+01  0.65410275858E+02  0.17363750143E+03  0.18566390587E+03  0.00000000000E+00 0.  1.
         11    1    3    3    0    0 -0.28981509969E+01 -0.29369701132E+02  0.15130891708E+03  0.15416019919E+03  0.00000000000E+00 0. -1.
        -11    1    4    4    0    0  0.54897131078E+02 -0.18678191817E-01  0.10235071044E+03  0.11614371820E+03  0.00000000000E+00 0.  1.
         11    1    4    4    0    0 -0.29701521327E+02 -0.36476762912E+02  0.10708901806E+03  0.11696491949E+03  0.00000000000E+00 0. -1.
          2    1    1    2  501    0 -0.28824314838E+02  0.45486637743E+00  0.29320719065E+02  0.41118762090E+02  0.00000000000E+00 0. -1.
<scales pt_clust_5="13000.00000" pt_clust_6="13000.00000" pt_clust_7="13000.00000" pt_clust_8="13000.00000" pt_clust_9="28.82790"></scales>
<clustering>
<clus scale="   28.828">  2  9  1 -1</clus>
<clus scale="   92.238">  7  8 -1 -1</clus>
<clus scale="   92.618">  5  6 -1 -1</clus>
<clus scale="   99.377">  2  7  1 -1</clus>
<clus scale="   28.828">  2  5  1 -1</clus>
</clustering>
</event>
<event>
 9    1  0.1601012E-005  0.9430720E+02  0.7546771E-02  0.1293637E+00
         21   -1    0    0  501  502  0.00000000000E+00  0.00000000000E+00  0.10144303343E+03  0.10144303343E+03  0.00000000000E+00 0. -1.
         -2   -1    0    0    0  501 -0.00000000000E+00 -0.00000000000E+00 -0.29214168291E+03  0.29214168291E+03  0.00000000000E+00 0.  1.
         23    2    1    2    0    0  0.59753770605E+01 -0.68167069575E+01 -0.11271709737E+03  0.14480942865E+03  0.90456917704E+02 0.  0.
         23    2    1    2    0    0  0.97861679009E+01  0.80978052463E+02  0.20292261841E+02  0.12465408091E+03  0.92052430347E+02 0.  0.
        -11    1    3    3    0    0 -0.23367528486E+02  0.32473179600E+02 -0.36354828662E+02  0.54057583630E+02  0.00000000000E+00 0. -1.
         11    1    3    3    0    0  0.29342905546E+02 -0.39289886557E+02 -0.76362268710E+02  0.90751845017E+02  0.00000000000E+00 0.  1.
        -11    1    4    4    0    0  0.39574829253E+02  0.83797974297E+02  0.11004863491E+02  0.93324030276E+02  0.00000000000E+00 0. -1.
         11    1    4    4    0    0 -0.29788661352E+02 -0.28199218336E+01  0.92873983497E+01  0.31330050629E+02  0.00000000000E+00 0.  1.
         -2    1    1    2    0  502 -0.15761544961E+02 -0.74161345505E+02 -0.98273813951E+02  0.12412120679E+03  0.00000000000E+00 0.  1.
<scales pt_clust_5="13000.00000" pt_clust_6="13000.00000" pt_clust_7="13000.00000" pt_clust_8="13000.00000" pt_clust_9="75.81779"></scales>
<clustering>
<clus scale="   75.818">  1  9  2 -1</clus>
<clus scale="   90.457">  5  6 -1 -1</clus>
<clus scale="   92.052">  7  8 -1 -1</clus>
<clus scale="   92.750">  2  5  1 -1</clus>
<clus scale="   75.818">  1  5  2 -1</clus>
</clustering>
</event>
<event>
 9    1  0.1601012E-005  0.1591568E+03  0.7546771E-02  0.1212353E+00
         21   -1    0    0  501  502  0.00000000000E+00  0.00000000000E+00  0.21369585933E+03  0.21369585933E+03  0.00000000000E+00 0. -1.
          1   -1    0    0  502    0 -0.00000000000E+00 -0.00000000000E+00 -0.32305356757E+03  0.32305356757E+03  0.00000000000E+00 0. -1.
         23    2    1    2    0    0 -0.28398223927E+01  0.26195925037E+02 -0.54693404151E+02  0.11160539692E+03  0.93648839202E+02 0.  0.
         23    2    1    2    0    0  0.48672560760E+02 -0.14612157305E+03 -0.17451746012E+03  0.24950923852E+03  0.89877605315E+02 0.  0.
        -11    1    3    3    0    0 -0.25346974108E+02 -0.19383872727E+02  0.59659118775E+01  0.32462219931E+02  0.00000000000E+00 0. -1.
         11    1    3    3    0    0  0.22507151716E+02  0.45579797764E+02 -0.60659316029E+02  0.79143176987E+02  0.00000000000E+00 0.  1.
        -13    1    4    4    0    0  0.64763153376E+02 -0.87498676202E+02 -0.14664350256E+03  0.18263242104E+03  0.00000000000E+00 0. -1.
         13    1    4    4    0    0 -0.16090592616E+02 -0.58622896850E+02 -0.27873957562E+02  0.66876817478E+02  0.00000000000E+00 0.  1.
          1    1    1    2  501    0 -0.45832738367E+02  0.11992564801E+03  0.11985315603E+03  0.17563479145E+03  0.00000000000E+00 0. -1.
<scales pt_clust_5="13000.00000" pt_clust_6="13000.00000" pt_clust_7="13000.00000" pt_clust_8="13000.00000" pt_clust_9="131.35035"></scales>
<clustering>
<clus scale="   89.878">  7  8 -1 -1</clus>
<clus scale="   93.649">  5  6 -1 -1</clus>
<clus scale="   97.285">  2  5  1 -1</clus>
<clus scale="  131.350">  1  9  2 -1</clus>
<clus scale="  131.350">  1  5  2 -1</clus>
</clustering>
</event>
<event>
 9    1  0.1601012E-005  0.1064309E+03  0.7546771E-02  0.1270668E+00
          2   -1    0    0  502    0 -0.00000000000E+00  0.00000000000E+00  0.54113504433E+03  0.54113504433E+03  0.00000000000E+00 0. -1.
         21   -1    0    0  501  502  0.00000000000E+00 -0.00000000000E+00 -0.10806291906E+03  0.10806291906E+03  0.00000000000E+00 0.  1.
         23    2    1    2    0    0  0.20927944689E+02 -0.41750888028E+02  0.47936022447E+03  0.49110452690E+03  0.96001645903E+02 0.  0.
         23    2    1    2    0    0 -0.47632232028E+02  0.18508987566E+02 -0.31444468532E+01  0.10228412152E+03  0.88547963389E+02 0.  0.
        -11    1    4    4    0    0 -0.18300319905E+02  0.11953966188E+02 -0.45424363130E+02  0.50410036521E+02  0.00000000000E+00 0.  1.
         11    1    4    4    0    0 -0.29331912122E+02  0.65550213782E+01  0.42279916277E+02  0.51874084999E+02  0.00000000000E+00 0. -1.
        -13    1    3    3    0    0 -0.24011211573E+02  0.13931786308E+02  0.66058983009E+02  0.71654882507E+02  0.00000000000E+00 0.  1.
         13    1    3    3    0    0  0.44939156262E+02 -0.55682674335E+02  0.41330124146E+03  0.41944964439E+03  0.00000000000E+00 0. -1.
          2    1    1    2  501    0  0.26704287339E+02  0.23241900462E+02 -0.43143652349E+02  0.55809314970E+02  0.00000000000E+00 0. -1.
<scales pt_clust_5="13000.00000" pt_clust_6="13000.00000" pt_clust_7="13000.00000" pt_clust_8="13000.00000" pt_clust_9="35.40205"></scales>
<clustering>
<clus scale="   35.402">  2  9  1 -1</clus>
<clus scale="   88.548">  5  6 -1 -1</clus>
<clus scale="   96.002">  7  8 -1 -1</clus>
<clus scale="   99.759">  2  5  1 -1</clus>
<clus scale="   35.402">  2  5  1 -1</clus>
</clustering>
</event>
<event>
 9    1  0.1601012E-005  0.9356105E+02  0.7546771E-02  0.1295591E+00
         21   -1    0    0  501  502  0.00000000000E+00  0.00000000000E+00  0.57161572617E+02  0.57161572617E+02  0.00000000000E+00 0. -1.
          2   -1    0    0  502    0 -0.00000000000E+00 -0.00000000000E+00 -0.34758994108E+03  0.34758994108E+03  0.00000000000E+00 0. -1.
         23    2    1    2    0    0  0.88678099378E+01  0.23439744675E+00 -0.20310938229E+03  0.22279955705E+03  0.91145644161E+02 0.  0.
         23    2    1    2    0    0  0.45301646829E+01 -0.33854417503E+02 -0.13974412861E+02  0.10016419530E+03  0.93117870622E+02 0.  0.
        -11    1    4    4    0    0 -0.30613008886E+02  0.16158825112E+02  0.74202813294E+01  0.35402323611E+02  0.00000000000E+00 0.  1.
         11    1    4    4    0    0  0.35143173569E+02 -0.50013242615E+02 -0.21394694190E+02  0.64761871691E+02  0.00000000000E+00 0. -1.
        -11    1    3    3    0    0 -0.15483296837E+02  0.41138187066E+02 -0.99674438834E+02  0.10893611280E+03  0.00000000000E+00 0.  1.
         11    1    3    3    0    0  0.24351106775E+02 -0.40903789620E+02 -0.10343494346E+03  0.11386344424E+03  0.00000000000E+00 0. -1.
          2    1    1    2  501    0 -0.13397974621E+02  0.33620020056E+02 -0.73344573308E+02  0.81787761348E+02  0.00000000000E+00 0. -1.
<scales pt_clust_5="13000.00000" pt_clust_6="13000.00000" pt_clust_7="13000.00000" pt_clust_8="13000.00000" pt_clust_9="36.19134"></scales>
<clustering>
<clus scale="   36.191">  1  9  2 -1</clus>
<clus scale="   91.146">  7  8 -1 -1</clus>
<clus scale="   91.598">  2  7  1 -1</clus>
<clus scale="   93.118">  5  6 -1 -1</clus>
<clus scale="   36.191">  1  5  2 -1</clus>
</clustering>
</event>
<event>
 9    1  0.1601012E-005  0.1485149E+03  0.7546771E-02  0.1202453E+00
          1   -1    0    0  502    0 -0.00000000000E+00  0.00000000000E+00  0.15990195656E+04  0.15990195656E+04  0.00000000000E+00 0. -1.
         21   -1    0    0  501  502  0.00000000000E+00 -0.00000000000E+00 -0.31243880729E+02  0.31243880729E+02  0.00000000000E+00 0.  1.
         23    2    1    2    0    0 -0.71069159664E+02  0.33680834402E+02  0.29403424440E+03  0.31765522395E+03  0.90903687288E+02 0.  0.
         23    2    1    2    0    0  0.13070916877E+03 -0.11048565499E+03  0.56944191022E+03  0.60162739319E+03  0.91648591739E+02 0.  0.
        -11    1    4    4    0    0  0.57784651057E+02  0.17421207343E+01  0.13044438508E+03  0.14268089740E+03  0.00000000000E+00 0.  1.
         11    1    4    4    0    0  0.72924517712E+02 -0.11222777573E+03  0.43899752514E+03  0.45894649580E+03  0.00000000000E+00 0. -1.
        -13    1    3    3    0    0 -0.54739316294E+02 -0.18225140986E+02  0.20803700240E+03  0.21588872801E+03  0.00000000000E+00 0. -1.
         13    1    3    3    0    0 -0.16329843370E+02  0.51905975388E+02  0.85997241996E+02  0.10176649594E+03  0.00000000000E+00 0.  1.
          1    1    1    2  501    0 -0.59640009105E+02  0.76804820591E+02  0.70429953021E+03  0.71098082914E+03  0.00000000000E+00 0. -1.
<scales pt_clust_5="13000.00000" pt_clust_6="13000.00000" pt_clust_7="13000.00000" pt_clust_8="13000.00000" pt_clust_9="97.24156"></scales>
<clustering>
<clus scale="   90.904">  7  8 -1 -1</clus>
<clus scale="   91.649">  5  6 -1 -1</clus>
<clus scale="   97.242">  2  9  1 -1</clus>
<clus scale="  148.056">  1  7  2 -1</clus>
<clus scale="   97.242">  2  5  1 -1</clus>
</clustering>
</event>
<event>
 9    1  0.1601012E-005  0.1490671E+03  0.7546771E-02  0.1201695E+00
          1   -1    0    0  502    0 -0.00000000000E+00  0.00000000000E+00  0.11684853705E+04  0.11684853705E+04  0.00000000000E+00 0. -1.
         21   -1    0    0  501  502  0.00000000000E+00 -0.00000000000E+00 -0.43593069321E+02  0.43593069321E+02  0.00000000000E+00 0. -1.
         23    2    1    2    0    0 -0.38636438238E+02 -0.12704628923E+03  0.67600793303E+03  0.69497205592E+03  0.91465288594E+02 0.  0.
         23    2    1    2    0    0  0.34726313879E+02  0.95960018217E+02  0.46296929122E+03  0.48275481366E+03  0.91090084708E+02 0.  0.
        -13    1    3    3    0    0 -0.63613691472E+02 -0.10976034580E+03  0.59690904842E+03  0.61024130255E+03  0.00000000000E+00 0. -1.
         13    1    3    3    0    0  0.24977253234E+02 -0.17285943422E+02  0.79098884612E+02  0.84730753366E+02  0.00000000000E+00 0.  1.
        -13    1    4    4    0    0  0.57877284681E+02  0.28495200127E+02  0.19163479421E+03  0.20220200509E+03  0.00000000000E+00 0. -1.
         13    1    4    4    0    0 -0.23150970802E+02  0.67464818091E+02  0.27133449701E+03  0.28055280857E+03  0.00000000000E+00 0.  1.
          1    1    1    2  501    0  0.39101243593E+01  0.31086271008E+02 -0.14084923096E+02  0.34351570216E+02  0.00000000000E+00 0. -1.
<scales pt_clust_5="13000.00000" pt_clust_6="13000.00000" pt_clust_7="13000.00000" pt_clust_8="13000.00000" pt_clust_9="31.33122"></scales>
<clustering>
<clus scale="   31.331">  2  9  1 -1</clus>
<clus scale="   91.090">  7  8 -1 -1</clus>
<clus scale="   91.465">  5  6 -1 -1</clus>
<clus scale="  148.837">  2  7  1 -1</clus>
<clus scale="   31.331">  2  5  1 -1</clus>
</clustering>
</event>
<event>
 9    1  0.1601012E-005  0.1084991E+03  0.7546771E-02  0.1263768E+00
          1   -1    0    0  502    0 -0.00000000000E+00  0.00000000000E+00  0.89434673854E+03  0.89434673854E+03  0.00000000000E+00 0. -1.
         21   -1    0    0  501  502  0.00000000000E+00 -0.00000000000E+00 -0.21280387677E+02  0.21280387677E+02  0.00000000000E+00 0.  1.
         23    2    1    2    0    0 -0.36485067529E+02  0.31275715685E+02  0.49314767250E+03  0.50387431490E+03  0.91571653800E+02 0.  0.
         23    2    1    2    0    0  0.69782324279E+02 -0.37468288383E+02  0.33150923078E+03  0.35267210483E+03  0.90585859918E+02 0.  0.
        -13    1    3    3    0    0  0.81461645930E+01 -0.27843492093E+02  0.15757187925E+03  0.16022021464E+03  0.00000000000E+00 0.  1.
         13    1    3    3    0    0 -0.44631232122E+02  0.59119207778E+02  0.33557579326E+03  0.34365410027E+03  0.00000000000E+00 0. -1.
        -13    1    4    4    0    0  0.57445559567E+02 -0.66455172364E+02  0.26261741314E+03  0.27691909998E+03  0.00000000000E+00 0.  1.
         13    1    4    4    0    0  0.12336764712E+02  0.28986883981E+02  0.68891817636E+02  0.75753004849E+02  0.00000000000E+00 0. -1.
          1    1    1    2  501    0 -0.33297256750E+02  0.61925726980E+01  0.48409447585E+02  0.59080706489E+02  0.00000000000E+00 0. -1.
<scales pt_clust_5="13000.00000" pt_clust_6="13000.00000" pt_clust_7="13000.00000" pt_clust_8="13000.00000" pt_clust_9="33.86820"></scales>
<clustering>
<clus scale="   33.868">  2  9  1 -1</clus>
<clus scale="   90.586">  7  8 -1 -1</clus>
<clus scale="   91.572">  5  6 -1 -1</clus>
<clus scale="  107.668">  2  7  1 -1</clus>
<clus scale="   33.868">  2  5  1 -1</clus>
</clustering>
</event>
<event>
 9    1  0.1601012E-005  0.1409005E+03  0.7546771E-02  0.1212263E+00
         -3   -1    0    0    0  501 -0.00000000000E+00  0.00000000000E+00  0.47422843870E+03  0.47422843870E+03  0.00000000000E+00 0.  1.
         21   -1    0    0  501  502  0.00000000000E+00 -0.00000000000E+00 -0.86720800019E+02  0.86720800019E+02  0.00000000000E+00 0. -1.
         23    2    1    2    0    0 -0.10714278920E+02 -0.12621140003E+03  0.27721859703E+03  0.31825656580E+03  0.91613197018E+02 0.  0.
         23    2    1    2    0    0  0.65623288436E+02  0.62974359319E+02  0.88559025195E+02  0.15617032749E+03  0.90963093212E+02 0.  0.
        -11    1    3    3    0    0 -0.33657248024E+02 -0.32331651054E+02  0.37765242532E+02  0.60036318574E+02  0.00000000000E+00 0. -1.
         11    1    3    3    0    0  0.22942969104E+02 -0.93879748972E+02  0.23945335450E+03  0.25822024723E+03  0.00000000000E+00 0.  1.
        -11    1    4    4    0    0  0.77908864064E+02  0.30075951518E+02  0.87614806769E+02  0.12104011040E+03  0.00000000000E+00 0.  1.
         11    1    4    4    0    0 -0.12285575628E+02  0.32898407801E+02  0.94421842608E+00  0.35130217090E+02  0.00000000000E+00 0. -1.
         -3    1    1    2    0  502 -0.54909009517E+02  0.63237040708E+02  0.21730016456E+02  0.86522345430E+02  0.00000000000E+00 0.  1.
<scales pt_clust_5="13000.00000" pt_clust_6="13000.00000" pt_clust_7="13000.00000" pt_clust_8="13000.00000" pt_clust_9="83.74917"></scales>
<clustering>
<clus scale="   83.749">  2  9  1 -1</clus>
<clus scale="   90.963">  7  8 -1 -1</clus>
<clus scale="   91.613">  5  6 -1 -1</clus>
<clus scale="  140.479">  2  7  1 -1</clus>
<clus scale="   83.749">  2  5  1 -1</clus>
</clustering>
</event>
<event>
 9    1  0.1601012E-005  0.1016324E+03  0.7546771E-02  0.1277105E+00
         -1   -1    0    0    0  501 -0.00000000000E+00  0.00000000000E+00  0.51014771767E+02  0.51014771767E+02  0.00000000000E+00 0.  1.
         21   -1    0    0  501  502  0.00000000000E+00 -0.00000000000E+00 -0.35776926825E+03  0.35776926825E+03  0.00000000000E+00 0. -1.
         23    2    1    2    0    0  0.46887921660E+02 -0.12429998977E+02 -0.79076264956E+02  0.12978867494E+03  0.90769281100E+02 0.  0.
         23    2    1    2    0    0 -0.40058216919E+02 -0.38605946067E+02 -0.17701848529E+03  0.20676156107E+03  0.91212494673E+02 0.  0.
        -11    1    4    4    0    0 -0.36460635469E+02  0.23365943981E+02 -0.89930499029E+02  0.99814026733E+02  0.00000000000E+00 0.  1.
         11    1    4    4    0    0 -0.35975814499E+01 -0.61971890048E+02 -0.87087986264E+02  0.10694753433E+03  0.00000000000E+00 0. -1.
        -13    1    3    3    0    0  0.26532495248E+02  0.29939175655E+02 -0.26849910268E+01  0.40094098316E+02  0.00000000000E+00 0.  1.
         13    1    3    3    0    0  0.20355426413E+02 -0.42369174632E+02 -0.76391273929E+02  0.89694576625E+02  0.00000000000E+00 0. -1.
         -1    1    1    2    0  502 -0.68297047411E+01  0.51035945044E+02 -0.50659746237E+02  0.72233804013E+02  0.00000000000E+00 0.  1.
<scales pt_clust_5="13000.00000" pt_clust_6="13000.00000" pt_clust_7="13000.00000" pt_clust_8="13000.00000" pt_clust_9="51.49092"></scales>
<clustering>
<clus scale="   51.491">  2  9  1 -1</clus>
<clus scale="   90.769">  7  8 -1 -1</clus>
<clus scale="   91.212">  5  6 -1 -1</clus>
<clus scale="  101.235">  1  7  2 -1</clus>
<clus scale="   51.491">  2  5  1 -1</clus>
</clustering>
</event>
<event>
 9    1  0.1601012E-005  0.9993441E+02  0.7546771E-02  0.1282334E+00
         21   -1    0    0  501  502  0.00000000000E+00  0.00000000000E+00  0.14221484673E+03  0.14221484673E+03  0.00000000000E+00 0. -1.
         -1   -1    0    0    0  501 -0.00000000000E+00 -0.00000000000E+00 -0.83465214706E+02  0.83465214706E+02  0.00000000000E+00 0.  1.
         23    2    1    2    0    0 -0.54830618809E+01 -0.40085199536E+02  0.20581044629E+02  0.10430819584E+03  0.93913434250E+02 0.  0.
         23    2    1    2    0    0  0.17718995971E+02  0.23938547450E+02  0.30471930284E+02  0.99699971643E+02  0.90136168868E+02 0.  0.
        -11    1    4    4    0    0 -0.18583098098E+01 -0.28491933628E+02 -0.10411375467E+02  0.30391451699E+02  0.00000000000E+00 0.  1.
         11    1    4    4    0    0  0.19577305781E+02  0.52430481078E+02  0.40883305752E+02  0.69308519944E+02  0.00000000000E+00 0. -1.
        -11    1    3    3    0    0 -0.40489985135E+02 -0.92564091667E+01  0.36220824689E+02  0.55109601233E+02  0.00000000000E+00 0.  1.
         11    1    3    3    0    0  0.35006923254E+02 -0.30828790369E+02 -0.15639780060E+02  0.49198594611E+02  0.00000000000E+00 0. -1.
         -1    1    1    2    0  502 -0.12235934090E+02  0.16146652087E+02  0.76966571102E+01  0.21671893949E+02  0.00000000000E+00 0.  1.
<scales pt_clust_5="13000.00000" pt_clust_6="13000.00000" pt_clust_7="13000.00000" pt_clust_8="13000.00000" pt_clust_9="20.25913"></scales>
<clustering>
<clus scale="   20.259">  1  9  2 -1</clus>
<clus scale="   90.136">  5  6 -1 -1</clus>
<clus scale="   93.913">  7  8 -1 -1</clus>
<clus scale="   96.393">  1  5  2 -1</clus>
<clus scale="   20.259">  1  5  2 -1</clus>
</clustering>
</event>
<event>
 9    1  0.1601012E-005  0.9742851E+02  0.7546771E-02  0.1285950E+00
         21   -1    0    0  501  502  0.00000000000E+00  0.00000000000E+00  0.39168806401E+03  0.39168806401E+03  0.00000000000E+00 0.  1.
         -4   -1    0    0    0  501 -0.00000000000E+00 -0.00000000000E+00 -0.94371795239E+02  0.94371795239E+02  0.00000000000E+00 0.  1.
         23    2    1    2    0    0  0.34838773960E+02 -0.41798282756E+02 -0.12658657945E+02  0.10740799303E+03  0.91735482415E+02 0.  0.
         23    2    1    2    0    0  0.72346014632E+01  0.81322251693E+01  0.35106120285E+02  0.98551110948E+02  0.91440741702E+02 0.  0.
        -13    1    4    4    0    0 -0.14545234633E+02  0.25879104742E+02  0.56105717521E+02  0.63475534274E+02  0.00000000000E+00 0. -1.
         13    1    4    4    0    0  0.21779836096E+02 -0.17746879573E+02 -0.20999597236E+02  0.35075576674E+02  0.00000000000E+00 0.  1.
        -13    1    3    3    0    0 -0.23740008578E+02 -0.33505350416E+02 -0.23422711001E+02  0.47273881842E+02  0.00000000000E+00 0.  1.
         13    1    3    3    0    0  0.58578782538E+02 -0.82929323397E+01  0.10764053056E+02  0.60134111190E+02  0.00000000000E+00 0. -1.
         -4    1    1    2    0  502 -0.42073375424E+02  0.33666057587E+02  0.27486880643E+03  0.28010075527E+03  0.00000000000E+00 0.  1.
<scales pt_clust_5="13000.00000" pt_clust_6="13000.00000" pt_clust_7="13000.00000" pt_clust_8="13000.00000" pt_clust_9="53.88481"></scales>
<clustering>
<clus scale="   53.885">  1  9  2 -1</clus>
<clus scale="   91.441">  5  6 -1 -1</clus>
<clus scale="   91.735">  7  8 -1 -1</clus>
<clus scale="   97.151">  1  5  2 -1</clus>
<clus scale="   53.885">  1  5  2 -1</clus>
</clustering>
</event>
<event>
 9    1  0.1601012E-005  0.1005101E+03  0.7546771E-02  0.1279589E+00
         21   -1    0    0  501  502  0.00000000000E+00  0.00000000000E+00  0.10794806569E+03  0.10794806569E+03  0.00000000000E+00 0.  1.
          1   -1    0    0  502    0 -0.00000000000E+00 -0.00000000000E+00 -0.12509161699E+03  0.12509161699E+03  0.00000000000E+00 0. -1.
         23    2    1    2    0    0  0.26447095672E+02 -0.24425232370E+02 -0.37666114091E+02  0.10400503769E+03  0.90012615051E+02 0.  0.
         23    2    1    2    0    0 -0.40618791300E+02  0.38663574160E+02  0.12618998191E+02  0.10744683205E+03  0.90778986717E+02 0.  0.
        -11    1    3    3    0    0 -0.30970721128E+02  0.66208278958E+01 -0.12129854732E+02  0.33913924943E+02  0.00000000000E+00 0. -1.
         11    1    3    3    0    0  0.57417816799E+02 -0.31046060266E+02 -0.25536259359E+02  0.70091112747E+02  0.00000000000E+00 0.  1.
        -13    1    4    4    0    0 -0.18244731060E+02 -0.89076552747E+01  0.42412072892E+02  0.47021276683E+02  0.00000000000E+00 0.  1.
         13    1    4    4    0    0 -0.22374060240E+02  0.47571229435E+02 -0.29793074700E+02  0.60425555369E+02  0.00000000000E+00 0. -1.
          1    1    1    2  501    0  0.14171695628E+02 -0.14238341790E+02  0.79035646049E+01  0.21587812937E+02  0.00000000000E+00 0. -1.
<scales pt_clust_5="13000.00000" pt_clust_6="13000.00000" pt_clust_7="13000.00000" pt_clust_8="13000.00000" pt_clust_9="20.08899"></scales>
<clustering>
<clus scale="   20.089">  1  9  2 -1</clus>
<clus scale="   90.013">  5  6 -1 -1</clus>
<clus scale="   90.779">  7  8 -1 -1</clus>
<clus scale="   99.819">  2  5  1 -1</clus>
<clus scale="   20.089">  1  5  2 -1</clus>
</clustering>
</event>
<event>
 9    1  0.1601012E-005  0.1333669E+03  0.7546771E-02  0.1222638E+00
          3   -1    0    0  502    0 -0.00000000000E+00  0.00000000000E+00  0.28013599787E+03  0.28013599787E+03  0.00000000000E+00 0. -1.
         21   -1    0    0  501  502  0.00000000000E+00 -0.00000000000E+00 -0.11981007038E+03  0.11981007038E+03  0.00000000000E+00 0. -1.
         23    2    1    2    0    0  0.15891396448E+02  0.10268880228E+03  0.16183718343E+03  0.21230978309E+03  0.89925766377E+02 0.  0.
         23    2    1    2    0    0 -0.56244139404E+02 -0.74848318122E+02  0.24136966004E+02  0.13230756105E+03  0.90316242390E+02 0.  0.
        -11    1    3    3    0    0  0.19435405796E+02  0.85784283502E+01  0.93675561989E+02  0.96054335381E+02  0.00000000000E+00 0.  1.
         11    1    3    3    0    0 -0.35440093487E+01  0.94110373933E+02  0.68161621444E+02  0.11625544771E+03  0.00000000000E+00 0. -1.
        -13    1    4    4    0    0 -0.51644140444E+02 -0.95633157861E+02  0.18130472654E+02  0.11018862084E+03  0.00000000000E+00 0. -1.
         13    1    4    4    0    0 -0.45999989598E+01  0.20784839739E+02  0.60064933503E+01  0.22118940204E+02  0.00000000000E+00 0.  1.
          3    1    1    2  501    0  0.40352742956E+02 -0.27840484161E+02 -0.25648221948E+02  0.55328724108E+02  0.00000000000E+00 0. -1.
<scales pt_clust_5="13000.00000" pt_clust_6="13000.00000" pt_clust_7="13000.00000" pt_clust_8="13000.00000" pt_clust_9="49.02486"></scales>
<clustering>
<clus scale="   49.025">  2  9  1 -1</clus>
<clus scale="   89.926">  5  6 -1 -1</clus>
<clus scale="   90.316">  7  8 -1 -1</clus>
<clus scale="  133.103">  1  5  2 -1</clus>
<clus scale="   49.025">  2  5  1 -1</clus>
</clustering>
</event>
<event>
 9    1  0.1601012E-005  0.1447632E+03  0.7546771E-02  0.1207843E+00
         -1   -1    0    0    0  501 -0.00000000000E+00  0.00000000000E+00  0.20436983653E+03  0.20436983653E+03  0.00000000000E+00 0.  1.
         21   -1    0    0  501  502  0.00000000000E+00 -0.00000000000E+00 -0.50822180777E+03  0.50822180777E+03  0.00000000000E+00 0.  1.
         23    2    1    2    0    0 -0.45047891207E+02 -0.12338715372E+03  0.14576270966E+03  0.21444221004E+03  0.86515846607E+02 0.  0.
         23    2    1    2    0    0  0.11796214657E+02  0.39289373243E+02 -0.11698225551E+03  0.15344312290E+03  0.90427530819E+02 0.  0.
        -11    1    3    3    0    0  0.21023245562E+02 -0.38508368472E+02  0.70953648504E+02  0.83422368298E+02  0.00000000000E+00 0. -1.
         11    1    3    3    0    0 -0.66071136769E+02 -0.84878785248E+02  0.74809061156E+02  0.13101984174E+03  0.00000000000E+00 0.  1.
        -11    1    4    4    0    0  0.44497913434E+02  0.20765987728E+02 -0.27252683912E+02  0.56160478334E+02  0.00000000000E+00 0. -1.
         11    1    4    4    0    0 -0.32701698776E+02  0.18523385516E+02 -0.89729571602E+02  0.97282644566E+02  0.00000000000E+00 0.  1.
         -1    1    1    2    0  502  0.33251676550E+02  0.84097780476E+02 -0.33263242538E+03  0.34470631136E+03  0.00000000000E+00 0.  1.
<scales pt_clust_5="13000.00000" pt_clust_6="13000.00000" pt_clust_7="13000.00000" pt_clust_8="13000.00000" pt_clust_9="90.43291"></scales>
<clustering>
<clus scale="   86.516">  5  6 -1 -1</clus>
<clus scale="   90.428">  7  8 -1 -1</clus>
<clus scale="   90.433">  2  9  1 -1</clus>
<clus scale="  142.352">  1  5  2 -1</clus>
<clus scale="   90.433">  2  5  1 -1</clus>
</clustering>
</event>
<event>
 9    1  0.1601012E-005  0.1011194E+03  0.7546771E-02  0.1278393E+00
         21   -1    0    0  501  502  0.00000000000E+00  0.00000000000E+00  0.28359075662E+02  0.28359075662E+02  0.00000000000E+00 0. -1.
         -1   -1    0    0    0  501 -0.00000000000E+00 -0.00000000000E+00 -0.80913923195E+03  0.80913923195E+03  0.00000000000E+00 0.  1.
         23    2    1    2    0    0 -0.20847390795E+01 -0.21645063654E+02 -0.43183002565E+03  0.44244369741E+03  0.93842417990E+02 0.  0.
         23    2    1    2    0    0 -0.22090083272E+02  0.73174379028E+02 -0.28545213528E+03  0.30978041836E+03  0.92943663253E+02 0.  0.
        -11    1    3    3    0    0 -0.43413390728E+02 -0.31445467784E+02 -0.22501888160E+03  0.23131588146E+03  0.00000000000E+00 0.  1.
         11    1    3    3    0    0  0.41328651648E+02  0.98004041305E+01 -0.20681114405E+03  0.21112781596E+03  0.00000000000E+00 0. -1.
        -13    1    4    4    0    0 -0.39081739733E+02  0.24972271717E+02 -0.22891585750E+03  0.23356683529E+03  0.00000000000E+00 0.  1.
         13    1    4    4    0    0  0.16991656461E+02  0.48202107310E+02 -0.56536277782E+02  0.76213583067E+02  0.00000000000E+00 0. -1.
         -1    1    1    2    0  502  0.24174822352E+02 -0.51529315374E+02 -0.63497995363E+02  0.85274191838E+02  0.00000000000E+00 0.  1.
<scales pt_clust_5="13000.00000" pt_clust_6="13000.00000" pt_clust_7="13000.00000" pt_clust_8="13000.00000" pt_clust_9="56.91830"></scales>
<clustering>
<clus scale="   56.918">  1  9  2 -1</clus>
<clus scale="   92.944">  7  8 -1 -1</clus>
<clus scale="   93.842">  5  6 -1 -1</clus>
<clus scale="  100.286">  1  7  2 -1</clus>
<clus scale="   56.918">  1  5  2 -1</clus>
</clustering>
</event>
<event>
 9    1  0.1601012E-005  0.1638339E+03  0.7546771E-02  0.1197480E+00
         21   -1    0    0  501  502  0.00000000000E+00  0.00000000000E+00  0.10665317970E+03  0.10665317970E+03  0.00000000000E+00 0. -1.
          1   -1    0    0  502    0 -0.00000000000E+00 -0.00000000000E+00 -0.87899667504E+03  0.87899667504E+03  0.00000000000E+00 0. -1.
         23    2    1    2    0    0  0.84045394686E+02 -0.16658961893E+02 -0.38201816428E+03  0.40129078952E+03  0.88064013848E+02 0.  0.
         23    2    1    2    0    0 -0.19395935177E+03 -0.48938503459E+02 -0.39949073996E+03  0.45603093057E+03  0.91411985319E+02 0.  0.
        -11    1    3    3    0    0 -0.13070933054E+02  0.15752638800E+02 -0.66100378856E+02  0.69197218188E+02  0.00000000000E+00 0.  1.
         11    1    3    3    0    0  0.97116327740E+02 -0.32411600692E+02 -0.31591778543E+03  0.33209357134E+03  0.00000000000E+00 0. -1.
        -13    1    4    4    0    0 -0.12819353350E+03 -0.34802724014E+01 -0.31298972341E+03  0.33824290279E+03  0.00000000000E+00 0. -1.
         13    1    4    4    0    0 -0.65765818270E+02 -0.45458231057E+02 -0.86501016553E+02  0.11778802778E+03  0.00000000000E+00 0.  1.
          1    1    1    2  501    0  0.10991395708E+03  0.65597465351E+02  0.91654089047E+01  0.12832813465E+03  0.00000000000E+00 0. -1.
<scales pt_clust_5="13000.00000" pt_clust_6="13000.00000" pt_clust_7="13000.00000" pt_clust_8="13000.00000" pt_clust_9="135.96105"></scales>
<clustering>
<clus scale="   88.064">  5  6 -1 -1</clus>
<clus scale="   91.412">  7  8 -1 -1</clus>
<clus scale="  122.867">  2  5  1 -1</clus>
<clus scale="  135.961">  1  9  2 -1</clus>
<clus scale="  135.961">  1  5  2 -1</clus>
</clustering>
</event>
<event>
 9    1  0.1601012E-005  0.9746920E+02  0.7546771E-02  0.1287066E+00
         21   -1    0    0  501  502  0.00000000000E+00  0.00000000000E+00  0.68012828143E+02  0.68012828143E+02  0.00000000000E+00 0. -1.
         -1   -1    0    0    0  501 -0.00000000000E+00 -0.00000000000E+00 -0.31711434766E+03  0.31711434766E+03  0.00000000000E+00 0.  1.
         23    2    1    2    0    0  0.13728941076E+02 -0.43622229232E+00 -0.14102785390E+03  0.16910823140E+03  0.92304194054E+02 0.  0.
         23    2    1    2    0    0 -0.27401210106E+02  0.21356607892E+02 -0.14176997049E+03  0.17406618006E+03  0.94833430238E+02 0.  0.
        -11    1    3    3    0    0  0.20624786470E+02 -0.28918122961E+02 -0.13446541497E+03  0.13907763111E+03  0.00000000000E+00 0.  1.
         11    1    3    3    0    0 -0.68958453936E+01  0.28481900669E+02 -0.65624389339E+01  0.30030600296E+02  0.00000000000E+00 0. -1.
        -11    1    4    4    0    0  0.11035043045E+02 -0.32757954207E+02 -0.51277939791E+02  0.61840786283E+02  0.00000000000E+00 0.  1.
         11    1    4    4    0    0 -0.38436253151E+02  0.54114562100E+02 -0.90492030702E+02  0.11222539378E+03  0.00000000000E+00 0. -1.
         -1    1    1    2    0  502  0.13672269030E+02 -0.20920385600E+02  0.33696304873E+02  0.41952764345E+02  0.00000000000E+00 0.  1.
<scales pt_clust_5="13000.00000" pt_clust_6="13000.00000" pt_clust_7="13000.00000" pt_clust_8="13000.00000" pt_clust_9="24.99187"></scales>
<clustering>
<clus scale="   24.992">  1  9  2 -1</clus>
<clus scale="   92.304">  5  6 -1 -1</clus>
<clus scale="   94.833">  7  8 -1 -1</clus>
<clus scale="   95.010">  2  5  1 -1</clus>
<clus scale="   24.992">  1  5  2 -1</clus>
</clustering>
</event>
<event>
 9    1  0.1601012E-005  0.9537164E+02  0.7546771E-02  0.1290436E+00
          1   -1    0    0  502    0 -0.00000000000E+00  0.00000000000E+00  0.18736639662E+03  0.18736639662E+03  0.00000000000E+00 0. -1.
         21   -1    0    0  501  502  0.00000000000E+00 -0.00000000000E+00 -0.21911581182E+03  0.21911581182E+03  0.00000000000E+00 0.  1.
         23    2    1    2    0    0  0.11791565965E+02 -0.28930473314E+02  0.15106299481E+03  0.17879558640E+03  0.90398119464E+02 0.  0.
         23    2    1    2    0    0 -0.32049278342E+02  0.11025677816E+02 -0.93142438011E+02  0.13402947874E+03  0.90220095324E+02 0.  0.
        -11    1    4    4    0    0 -0.27042910634E+02  0.36628509979E+02 -0.97475305630E+02  0.10758439462E+03  0.00000000000E+00 0.  1.
         11    1    4    4    0    0 -0.50063677078E+01 -0.25602832163E+02  0.43328676183E+01  0.26445084121E+02  0.00000000000E+00 0. -1.
        -13    1    3    3    0    0  0.50980467784E+02 -0.93322918040E+01  0.82151062512E+02  0.97133397128E+02  0.00000000000E+00 0.  1.
         13    1    3    3    0    0 -0.39188901819E+02 -0.19598181510E+02  0.68911932297E+02  0.81662189275E+02  0.00000000000E+00 0. -1.
          1    1    1    2  501    0  0.20257712377E+02  0.17904795497E+02 -0.89669971997E+02  0.93657143297E+02  0.00000000000E+00 0. -1.
<scales pt_clust_5="13000.00000" pt_clust_6="13000.00000" pt_clust_7="13000.00000" pt_clust_8="13000.00000" pt_clust_9="27.03621"></scales>
<clustering>
<clus scale="   27.036">  2  9  1 -1</clus>
<clus scale="   90.220">  5  6 -1 -1</clus>
<clus scale="   90.398">  7  8 -1 -1</clus>
<clus scale="   95.203">  2  5  1 -1</clus>
<clus scale="   27.036">  2  5  1 -1</clus>
</clustering>
</event>
<event>
 9    1  0.1601012E-005  0.9261764E+02  0.7546771E-02  0.1297168E+00
         21   -1    0    0  501  502  0.00000000000E+00  0.00000000000E+00  0.29492916821E+02  0.29492916821E+02  0.00000000000E+00 0.  1.
          1   -1    0    0  502    0 -0.00000000000E+00 -0.00000000000E+00 -0.54896131000E+03  0.54896131000E+03  0.00000000000E+00 0. -1.
         23    2    1    2    0    0  0.52105292923E+01  0.20206324099E+01 -0.33154640501E+03  0.34397741442E+03  0.91466990712E+02 0.  0.
         23    2    1    2    0    0  0.26493141108E+02  0.22762093678E+02 -0.14688969824E+03  0.17700547131E+03  0.92381567377E+02 0.  0.
        -11    1    4    4    0    0 -0.22082621414E+02  0.28977664979E+02 -0.10947087334E+03  0.11537425773E+03  0.00000000000E+00 0. -1.
         11    1    4    4    0    0  0.48575762521E+02 -0.62155713013E+01 -0.37418824899E+02  0.61631213585E+02  0.00000000000E+00 0.  1.
        -13    1    3    3    0    0  0.19950307936E+02  0.39109241333E+02 -0.10291164963E+03  0.11188545559E+03  0.00000000000E+00 0.  1.
         13    1    3    3    0    0 -0.14739778644E+02 -0.37088608923E+02 -0.22863475538E+03  0.23209195883E+03  0.00000000000E+00 0. -1.
          1    1    1    2  501    0 -0.31703670400E+02 -0.24782726088E+02 -0.41032289935E+02  0.57471341088E+02  0.00000000000E+00 0. -1.
<scales pt_clust_5="13000.00000" pt_clust_6="13000.00000" pt_clust_7="13000.00000" pt_clust_8="13000.00000" pt_clust_9="40.24060"></scales>
<clustering>
<clus scale="   40.241">  1  9  2 -1</clus>
<clus scale="   91.467">  7  8 -1 -1</clus>
<clus scale="   91.705">  2  7  1 -1</clus>
<clus scale="   92.382">  5  6 -1 -1</clus>
<clus scale="   40.241">  1  5  2 -1</clus>
</clustering>
</event>
<event>
 9    1  0.1601012E-005  0.9151192E+02  0.7546771E-02  0.1299452E+00
          2   -1    0    0  502    0 -0.00000000000E+00  0.00000000000E+00  0.39387166391E+03  0.39387166391E+03  0.00000000000E+00 0. -1.
         21   -1    0    0  501  502  0.00000000000E+00 -0.00000000000E+00 -0.34213074603E+02  0.34213074603E+02  0.00000000000E+00 0.  1.
         23    2    1    2    0    0 -0.92063890058E+01 -0.10348841031E+02  0.23261180303E+03  0.25011271153E+03  0.90863972250E+02 0.  0.
         23    2    1    2    0    0 -0.19813002487E+02 -0.37844075718E+00  0.89668970629E+02  0.12945088973E+03  0.91237658197E+02 0.  0.
        -11    1    4    4    0    0  0.72329389491E+01 -0.35024987459E+02  0.75040870155E+02  0.83127596777E+02  0.00000000000E+00 0.  1.
         11    1    4    4    0    0 -0.27045941436E+02  0.34646546702E+02  0.14628100474E+02  0.46323292953E+02  0.00000000000E+00 0. -1.
        -13    1    3    3    0    0  0.27343037072E+02  0.81821374037E+01  0.23348005558E+02  0.36874359823E+02  0.00000000000E+00 0.  1.
         13    1    3    3    0    0 -0.36549426078E+02 -0.18530978434E+02  0.20926379747E+03  0.21323835171E+03  0.00000000000E+00 0. -1.
          2    1    1    2  501    0  0.29019391493E+02  0.10727281788E+02  0.37377815645E+02  0.48521137246E+02  0.00000000000E+00 0. -1.
<scales pt_clust_5="13000.00000" pt_clust_6="13000.00000" pt_clust_7="13000.00000" pt_clust_8="13000.00000" pt_clust_9="30.93864"></scales>
<clustering>
<clus scale="   30.939">  2  9  1 -1</clus>
<clus scale="   90.864">  7  8 -1 -1</clus>
<clus scale="   91.139">  1  7  2 -1</clus>
<clus scale="   91.238">  5  6 -1 -1</clus>
<clus scale="   30.939">  2  5  1 -1</clus>
</clustering>
</event>
<event>
 9    1  0.1601012E-005  0.9995899E+02  0.7546771E-02  0.1283346E+00
         -1   -1    0    0    0  501 -0.00000000000E+00  0.00000000000E+00  0.22740548119E+03  0.22740548119E+03  0.00000000000E+00 0.  1.
         21   -1    0    0  501  502  0.00000000000E+00 -0.00000000000E+00 -0.87165689225E+02  0.87165689225E+02  0.00000000000E+00 0. -1.
         23    2    1    2    0    0 -0.10773040167E+02 -0.11011504879E+02  0.15689378221E+03  0.18576462107E+03  0.98262525460E+02 0.  0.
         23    2    1    2    0    0 -0.54595612555E-01  0.36801168704E+02 -0.13961822758E+02  0.10070686567E+03  0.92696339194E+02 0.  0.
        -11    1    4    4    0    0 -0.22580162404E+02  0.57275335809E+02  0.94740031449E+01  0.62290324785E+02  0.00000000000E+00 0.  1.
         11    1    4    4    0    0  0.22525566791E+02 -0.20474167105E+02 -0.23435825903E+02  0.38416540886E+02  0.00000000000E+00 0. -1.
        -13    1    3    3    0    0 -0.18350781180E+02  0.31884874293E+02  0.12875126316E+03  0.13390401093E+03  0.00000000000E+00 0.  1.
         13    1    3    3    0    0  0.75777410129E+01 -0.42896379172E+02  0.28142519048E+02  0.51860610132E+02  0.00000000000E+00 0. -1.
         -1    1    1    2    0  502  0.10827635780E+02 -0.25789663825E+02 -0.26921674885E+01  0.28099683674E+02  0.00000000000E+00 0.  1.
<scales pt_clust_5="13000.00000" pt_clust_6="13000.00000" pt_clust_7="13000.00000" pt_clust_8="13000.00000" pt_clust_9="27.97042"></scales>
<clustering>
<clus scale="   27.970">  2  9  1 -1</clus>
<clus scale="   92.696">  5  6 -1 -1</clus>
<clus scale="   94.493">  2  5  1 -1</clus>
<clus scale="   98.263">  7  8 -1 -1</clus>
<clus scale="   27.970">  2  5  1 -1</clus>
</clustering>
</event>
<event>
 9    1  0.1601012E-005  0.1014185E+03  0.7546771E-02  0.1278206E+00
         21   -1    0    0  501  502  0.00000000000E+00  0.00000000000E+00  0.66484405211E+02  0.66484405211E+02  0.00000000000E+00 0.  1.
          1   -1    0    0  502    0 -0.00000000000E+00 -0.00000000000E+00 -0.29946591422E+03  0.29946591422E+03  0.00000000000E+00 0. -1.
         23    2    1    2    0    0 -0.25827459182E+02  0.36420804000E+01 -0.13150031299E+03  0.16163957849E+03  0.90303369915E+02 0.  0.
         23    2    1    2    0    0  0.75328080503E+02 -0.27512872045E+02 -0.74671197471E+02  0.14316417745E+03  0.92135314258E+02 0.  0.
        -11    1    4    4    0    0  0.85521856022E+02 -0.47102841671E+02 -0.71131479978E+02  0.12079881206E+03  0.00000000000E+00 0.  1.
         11    1    4    4    0    0 -0.10193775520E+02  0.19589969625E+02 -0.35397174934E+01  0.22365365394E+02  0.00000000000E+00 0. -1.
        -13    1    3    3    0    0 -0.37981597968E+02 -0.29793481875E+02 -0.37483450200E+02  0.61116792989E+02  0.00000000000E+00 0. -1.
         13    1    3    3    0    0  0.12154138786E+02  0.33435562275E+02 -0.94016862794E+02  0.10052278550E+03  0.00000000000E+00 0.  1.
          1    1    1    2  501    0 -0.49500621321E+02  0.23870791645E+02 -0.26809998543E+02  0.61146563492E+02  0.00000000000E+00 0. -1.
<scales pt_clust_5="13000.00000" pt_clust_6="13000.00000" pt_clust_7="13000.00000" pt_clust_8="13000.00000" pt_clust_9="54.95567"></scales>
<clustering>
<clus scale="   54.956">  1  9  2 -1</clus>
<clus scale="   90.303">  7  8 -1 -1</clus>
<clus scale="   92.135">  5  6 -1 -1</clus>
<clus scale="   99.757">  2  7  1 -1</clus>
<clus scale="   54.956">  1  5  2 -1</clus>
</clustering>
</event>
<event>
 9    1  0.1601012E-005  0.1067253E+03  0.7546771E-02  0.1267044E+00
          1   -1    0    0  502    0 -0.00000000000E+00  0.00000000000E+00  0.13525746198E+03  0.13525746198E+03  0.00000000000E+00 0. -1.
         21   -1    0    0  501  502  0.00000000000E+00 -0.00000000000E+00 -0.15390385711E+03  0.15390385711E+03  0.00000000000E+00 0. -1.
         23    2    1    2    0    0  0.27509945213E+01 -0.29396697257E+02 -0.24677807325E+02  0.98983644466E+02  0.91197773640E+02 0.  0.
         23    2    1    2    0    0 -0.35208038435E+02  0.79265736330E+02 -0.16743392231E+02  0.12646682410E+03  0.90503334126E+02 0.  0.
        -11    1    4    4    0    0 -0.15239109681E+02 -0.19234529750E+02  0.22328168630E+00  0.24540730496E+02  0.00000000000E+00 0.  1.
         11    1    4    4    0    0 -0.19968928754E+02  0.98500266080E+02 -0.16966673917E+02  0.10192609360E+03  0.00000000000E+00 0. -1.
        -13    1    3    3    0    0  0.22302138522E+02 -0.47133292469E+01  0.28918279619E+02  0.36822109545E+02  0.00000000000E+00 0. -1.
         13    1    3    3    0    0 -0.19551144000E+02 -0.24683368011E+02 -0.53596086944E+02  0.62161534921E+02  0.00000000000E+00 0.  1.
          1    1    1    2  501    0  0.32457043913E+02 -0.49869039073E+02  0.22774804428E+02  0.63710850523E+02  0.00000000000E+00 0. -1.
<scales pt_clust_5="13000.00000" pt_clust_6="13000.00000" pt_clust_7="13000.00000" pt_clust_8="13000.00000" pt_clust_9="59.50113"></scales>
<clustering>
<clus scale="   59.501">  2  9  1 -1</clus>
<clus scale="   90.503">  5  6 -1 -1</clus>
<clus scale="   91.198">  7  8 -1 -1</clus>
<clus scale="  106.133">  2  5  1 -1</clus>
<clus scale="   59.501">  2  5  1 -1</clus>
</clustering>
</event>
<event>
 9    1  0.1601012E-005  0.9716657E+02  0.7546771E-02  0.1287063E+00
          2   -1    0    0  502    0 -0.00000000000E+00  0.00000000000E+00  0.15794688250E+03  0.15794688250E+03  0.00000000000E+00 0. -1.
         21   -1    0    0  501  502  0.00000000000E+00 -0.00000000000E+00 -0.11488721197E+03  0.11488721197E+03  0.00000000000E+00 0.  1.
         23    2    1    2    0    0 -0.29678494898E+02 -0.15639500600E+02  0.69424068662E+02  0.12080007537E+03  0.92992203232E+02 0.  0.
         23    2    1    2    0    0  0.59057394243E+01  0.25790972775E+02  0.21343126838E+02  0.97773497278E+02  0.91673745817E+02 0.  0.
        -13    1    4    4    0    0 -0.25559696714E+02 -0.42096363998E+01  0.42229378204E+02  0.49541291043E+02  0.00000000000E+00 0. -1.
         13    1    4    4    0    0  0.31465436138E+02  0.30000609175E+02 -0.20886251366E+02  0.48232206236E+02  0.00000000000E+00 0.  1.
        -13    1    3    3    0    0  0.13174945284E+02  0.31813774290E+02  0.18699027737E+02  0.39183530419E+02  0.00000000000E+00 0.  1.
         13    1    3    3    0    0 -0.42853440182E+02 -0.47453274890E+02  0.50725040925E+02  0.81616544953E+02  0.00000000000E+00 0. -1.
          2    1    1    2  501    0  0.23772755474E+02 -0.10151472175E+02 -0.47707524969E+02  0.54260521826E+02  0.00000000000E+00 0. -1.
<scales pt_clust_5="13000.00000" pt_clust_6="13000.00000" pt_clust_7="13000.00000" pt_clust_8="13000.00000" pt_clust_9="25.84949"></scales>
<clustering>
<clus scale="   25.849">  2  9  1 -1</clus>
<clus scale="   91.674">  5  6 -1 -1</clus>
<clus scale="   92.992">  7  8 -1 -1</clus>
<clus scale="   95.906">  2  5  1 -1</clus>
<clus scale="   25.849">  2  5  1 -1</clus>
</clustering>
</event>
<event>
 9    1  0.1601012E-005  0.1343965E+03  0.7546771E-02  0.1222793E+00
          2   -1    0    0  502    0 -0.00000000000E+00  0.00000000000E+00  0.56328658307E+03  0.56328658307E+03  0.00000000000E+00 0. -1.
         21   -1    0    0  501  502  0.00000000000E+00 -0.00000000000E+00 -0.55988282082E+02  0.55988282082E+02  0.00000000000E+00 0. -1.
         23    2    1    2    0    0  0.57952406899E+02  0.82497584565E+02  0.42481233846E+03  0.44618509709E+03  0.91930870935E+02 0.  0.
         23    2    1    2    0    0 -0.64769545762E+02 -0.60588116991E+02  0.48251397294E+02  0.13187686222E+03  0.84836875639E+02 0.  0.
        -11    1    4    4    0    0  0.13515215963E+02 -0.38746289111E+02  0.11080357008E+02  0.42505414876E+02  0.00000000000E+00 0.  1.
         11    1    4    4    0    0 -0.78284761725E+02 -0.21841827880E+02  0.37171040285E+02  0.89371447339E+02  0.00000000000E+00 0. -1.
        -11    1    3    3    0    0 -0.12872445523E+02  0.47597263116E+02  0.24325812949E+03  0.24820498962E+03  0.00000000000E+00 0. -1.
         11    1    3    3    0    0  0.70824852421E+02  0.34900321449E+02  0.18155420897E+03  0.19798010747E+03  0.00000000000E+00 0.  1.
          2    1    1    2  501    0  0.68171388638E+01 -0.21909467574E+02  0.34234565227E+02  0.41212905842E+02  0.00000000000E+00 0. -1.
<scales pt_clust_5="13000.00000" pt_clust_6="13000.00000" pt_clust_7="13000.00000" pt_clust_8="13000.00000" pt_clust_9="22.94556"></scales>
<clustering>
<clus scale="   22.946">  2  9  1 -1</clus>
<clus scale="   84.837">  5  6 -1 -1</clus>
<clus scale="   91.931">  7  8 -1 -1</clus>
<clus scale="  129.647">  2  5  1 -1</clus>
<clus scale="   22.946">  2  5  1 -1</clus>
</clustering>
</event>
<event>
 9    1  0.1601012E-005  0.1159002E+03  0.7546771E-02  0.1250144E+00
         21   -1    0    0  501  502  0.00000000000E+00  0.00000000000E+00  0.20076883417E+03  0.20076883417E+03  0.00000000000E+00 0. -1.
          1   -1    0    0  502    0 -0.00000000000E+00 -0.00000000000E+00 -0.23415102385E+03  0.23415102385E+03  0.00000000000E+00 0. -1.
         23    2    1    2    0    0  0.49548338739E+02  0.45191271915E+02 -0.77468457564E+02  0.13694736264E+03  0.90862144408E+02 0.  0.
         23    2    1    2    0    0 -0.95893323741E+02  0.21186824879E+02 -0.75284494863E+02  0.15373904445E+03  0.91233368534E+02 0.  0.
        -11    1    3    3    0    0  0.70043901708E+02  0.55955839626E+02 -0.58870326354E+02  0.10725166423E+03  0.00000000000E+00 0. -1.
         11    1    3    3    0    0 -0.20495562968E+02 -0.10764567711E+02 -0.18598131210E+02  0.29695698408E+02  0.00000000000E+00 0.  1.
        -11    1    4    4    0    0 -0.77240996321E+02  0.38215483645E+02 -0.89920493941E+02  0.12454834376E+03  0.00000000000E+00 0.  1.
         11    1    4    4    0    0 -0.18652327420E+02 -0.17028658766E+02  0.14635999078E+02  0.29190700686E+02  0.00000000000E+00 0. -1.
          1    1    1    2  501    0  0.46344985002E+02 -0.66378096795E+02  0.11937076275E+03  0.14423345093E+03  0.00000000000E+00 0. -1.
<scales pt_clust_5="13000.00000" pt_clust_6="13000.00000" pt_clust_7="13000.00000" pt_clust_8="13000.00000" pt_clust_9="80.95622"></scales>
<clustering>
<clus scale="   80.956">  1  9  2 -1</clus>
<clus scale="   90.862">  5  6 -1 -1</clus>
<clus scale="   91.233">  7  8 -1 -1</clus>
<clus scale="  115.608">  2  5  1 -1</clus>
<clus scale="   80.956">  1  5  2 -1</clus>
</clustering>
</event>
<event>
 9    1  0.1601012E-005  0.3499758E+03  0.7546771E-02  0.1062637E+00
         21   -1    0    0  501  502  0.00000000000E+00  0.00000000000E+00  0.49807133295E+03  0.49807133295E+03  0.00000000000E+00 0.  1.
         -1   -1    0    0    0  501 -0.00000000000E+00 -0.00000000000E+00 -0.38142931254E+03  0.38142931254E+03  0.00000000000E+00 0.  1.
         23    2    1    2    0    0  0.36755822571E+03 -0.62773807800E+02 -0.96269063329E+02  0.39532440151E+03  0.89297534354E+02 0.  0.
         23    2    1    2    0    0 -0.28567696618E+03 -0.39819451021E+02  0.16667602097E+03  0.34500872461E+03  0.89739659060E+02 0.  0.
        -11    1    3    3    0    0  0.24912670826E+03 -0.34815095478E+02 -0.21414241307E+02  0.25245747637E+03  0.00000000000E+00 0.  1.
         11    1    3    3    0    0  0.11843151745E+03 -0.27958712322E+02 -0.74854822021E+02  0.14286692514E+03  0.00000000000E+00 0. -1.
        -11    1    4    4    0    0 -0.12883348443E+03 -0.62482094874E+02  0.88192874329E+02  0.16816676834E+03  0.00000000000E+00 0. -1.
         11    1    4    4    0    0 -0.15684348175E+03  0.22662643853E+02  0.78483146643E+02  0.17684195628E+03  0.00000000000E+00 0.  1.
         -1    1    1    2    0  502 -0.81881259532E+02  0.10259325882E+03  0.46235062759E+02  0.13916751937E+03  0.00000000000E+00 0.  1.
<scales pt_clust_5="13000.00000" pt_clust_6="13000.00000" pt_clust_7="13000.00000" pt_clust_8="13000.00000" pt_clust_9="131.26278"></scales>
<clustering>
<clus scale="   89.298">  5  6 -1 -1</clus>
<clus scale="   89.740">  7  8 -1 -1</clus>
<clus scale="  131.263">  1  9  2 -1</clus>
<clus scale="  349.863">  2  5  1 -1</clus>
<clus scale="  131.263">  1  5  2 -1</clus>
</clustering>
</event>
<event>
 9    1  0.1601012E-005  0.1064846E+03  0.7546771E-02  0.1267250E+00
         21   -1    0    0  501  502  0.00000000000E+00  0.00000000000E+00  0.14581326833E+03  0.14581326833E+03  0.00000000000E+00 0. -1.
          4   -1    0    0  502    0 -0.00000000000E+00 -0.00000000000E+00 -0.13483870554E+03  0.13483870554E+03  0.00000000000E+00 0. -1.
         23    2    1    2    0    0  0.25240351298E+02 -0.42648074799E+02 -0.31293707182E+02  0.10914074429E+03  0.92067759490E+02 0.  0.
         23    2    1    2    0    0 -0.60418873317E+01  0.61205779788E+02 -0.11716122405E+02  0.11128429164E+03  0.92001489991E+02 0.  0.
        -11    1    4    4    0    0 -0.31152400492E+02  0.20527782398E+01  0.22497913892E+02  0.38481711037E+02  0.00000000000E+00 0.  1.
         11    1    4    4    0    0  0.25110513160E+02  0.59153001548E+02 -0.34214036296E+02  0.72802580606E+02  0.00000000000E+00 0. -1.
        -13    1    3    3    0    0  0.29649196692E+02  0.21870467205E+02 -0.24209089993E+02  0.44084830027E+02  0.00000000000E+00 0. -1.
         13    1    3    3    0    0 -0.44088453943E+01 -0.64518542004E+02 -0.70846171895E+01  0.65055914264E+02  0.00000000000E+00 0.  1.
          4    1    1    2  501    0 -0.19198463966E+02 -0.18557704988E+02  0.53984392374E+02  0.60226937936E+02  0.00000000000E+00 0. -1.
<scales pt_clust_5="13000.00000" pt_clust_6="13000.00000" pt_clust_7="13000.00000" pt_clust_8="13000.00000" pt_clust_9="26.70149"></scales>
<clustering>
<clus scale="   26.701">  1  9  2 -1</clus>
<clus scale="   92.001">  5  6 -1 -1</clus>
<clus scale="   92.068">  7  8 -1 -1</clus>
<clus scale="  106.427">  1  5  2 -1</clus>
<clus scale="   26.701">  1  5  2 -1</clus>
</clustering>
</event>
<event>
 9    1  0.1601012E-005  0.9437214E+02  0.7546771E-02  0.1292921E+00
          1   -1    0    0  502    0 -0.00000000000E+00  0.00000000000E+00  0.18173331716E+03  0.18173331716E+03  0.00000000000E+00 0. -1.
         21   -1    0    0  501  502  0.00000000000E+00 -0.00000000000E+00 -0.89532282578E+02  0.89532282578E+02  0.00000000000E+00 0.  1.
         23    2    1    2    0    0  0.11010454144E+02  0.20918830097E+02  0.11936727517E+03  0.15193331679E+03  0.90974495428E+02 0.  0.
         23    2    1    2    0    0 -0.25639114193E+02 -0.70149591972E+01 -0.27218040666E+02  0.99150162044E+02  0.91560685157E+02 0.  0.
        -11    1    3    3    0    0  0.50272750128E+02  0.46643248653E+01  0.75788029126E+02  0.91065529651E+02  0.00000000000E+00 0. -1.
         11    1    3    3    0    0 -0.39262295984E+02  0.16254505231E+02  0.43579246041E+02  0.60867787143E+02  0.00000000000E+00 0.  1.
        -13    1    4    4    0    0 -0.59541812515E+02 -0.12669443518E+02 -0.19517355107E+02  0.63927063025E+02  0.00000000000E+00 0.  1.
         13    1    4    4    0    0  0.33902698321E+02  0.56544843213E+01 -0.77006855585E+01  0.35223099019E+02  0.00000000000E+00 0. -1.
          1    1    1    2  501    0  0.14628660049E+02 -0.13903870899E+02  0.51800082282E-01  0.20182120901E+02  0.00000000000E+00 0. -1.
<scales pt_clust_5="13000.00000" pt_clust_6="13000.00000" pt_clust_7="13000.00000" pt_clust_8="13000.00000" pt_clust_9="20.18205"></scales>
<clustering>
<clus scale="   20.182">  2  9  1 -1</clus>
<clus scale="   90.974">  5  6 -1 -1</clus>
<clus scale="   91.561">  7  8 -1 -1</clus>
<clus scale="   93.804">  1  5  2 -1</clus>
<clus scale="   20.182">  2  5  1 -1</clus>
</clustering>
</event>
<event>
 9    1  0.1601012E-005  0.9628188E+02  0.7546771E-02  0.1288946E+00
         -3   -1    0    0    0  501 -0.00000000000E+00  0.00000000000E+00  0.21596557460E+03  0.21596557460E+03  0.00000000000E+00 0.  1.
         21   -1    0    0  501  502  0.00000000000E+00 -0.00000000000E+00 -0.11814119697E+03  0.11814119697E+03  0.00000000000E+00 0.  1.
         23    2    1    2    0    0 -0.22244660467E+01 -0.11091153203E+02  0.70161678357E+02  0.11340098355E+03  0.88369451913E+02 0.  0.
         23    2    1    2    0    0  0.11072240230E+02  0.64217584198E+02  0.86786637253E+02  0.14072866117E+03  0.89588743961E+02 0.  0.
        -11    1    3    3    0    0 -0.15435368087E+02  0.30083932779E+02  0.60169073078E+02  0.69018917367E+02  0.00000000000E+00 0. -1.
         11    1    3    3    0    0  0.13210902040E+02 -0.41175085982E+02  0.99926052788E+01  0.44382066182E+02  0.00000000000E+00 0.  1.
        -13    1    4    4    0    0 -0.19926964693E+02 -0.14117143205E+02  0.31926490404E+02  0.40195502779E+02  0.00000000000E+00 0. -1.
         13    1    4    4    0    0  0.30999204924E+02  0.78334727403E+02  0.54860146849E+02  0.10053315839E+03  0.00000000000E+00 0.  1.
         -3    1    1    2    0  502 -0.88477741837E+01 -0.53126430995E+02 -0.59123937977E+02  0.79977126856E+02  0.00000000000E+00 0.  1.
<scales pt_clust_5="13000.00000" pt_clust_6="13000.00000" pt_clust_7="13000.00000" pt_clust_8="13000.00000" pt_clust_9="53.85815"></scales>
<clustering>
<clus scale="   53.858">  2  9  1 -1</clus>
<clus scale="   88.369">  5  6 -1 -1</clus>
<clus scale="   89.589">  7  8 -1 -1</clus>
<clus scale="   95.148">  1  5  2 -1</clus>
<clus scale="   53.858">  2  5  1 -1</clus>
</clustering>
</event>
<event>
 9    1  0.1601012E-005  0.1090853E+03  0.7546771E-02  0.1262454E+00
         21   -1    0    0  501  502  0.00000000000E+00  0.00000000000E+00  0.12727714546E+03  0.12727714546E+03  0.00000000000E+00 0. -1.
         -1   -1    0    0    0  501 -0.00000000000E+00 -0.00000000000E+00 -0.15543305201E+03  0.15543305201E+03  0.00000000000E+00 0.  1.
         23    2    1    2    0    0  0.59280435454E+02 -0.41507893366E+02 -0.31665645399E+02  0.12049134989E+03  0.90985587106E+02 0.  0.
         23    2    1    2    0    0 -0.39897672801E+02  0.10608231328E+02  0.43065431833E+02  0.10841240327E+03  0.90522145888E+02 0.  0.
        -11    1    3    3    0    0  0.23382134086E+02  0.25792647834E+02  0.61550373552E+01  0.35353491504E+02  0.00000000000E+00 0.  1.
         11    1    3    3    0    0  0.35898301368E+02 -0.67300541200E+02 -0.37820682755E+02  0.85137858388E+02  0.00000000000E+00 0. -1.
        -11    1    4    4    0    0 -0.23858042640E+02  0.24057092688E+02  0.67929742093E+02  0.75910472058E+02  0.00000000000E+00 0. -1.
         11    1    4    4    0    0 -0.16039630161E+02 -0.13448861360E+02 -0.24864310260E+02  0.32501931209E+02  0.00000000000E+00 0.  1.
         -1    1    1    2    0  502 -0.19382762653E+02  0.30899662038E+02 -0.39555692986E+02  0.53806444314E+02  0.00000000000E+00 0.  1.
<scales pt_clust_5="13000.00000" pt_clust_6="13000.00000" pt_clust_7="13000.00000" pt_clust_8="13000.00000" pt_clust_9="36.47577"></scales>
<clustering>
<clus scale="   36.476">  1  9  2 -1</clus>
<clus scale="   90.522">  7  8 -1 -1</clus>
<clus scale="   90.986">  5  6 -1 -1</clus>
<clus scale="  108.699">  1  7  2 -1</clus>
<clus scale="   36.476">  1  5  2 -1</clus>
</clustering>
</event>
<event>
 9    1  0.1601012E-005  0.1063318E+03  0.7546771E-02  0.1268316E+00
          2   -1    0    0  502    0 -0.00000000000E+00  0.00000000000E+00  0.25508171138E+03  0.25508171138E+03  0.00000000000E+00 0. -1.
         21   -1    0    0  501  502  0.00000000000E+00 -0.00000000000E+00 -0.92950946216E+02  0.92950946216E+02  0.00000000000E+00 0. -1.
         23    2    1    2    0    0 -0.54898641526E+02  0.25010757465E+02  0.16295345333E+03  0.19611448291E+03  0.90926693701E+02 0.  0.
         23    2    1    2    0    0  0.31853799455E+02 -0.13300192270E+02  0.37342048335E+02  0.10582317283E+03  0.92803855954E+02 0.  0.
        -11    1    3    3    0    0 -0.63934019324E+02  0.48306772518E+02  0.14384446185E+03  0.16465822877E+03  0.00000000000E+00 0. -1.
         11    1    3    3    0    0  0.90353777980E+01 -0.23296015053E+02  0.19108991475E+02  0.31456254140E+02  0.00000000000E+00 0.  1.
        -11    1    4    4    0    0  0.21541359902E+02  0.39514995485E+02  0.20344935083E+02  0.49390094535E+02  0.00000000000E+00 0.  1.
         11    1    4    4    0    0  0.10312439553E+02 -0.52815187755E+02  0.16997113252E+02  0.56433078296E+02  0.00000000000E+00 0. -1.
          2    1    1    2  501    0  0.23044842071E+02 -0.11710565195E+02 -0.38164736500E+02  0.46095001848E+02  0.00000000000E+00 0. -1.
<scales pt_clust_5="13000.00000" pt_clust_6="13000.00000" pt_clust_7="13000.00000" pt_clust_8="13000.00000" pt_clust_9="25.84961"></scales>
<clustering>
<clus scale="   25.850">  2  9  1 -1</clus>
<clus scale="   90.927">  5  6 -1 -1</clus>
<clus scale="   92.804">  7  8 -1 -1</clus>
<clus scale="  104.698">  1  5  2 -1</clus>
<clus scale="   25.850">  2  5  1 -1</clus>
</clustering>
</event>
<event>
 9    1  0.1601012E-005  0.9886892E+02  0.7546771E-02  0.1283948E+00
         -1   -1    0    0    0  501 -0.00000000000E+00  0.00000000000E+00  0.92761919075E+02  0.92761919075E+02  0.00000000000E+00 0.  1.
         21   -1    0    0  501  502  0.00000000000E+00 -0.00000000000E+00 -0.16157332795E+03  0.16157332795E+03  0.00000000000E+00 0. -1.
         23    2    1    2    0    0 -0.26007919756E+02 -0.78084144945E+01  0.10685958457E+01  0.93024152626E+02  0.88966105050E+02 0.  0.
         23    2    1    2    0    0  0.59642149154E+02 -0.40208528003E+01 -0.58080255205E+02  0.12375544182E+03  0.91480818332E+02 0.  0.
        -13    1    4    4    0    0  0.71273941300E+02  0.24878845701E+02 -0.28191768325E+02  0.80583543439E+02  0.00000000000E+00 0. -1.
         13    1    4    4    0    0 -0.11631792146E+02 -0.28899698501E+02 -0.29888486880E+02  0.43171898383E+02  0.00000000000E+00 0.  1.
        -13    1    3    3    0    0 -0.39761728869E+02 -0.29109163272E+02  0.27471361484E+02  0.56418207795E+02  0.00000000000E+00 0.  1.
         13    1    3    3    0    0  0.13753809112E+02  0.21300748778E+02 -0.26402765638E+02  0.36605944831E+02  0.00000000000E+00 0. -1.
         -1    1    1    2    0  502 -0.33634229398E+02  0.11829267295E+02 -0.11799749517E+02  0.37555652578E+02  0.00000000000E+00 0.  1.
<scales pt_clust_5="13000.00000" pt_clust_6="13000.00000" pt_clust_7="13000.00000" pt_clust_8="13000.00000" pt_clust_9="35.65379"></scales>
<clustering>
<clus scale="   35.654">  2  9  1 -1</clus>
<clus scale="   88.966">  7  8 -1 -1</clus>
<clus scale="   91.481">  5  6 -1 -1</clus>
<clus scale="   96.547">  1  7  2 -1</clus>
<clus scale="   35.654">  2  5  1 -1</clus>
</clustering>
</event>
<event>
 9    1  0.1601012E-005  0.9627235E+02  0.7546771E-02  0.1288362E+00
         21   -1    0    0  501  502  0.00000000000E+00  0.00000000000E+00  0.72278096888E+02  0.72278096888E+02  0.00000000000E+00 0. -1.
         -1   -1    0    0    0  501 -0.00000000000E+00 -0.00000000000E+00 -0.45643308227E+03  0.45643308227E+03  0.00000000000E+00 0.  1.
         23    2    1    2    0    0  0.14208124289E+01  0.37736900648E+02 -0.27856534869E+03  0.29555967156E+03  0.91273071522E+02 0.  0.
         23    2    1    2    0    0 -0.70842536583E+02  0.18662894985E+02 -0.72915018598E+02  0.13792575793E+03  0.91323305481E+02 0.  0.
        -13    1    3    3    0    0 -0.33379296065E+02 -0.48361662842E+01 -0.17582094664E+03  0.17902673316E+03  0.00000000000E+00 0.  1.
         13    1    3    3    0    0  0.34800108493E+02  0.42573066932E+02 -0.10274440205E+03  0.11653293840E+03  0.00000000000E+00 0. -1.
        -13    1    4    4    0    0 -0.50174421183E+02 -0.15502750857E+02  0.25187594474E+01  0.52575203037E+02  0.00000000000E+00 0.  1.
         13    1    4    4    0    0 -0.20668115400E+02  0.34165645842E+02 -0.75433778046E+02  0.85350554891E+02  0.00000000000E+00 0. -1.
         -1    1    1    2    0  502  0.69421724154E+02 -0.56399795634E+02 -0.32674618092E+02  0.95225749666E+02  0.00000000000E+00 0.  1.
<scales pt_clust_5="13000.00000" pt_clust_6="13000.00000" pt_clust_7="13000.00000" pt_clust_8="13000.00000" pt_clust_9="89.44447"></scales>
<clustering>
<clus scale="   89.444">  1  9  2 -1</clus>
<clus scale="   91.273">  5  6 -1 -1</clus>
<clus scale="   91.323">  7  8 -1 -1</clus>
<clus scale="   96.225">  2  5  1 -1</clus>
<clus scale="   89.444">  1  5  2 -1</clus>
</clustering>
</event>
<event>
 9    1  0.1601012E-005  0.1122932E+03  0.7546771E-02  0.1259870E+00
         21   -1    0    0  501  502  0.00000000000E+00  0.00000000000E+00  0.12889005643E+03  0.12889005643E+03  0.00000000000E+00 0.  1.
          1   -1    0    0  502    0 -0.00000000000E+00 -0.00000000000E+00 -0.26617888441E+03  0.26617888441E+03  0.00000000000E+00 0. -1.
         23    2    1    2    0    0  0.31314111200E+02 -0.18771904941E+01 -0.12859706045E+03  0.16671121279E+03  0.10134755601E+03 0.  0.
         23    2    1    2    0    0 -0.10033746127E+03 -0.43117901383E+02 -0.21244411839E+02  0.14501296201E+03  0.93009002584E+02 0.  0.
        -13    1    4    4    0    0 -0.93321916160E+02 -0.68667062377E+02 -0.10208114412E+02  0.11631144007E+03  0.00000000000E+00 0.  1.
         13    1    4    4    0    0 -0.70155451123E+01  0.25549160993E+02 -0.11036297426E+02  0.28701521938E+02  0.00000000000E+00 0. -1.
        -13    1    3    3    0    0  0.63069353044E+02 -0.13799016155E+02 -0.11121845809E+03  0.12859899518E+03  0.00000000000E+00 0.  1.
         13    1    3    3    0    0 -0.31755241843E+02  0.11921825660E+02 -0.17378602356E+02  0.38112217614E+02  0.00000000000E+00 0. -1.
          1    1    1    2  501    0  0.69023350072E+02  0.44995091877E+02  0.12552644308E+02  0.83344766046E+02  0.00000000000E+00 0. -1.
<scales pt_clust_5="13000.00000" pt_clust_6="13000.00000" pt_clust_7="13000.00000" pt_clust_8="13000.00000" pt_clust_9="82.39406"></scales>
<clustering>
<clus scale="   82.394">  1  9  2 -1</clus>
<clus scale="   93.009">  5  6 -1 -1</clus>
<clus scale="  101.348">  7  8 -1 -1</clus>
<clus scale="  104.829">  1  5  2 -1</clus>
<clus scale="   82.394">  1  5  2 -1</clus>
</clustering>
</event>
<event>
 9    1  0.1601012E-005  0.1124820E+03  0.7546771E-02  0.1256309E+00
         -2   -1    0    0    0  501 -0.00000000000E+00  0.00000000000E+00  0.12267764918E+03  0.12267764918E+03  0.00000000000E+00 0.  1.
         21   -1    0    0  501  502  0.00000000000E+00 -0.00000000000E+00 -0.18925140124E+03  0.18925140124E+03  0.00000000000E+00 0.  1.
         23    2    1    2    0    0 -0.53369661386E+02 -0.16076777340E+02  0.32855254167E+02  0.11254361925E+03  0.92085910868E+02 0.  0.
         23    2    1    2    0    0  0.92855493427E+02  0.80540038204E+01 -0.88326289515E+02  0.15759109968E+03  0.91358697681E+02 0.  0.
        -11    1    4    4    0    0  0.10148968946E+03 -0.15621493209E+02 -0.82511305004E+02  0.13172814267E+03  0.00000000000E+00 0.  1.
         11    1    4    4    0    0 -0.86341960324E+01  0.23675497029E+02 -0.58149845104E+01  0.25862957015E+02  0.00000000000E+00 0. -1.
        -11    1    3    3    0    0 -0.52239971820E+02  0.25901199258E+02  0.38934570583E+02  0.70112677636E+02  0.00000000000E+00 0.  1.
         11    1    3    3    0    0 -0.11296895659E+01 -0.41977976599E+02 -0.60793164158E+01  0.42430941610E+02  0.00000000000E+00 0. -1.
         -2    1    1    2    0  502 -0.39485832041E+02  0.80227735200E+01 -0.11102716712E+02  0.41794331497E+02  0.00000000000E+00 0.  1.
<scales pt_clust_5="13000.00000" pt_clust_6="13000.00000" pt_clust_7="13000.00000" pt_clust_8="13000.00000" pt_clust_9="40.29263"></scales>
<clustering>
<clus scale="   40.293">  2  9  1 -1</clus>
<clus scale="   91.359">  5  6 -1 -1</clus>
<clus scale="   92.086">  7  8 -1 -1</clus>
<clus scale="  111.887">  2  5  1 -1</clus>
<clus scale="   40.293">  2  5  1 -1</clus>
</clustering>
</event>
<event>
 9    1  0.1601012E-005  0.1571850E+03  0.7546771E-02  0.1192464E+00
         -1   -1    0    0    0  501 -0.00000000000E+00  0.00000000000E+00  0.97817082007E+02  0.97817082007E+02  0.00000000000E+00 0.  1.
         21   -1    0    0  501  502  0.00000000000E+00 -0.00000000000E+00 -0.42770862727E+03  0.42770862727E+03  0.00000000000E+00 0. -1.
         23    2    1    2    0    0  0.89565643987E+02 -0.76812572121E+02 -0.30266109849E+02  0.15082531235E+03  0.88938527199E+02 0.  0.
         23    2    1    2    0    0 -0.10181536048E+03  0.11262927563E+03 -0.19672206865E+03  0.26505553980E+03  0.92212501992E+02 0.  0.
        -13    1    4    4    0    0 -0.76613688798E+02  0.11942925542E+03 -0.19165866220E+03  0.23846602936E+03  0.00000000000E+00 0. -1.
         13    1    4    4    0    0 -0.25201671679E+02 -0.67999797815E+01 -0.50634064458E+01  0.26589510437E+02  0.00000000000E+00 0.  1.
        -13    1    3    3    0    0  0.69383967819E+02 -0.39449368520E+01 -0.31034387425E+00  0.69496718126E+02  0.00000000000E+00 0.  1.
         13    1    3    3    0    0  0.20181676168E+02 -0.72867635269E+02 -0.29955765974E+02  0.81328594220E+02  0.00000000000E+00 0. -1.
         -1    1    1    2    0  502  0.12249716490E+02 -0.35816703513E+02 -0.10290336677E+03  0.10964485714E+03  0.00000000000E+00 0.  1.
<scales pt_clust_5="13000.00000" pt_clust_6="13000.00000" pt_clust_7="13000.00000" pt_clust_8="13000.00000" pt_clust_9="37.85356"></scales>
<clustering>
<clus scale="   37.854">  2  9  1 -1</clus>
<clus scale="   88.939">  7  8 -1 -1</clus>
<clus scale="   92.213">  5  6 -1 -1</clus>
<clus scale="  155.287">  1  7  2 -1</clus>
<clus scale="   37.854">  2  5  1 -1</clus>
</clustering>
</event>
<event>
 9    1  0.1601012E-005  0.1146649E+03  0.7546771E-02  0.1252480E+00
          1   -1    0    0  502    0 -0.00000000000E+00  0.00000000000E+00  0.21971710879E+03  0.21971710879E+03  0.00000000000E+00 0. -1.
         21   -1    0    0  501  502  0.00000000000E+00 -0.00000000000E+00 -0.20348424011E+03  0.20348424011E+03  0.00000000000E+00 0.  1.
         23    2    1    2    0    0 -0.49353154528E+02 -0.46129790828E+02  0.15866498822E+03  0.19531162629E+03  0.91697117796E+02 0.  0.
         23    2    1    2    0    0  0.71641398133E+02  0.32049656967E+02 -0.47021133938E+02  0.12890350061E+03  0.90804487739E+02 0.  0.
        -11    1    4    4    0    0  0.34775769288E+02 -0.30899412804E+02 -0.24376989975E+02  0.52520143578E+02  0.00000000000E+00 0.  1.
         11    1    4    4    0    0  0.36865628844E+02  0.62949069771E+02 -0.22644143964E+02  0.76383357028E+02  0.00000000000E+00 0. -1.
        -13    1    3    3    0    0 -0.10930970473E+02 -0.51098534351E+02  0.28537555225E+02  0.59539385171E+02  0.00000000000E+00 0.  1.
         13    1    3    3    0    0 -0.38422184055E+02  0.49687435232E+01  0.13012743299E+03  0.13577224112E+03  0.00000000000E+00 0. -1.
          1    1    1    2  501    0 -0.22288243605E+02  0.14080133861E+02 -0.95410985604E+02  0.98986222003E+02  0.00000000000E+00 0. -1.
<scales pt_clust_5="13000.00000" pt_clust_6="13000.00000" pt_clust_7="13000.00000" pt_clust_8="13000.00000" pt_clust_9="26.36316"></scales>
<clustering>
<clus scale="   26.363">  2  9  1 -1</clus>
<clus scale="   90.804">  5  6 -1 -1</clus>
<clus scale="   91.697">  7  8 -1 -1</clus>
<clus scale="  113.952">  2  5  1 -1</clus>
<clus scale="   26.363">  2  5  1 -1</clus>
</clustering>
</event>
<event>
 9    1  0.1601012E-005  0.1280777E+03  0.7546771E-02  0.1231913E+00
         21   -1    0    0  501  502  0.00000000000E+00  0.00000000000E+00  0.13609599443E+03  0.13609599443E+03  0.00000000000E+00 0.  1.
          1   -1    0    0  502    0 -0.00000000000E+00 -0.00000000000E+00 -0.35195641120E+03  0.35195641120E+03  0.00000000000E+00 0. -1.
         23    2    1    2    0    0  0.70341849109E+02  0.45850726780E+02 -0.14227097804E+03  0.18655838025E+03  0.86676024172E+02 0.  0.
         23    2    1    2    0    0 -0.13645266871E+03  0.51001952549E+02 -0.24050129828E+02  0.17419428033E+03  0.92437592967E+02 0.  0.
        -11    1    4    4    0    0 -0.13427924706E+03  0.18840063812E+02 -0.28726549470E+01  0.13562491048E+03  0.00000000000E+00 0.  1.
         11    1    4    4    0    0 -0.21734216528E+01  0.32161888738E+02 -0.21177474881E+02  0.38569369857E+02  0.00000000000E+00 0. -1.
        -13    1    3    3    0    0 -0.17413170989E+02  0.24683366567E+02 -0.40420466197E+02  0.50460887790E+02  0.00000000000E+00 0.  1.
         13    1    3    3    0    0  0.87755020099E+02  0.21167360214E+02 -0.10185051184E+03  0.13609749246E+03  0.00000000000E+00 0. -1.
          1    1    1    2  501    0  0.66110819602E+02 -0.96852679330E+02 -0.49539308902E+02  0.12729974504E+03  0.00000000000E+00 0. -1.
<scales pt_clust_5="13000.00000" pt_clust_6="13000.00000" pt_clust_7="13000.00000" pt_clust_8="13000.00000" pt_clust_9="117.26501"></scales>
<clustering>
<clus scale="   86.676">  7  8 -1 -1</clus>
<clus scale="   92.438">  5  6 -1 -1</clus>
<clus scale="  117.265">  1  9  2 -1</clus>
<clus scale="  123.984">  2  7  1 -1</clus>
<clus scale="  117.265">  1  5  2 -1</clus>
</clustering>
</event>
<event>
 9    1  0.1601012E-005  0.1111105E+03  0.7546771E-02  0.1259782E+00
         21   -1    0    0  501  502  0.00000000000E+00  0.00000000000E+00  0.19810015951E+03  0.19810015951E+03  0.00000000000E+00 0.  1.
         -1   -1    0    0    0  501 -0.00000000000E+00 -0.00000000000E+00 -0.23926563929E+03  0.23926563929E+03  0.00000000000E+00 0.  1.
         23    2    1    2    0    0 -0.42749447184E+02  0.67329269363E+02 -0.14492603680E+03  0.19107879752E+03  0.95638930217E+02 0.  0.
         23    2    1    2    0    0  0.37402160532E+02  0.13751268137E+02 -0.15595183193E+02  0.10189711328E+03  0.92475904793E+02 0.  0.
        -11    1    3    3    0    0 -0.53377925393E+02  0.69435872707E+00 -0.87377487186E+02  0.10239389787E+03  0.00000000000E+00 0. -1.
         11    1    3    3    0    0  0.10628478209E+02  0.66634910636E+02 -0.57548549613E+02  0.88684899656E+02  0.00000000000E+00 0.  1.
        -13    1    4    4    0    0  0.29741448679E+02  0.52085155140E+02 -0.46751654697E+00  0.59980294491E+02  0.00000000000E+00 0.  1.
         13    1    4    4    0    0  0.76607118530E+01 -0.38333887003E+02 -0.15127666646E+02  0.41916818785E+02  0.00000000000E+00 0. -1.
         -1    1    1    2    0  502  0.53472866520E+01 -0.81080537500E+02  0.11935574021E+03  0.14438988800E+03  0.00000000000E+00 0.  1.
<scales pt_clust_5="13000.00000" pt_clust_6="13000.00000" pt_clust_7="13000.00000" pt_clust_8="13000.00000" pt_clust_9="81.25667"></scales>
<clustering>
<clus scale="   81.257">  1  9  2 -1</clus>
<clus scale="   92.476">  7  8 -1 -1</clus>
<clus scale="   95.639">  5  6 -1 -1</clus>
<clus scale="  108.400">  1  7  2 -1</clus>
<clus scale="   81.257">  1  5  2 -1</clus>
</clustering>
</event>
<event>
 9    1  0.1601012E-005  0.1028604E+03  0.7546771E-02  0.1276792E+00
         21   -1    0    0  501  502  0.00000000000E+00  0.00000000000E+00  0.24024249542E+03  0.24024249542E+03  0.00000000000E+00 0. -1.
         -3   -1    0    0    0  501 -0.00000000000E+00 -0.00000000000E+00 -0.14912481801E+03  0.14912481801E+03  0.00000000000E+00 0.  1.
         23    2    1    2    0    0  0.63137871589E+01 -0.27676280366E+02 -0.94873335518E+02  0.13748472363E+03  0.95369067502E+02 0.  0.
         23    2    1    2    0    0 -0.89235801569E+01  0.34772410169E+01  0.47432864148E+02  0.11120293556E+03  0.10012239904E+03 0.  0.
        -11    1    4    4    0    0  0.40671246888E+02  0.20614179639E+02  0.34451444150E+02  0.57148899636E+02  0.00000000000E+00 0.  1.
         11    1    4    4    0    0 -0.49594827045E+02 -0.17136938622E+02  0.12981419998E+02  0.54054035928E+02  0.00000000000E+00 0. -1.
        -11    1    3    3    0    0  0.47308072503E+02 -0.33679588341E+02 -0.55614354641E+02  0.80407243684E+02  0.00000000000E+00 0.  1.
         11    1    3    3    0    0 -0.40994285344E+02  0.60033079752E+01 -0.39258980877E+02  0.57077479946E+02  0.00000000000E+00 0. -1.
         -3    1    1    2    0  502  0.26097929980E+01  0.24199039349E+02  0.13855814878E+03  0.14067965424E+03  0.00000000000E+00 0.  1.
<scales pt_clust_5="13000.00000" pt_clust_6="13000.00000" pt_clust_7="13000.00000" pt_clust_8="13000.00000" pt_clust_9="24.33936"></scales>
<clustering>
<clus scale="   24.339">  1  9  2 -1</clus>
<clus scale="   95.369">  7  8 -1 -1</clus>
<clus scale="   98.240">  2  7  1 -1</clus>
<clus scale="  100.122">  5  6 -1 -1</clus>
<clus scale="   24.339">  1  5  2 -1</clus>
</clustering>
</event>
<event>
 9    1  0.1601012E-005  0.9704411E+02  0.7546771E-02  0.1290199E+00
         -3   -1    0    0    0  501 -0.00000000000E+00  0.00000000000E+00  0.41456513652E+02  0.41456513652E+02  0.00000000000E+00 0.  1.
         21   -1    0    0  501  502  0.00000000000E+00 -0.00000000000E+00 -0.81025402906E+03  0.81025402906E+03  0.00000000000E+00 0.  1.
         23    2    1    2    0    0  0.21035061412E+02  0.11638843164E+02 -0.44305715234E+02  0.10578877031E+03  0.93007155870E+02 0.  0.
         23    2    1    2    0    0 -0.68784282088E+02  0.22798238928E+02 -0.55911470369E+03  0.57037837395E+03  0.86436106024E+02 0.  0.
        -11    1    3    3    0    0 -0.17728905995E+02  0.21311716041E+02 -0.57401131662E+02  0.63744750878E+02  0.00000000000E+00 0.  1.
         11    1    3    3    0    0  0.38763967407E+02 -0.96728728773E+01  0.13095416427E+02  0.42044019435E+02  0.00000000000E+00 0. -1.
        -13    1    4    4    0    0  0.18967564187E+02  0.15160965635E+02 -0.14247293140E+03  0.14452736610E+03  0.00000000000E+00 0. -1.
         13    1    4    4    0    0 -0.87751846274E+02  0.76372732923E+01 -0.41664177229E+03  0.42585100785E+03  0.00000000000E+00 0.  1.
         -3    1    1    2    0  502  0.47749220675E+02 -0.34437082091E+02 -0.16537709648E+03  0.17554339844E+03  0.00000000000E+00 0.  1.
<scales pt_clust_5="13000.00000" pt_clust_6="13000.00000" pt_clust_7="13000.00000" pt_clust_8="13000.00000" pt_clust_9="58.87190"></scales>
<clustering>
<clus scale="   58.872">  2  9  1 -1</clus>
<clus scale="   86.436">  7  8 -1 -1</clus>
<clus scale="   90.766">  2  7  1 -1</clus>
<clus scale="   93.007">  5  6 -1 -1</clus>
<clus scale="   58.872">  2  5  1 -1</clus>
</clustering>
</event>
<event>
 9    1  0.1601012E-005  0.1888539E+03  0.7546771E-02  0.1159817E+00
         21   -1    0    0  501  502  0.00000000000E+00  0.00000000000E+00  0.73526467726E+03  0.73526467726E+03  0.00000000000E+00 0. -1.
          3   -1    0    0  502    0 -0.00000000000E+00 -0.00000000000E+00 -0.71731588931E+02  0.71731588931E+02  0.00000000000E+00 0. -1.
         23    2    1    2    0    0  0.13604646099E+03 -0.12093798175E+03  0.18509856788E+03  0.27577911638E+03  0.93048407967E+02 0.  0.
         23    2    1    2    0    0 -0.81570055678E+02  0.11683321490E+03  0.29474864742E+03  0.33957939832E+03  0.90187185998E+02 0.  0.
        -11    1    4    4    0    0 -0.42173916188E+02 -0.29448849705E+01  0.82525215940E+02  0.92723906411E+02  0.00000000000E+00 0.  1.
         11    1    4    4    0    0 -0.39396139490E+02  0.11977809987E+03  0.21222343148E+03  0.24685549191E+03  0.00000000000E+00 0. -1.
        -13    1    3    3    0    0  0.13421044439E+02 -0.70561893450E+02  0.62590857669E+02  0.95271825347E+02  0.00000000000E+00 0.  1.
         13    1    3    3    0    0  0.12262541655E+03 -0.50376088296E+02  0.12250771021E+03  0.18050729103E+03  0.00000000000E+00 0. -1.
          3    1    1    2  501    0 -0.54476405311E+02  0.41047668483E+01  0.18368587303E+03  0.19163775149E+03  0.00000000000E+00 0. -1.
<scales pt_clust_5="13000.00000" pt_clust_6="13000.00000" pt_clust_7="13000.00000" pt_clust_8="13000.00000" pt_clust_9="54.63083"></scales>
<clustering>
<clus scale="   54.631">  1  9  2 -1</clus>
<clus scale="   90.187">  5  6 -1 -1</clus>
<clus scale="   93.048">  7  8 -1 -1</clus>
<clus scale="  187.461">  1  5  2 -1</clus>
<clus scale="   54.631">  1  5  2 -1</clus>
</clustering>
</event>
<event>
 9    1  0.1601012E-005  0.1166411E+03  0.7546771E-02  0.1253943E+00
         21   -1    0    0  501  502  0.00000000000E+00  0.00000000000E+00  0.48486821081E+02  0.48486821081E+02  0.00000000000E+00 0. -1.
          2   -1    0    0  502    0 -0.00000000000E+00 -0.00000000000E+00 -0.70503472472E+03  0.70503472472E+03  0.00000000000E+00 0. -1.
         23    2    1    2    0    0  0.46678756562E+02  0.28528350977E+02 -0.37064770684E+03  0.38920702334E+03  0.10540214092E+03 0.  0.
         23    2    1    2    0    0 -0.10880178423E+02 -0.53135872486E+02 -0.30003696984E+03  0.31863173945E+03  0.92532172177E+02 0.  0.
        -11    1    4    4    0    0 -0.17773753327E+02  0.20280326825E+02 -0.39256510763E+02  0.47626375054E+02  0.00000000000E+00 0.  1.
         11    1    4    4    0    0  0.68935749037E+01 -0.73416199311E+02 -0.26078045908E+03  0.27100536440E+03  0.00000000000E+00 0. -1.
        -13    1    3    3    0    0  0.33950811970E+02 -0.33105439491E+02 -0.91553834158E+02  0.10310544266E+03  0.00000000000E+00 0. -1.
         13    1    3    3    0    0  0.12727944592E+02  0.61633790468E+02 -0.27909387268E+03  0.28610158068E+03  0.00000000000E+00 0.  1.
          2    1    1    2  501    0 -0.35798578139E+02  0.24607521509E+02  0.14136773036E+02  0.45682783009E+02  0.00000000000E+00 0. -1.
<scales pt_clust_5="13000.00000" pt_clust_6="13000.00000" pt_clust_7="13000.00000" pt_clust_8="13000.00000" pt_clust_9="43.44040"></scales>
<clustering>
<clus scale="   43.440">  1  9  2 -1</clus>
<clus scale="   92.532">  5  6 -1 -1</clus>
<clus scale="  105.156">  1  5  2 -1</clus>
<clus scale="  105.402">  7  8 -1 -1</clus>
<clus scale="   43.440">  1  5  2 -1</clus>
</clustering>
</event>
<event>
 9    1  0.1601012E-005  0.1022116E+03  0.7546771E-02  0.1276810E+00
          2   -1    0    0  502    0 -0.00000000000E+00  0.00000000000E+00  0.54190795103E+03  0.54190795103E+03  0.00000000000E+00 0. -1.
         21   -1    0    0  501  502  0.00000000000E+00 -0.00000000000E+00 -0.35165896899E+02  0.35165896899E+02  0.00000000000E+00 0.  1.
         23    2    1    2    0    0  0.10685511181E+02 -0.51778332869E+02  0.36444452603E+03  0.37888984129E+03  0.89120835805E+02 0.  0.
         23    2    1    2    0    0  0.24732939764E+02  0.44595152416E+02  0.92356374224E+02  0.13653837744E+03  0.86675156338E+02 0.  0.
        -11    1    4    4    0    0  0.53001994111E+02  0.15255592524E+02  0.32144215546E+02  0.63837254610E+02  0.00000000000E+00 0. -1.
         11    1    4    4    0    0 -0.28269054347E+02  0.29339559893E+02  0.60212158679E+02  0.72701122833E+02  0.00000000000E+00 0.  1.
        -13    1    3    3    0    0 -0.67757013081E+01  0.22786602515E+02  0.13289754711E+03  0.13500702726E+03  0.00000000000E+00 0. -1.
         13    1    3    3    0    0  0.17461212489E+02 -0.74564935383E+02  0.23154697892E+03  0.24388281402E+03  0.00000000000E+00 0.  1.
          2    1    1    2  501    0 -0.35418450945E+02  0.71831804523E+01  0.49941153874E+02  0.61645629197E+02  0.00000000000E+00 0. -1.
<scales pt_clust_5="13000.00000" pt_clust_6="13000.00000" pt_clust_7="13000.00000" pt_clust_8="13000.00000" pt_clust_9="36.13952"></scales>
<clustering>
<clus scale="   36.140">  2  9  1 -1</clus>
<clus scale="   86.675">  5  6 -1 -1</clus>
<clus scale="   89.121">  7  8 -1 -1</clus>
<clus scale="  100.086">  2  5  1 -1</clus>
<clus scale="   36.140">  2  5  1 -1</clus>
</clustering>
</event>
<event>
 9    1  0.1601012E-005  0.1049838E+03  0.7546771E-02  0.1272592E+00
          1   -1    0    0  502    0 -0.00000000000E+00  0.00000000000E+00  0.25876705325E+03  0.25876705325E+03  0.00000000000E+00 0. -1.
         21   -1    0    0  501  502  0.00000000000E+00 -0.00000000000E+00 -0.54560102657E+02  0.54560102657E+02  0.00000000000E+00 0.  1.
         23    2    1    2    0    0  0.16187621957E+01 -0.62694303342E+02  0.14182375634E+03  0.17961508731E+03  0.90633358463E+02 0.  0.
         23    2    1    2    0    0 -0.61952189485E+01  0.38638707330E+02  0.52628751790E+02  0.10735367707E+03  0.84992329207E+02 0.  0.
        -13    1    3    3    0    0  0.20942562872E+02  0.14512742995E+02  0.61357293385E+02  0.66437399862E+02  0.00000000000E+00 0. -1.
         13    1    3    3    0    0 -0.19323800676E+02 -0.77207046337E+02  0.80466462950E+02  0.11317768745E+03  0.00000000000E+00 0.  1.
        -13    1    4    4    0    0  0.27389940084E+02  0.49276948583E+02  0.42786060662E+02  0.70774808134E+02  0.00000000000E+00 0. -1.
         13    1    4    4    0    0 -0.33585159032E+02 -0.10638241253E+02  0.98426911280E+01  0.36578868938E+02  0.00000000000E+00 0.  1.
          1    1    1    2  501    0  0.45764567528E+01  0.24055596013E+02  0.97544424693E+01  0.26358391526E+02  0.00000000000E+00 0. -1.
<scales pt_clust_5="13000.00000" pt_clust_6="13000.00000" pt_clust_7="13000.00000" pt_clust_8="13000.00000" pt_clust_9="24.48705"></scales>
<clustering>
<clus scale="   24.487">  2  9  1 -1</clus>
<clus scale="   84.992">  7  8 -1 -1</clus>
<clus scale="   90.633">  5  6 -1 -1</clus>
<clus scale="  100.154">  2  7  1 -1</clus>
<clus scale="   24.487">  2  5  1 -1</clus>
</clustering>
</event>
<event>
 9    1  0.1601012E-005  0.1704105E+03  0.7546771E-02  0.1202426E+00
         21   -1    0    0  501  502  0.00000000000E+00  0.00000000000E+00  0.12921269287E+03  0.12921269287E+03  0.00000000000E+00 0.  1.
         -4   -1    0    0    0  501 -0.00000000000E+00 -0.00000000000E+00 -0.43807325841E+03  0.43807325841E+03  0.00000000000E+00 0.  1.
         23    2    1    2    0    0 -0.23042044928E+02  0.24478442854E+02 -0.21592339546E+03  0.23714799714E+03  0.92120192358E+02 0.  0.
         23    2    1    2    0    0 -0.77884960962E+02 -0.12604699738E+03 -0.46454868866E+02  0.17959548136E+03  0.90236186711E+02 0.  0.
        -11    1    3    3    0    0 -0.35712143811E+02  0.43322685939E+02 -0.20382945534E+03  0.21142057420E+03  0.00000000000E+00 0.  1.
         11    1    3    3    0    0  0.12670098883E+02 -0.18844243085E+02 -0.12093940121E+02  0.25727422934E+02  0.00000000000E+00 0. -1.
        -11    1    4    4    0    0 -0.73990568978E+02 -0.86246995631E+02  0.58123983444E+01  0.11378458827E+03  0.00000000000E+00 0.  1.
         11    1    4    4    0    0 -0.38943919837E+01 -0.39800001749E+02 -0.52267267211E+02  0.65810893094E+02  0.00000000000E+00 0. -1.
         -4    1    1    2    0  502  0.10092700589E+03  0.10156855453E+03 -0.46482301210E+02  0.15054247279E+03  0.00000000000E+00 0.  1.
<scales pt_clust_5="13000.00000" pt_clust_6="13000.00000" pt_clust_7="13000.00000" pt_clust_8="13000.00000" pt_clust_9="144.55864"></scales>
<clustering>
<clus scale="   90.236">  7  8 -1 -1</clus>
<clus scale="   92.120">  5  6 -1 -1</clus>
<clus scale="   98.063">  2  5  1 -1</clus>
<clus scale="  144.559">  1  9  2 -1</clus>
<clus scale="  144.559">  1  5  2 -1</clus>
</clustering>
</event>
<event>
 9    1  0.1601012E-005  0.1602084E+03  0.7546771E-02  0.1203708E+00
         21   -1    0    0  501  502  0.00000000000E+00  0.00000000000E+00  0.10107075373E+04  0.10107075373E+04  0.00000000000E+00 0.  1.
         -1   -1    0    0    0  501 -0.00000000000E+00 -0.00000000000E+00 -0.16600458678E+03  0.16600458678E+03  0.00000000000E+00 0.  1.
         23    2    1    2    0    0 -0.16674979530E+02  0.67182081965E+02 -0.53790885856E+01  0.11491530910E+03  0.91570227648E+02 0.  0.
         23    2    1    2    0    0 -0.11327825746E+03 -0.43613021358E+02 -0.43352500097E+02  0.15865307213E+03  0.92505668946E+02 0.  0.
        -11    1    3    3    0    0 -0.37086674172E+02  0.16023508334E+02 -0.34035876405E+02  0.52826272849E+02  0.00000000000E+00 0.  1.
         11    1    3    3    0    0  0.20411694642E+02  0.51158573631E+02  0.28656787819E+02  0.62089036248E+02  0.00000000000E+00 0. -1.
        -13    1    4    4    0    0 -0.10981519925E+03 -0.67220032726E+02 -0.36491105498E+02  0.13382642327E+03  0.00000000000E+00 0.  1.
         13    1    4    4    0    0 -0.34630582160E+01  0.23607011367E+02 -0.68613945990E+01  0.24826648863E+02  0.00000000000E+00 0. -1.
         -1    1    1    2    0  502  0.12995323699E+03 -0.23569060606E+02  0.89343453923E+03  0.90314374288E+03  0.00000000000E+00 0.  1.
<scales pt_clust_5="13000.00000" pt_clust_6="13000.00000" pt_clust_7="13000.00000" pt_clust_8="13000.00000" pt_clust_9="130.80305"></scales>
<clustering>
<clus scale="   91.570">  5  6 -1 -1</clus>
<clus scale="   92.506">  7  8 -1 -1</clus>
<clus scale="  114.789">  2  5  1 -1</clus>
<clus scale="  130.803">  1  9  2 -1</clus>
<clus scale="  130.803">  1  5  2 -1</clus>
</clustering>
</event>
<event>
 9    1  0.1601012E-005  0.1612005E+03  0.7546771E-02  0.1187693E+00
          3   -1    0    0  502    0 -0.00000000000E+00  0.00000000000E+00  0.41236343625E+03  0.41236343625E+03  0.00000000000E+00 0. -1.
         21   -1    0    0  501  502  0.00000000000E+00 -0.00000000000E+00 -0.84148385486E+03  0.84148385486E+03  0.00000000000E+00 0. -1.
         23    2    1    2    0    0 -0.12174276099E+03  0.77808669505E+02  0.24187526062E+03  0.29600774729E+03  0.90782464460E+02 0.  0.
         23    2    1    2    0    0  0.13409119900E+03  0.35202223076E+02  0.89165565224E+02  0.18922451447E+03  0.92928858267E+02 0.  0.
        -11    1    4    4    0    0  0.88736727594E+02  0.60632230504E+02  0.32415702724E+02  0.11225529824E+03  0.00000000000E+00 0. -1.
         11    1    4    4    0    0  0.45354471402E+02 -0.25430007428E+02  0.56749862500E+02  0.76969216234E+02  0.00000000000E+00 0.  1.
        -13    1    3    3    0    0 -0.59963823118E+02 -0.12461678802E+02  0.85678464155E+02  0.10531739050E+03  0.00000000000E+00 0. -1.
         13    1    3    3    0    0 -0.61778937870E+02  0.90270348307E+02  0.15619679646E+03  0.19069035679E+03  0.00000000000E+00 0.  1.
          3    1    1    2  501    0 -0.12348438008E+02 -0.11301089258E+03 -0.76016124446E+03  0.76861502935E+03  0.00000000000E+00 0. -1.
<scales pt_clust_5="13000.00000" pt_clust_6="13000.00000" pt_clust_7="13000.00000" pt_clust_8="13000.00000" pt_clust_9="113.68353"></scales>
<clustering>
<clus scale="   90.782">  7  8 -1 -1</clus>
<clus scale="   92.929">  5  6 -1 -1</clus>
<clus scale="  113.684">  2  9  1 -1</clus>
<clus scale="  159.973">  1  7  2 -1</clus>
<clus scale="  113.684">  2  5  1 -1</clus>
</clustering>
</event>
<event>
 9    1  0.1601012E-005  0.1112435E+03  0.7546771E-02  0.1259373E+00
          2   -1    0    0  502    0 -0.00000000000E+00  0.00000000000E+00  0.11476384131E+04  0.11476384131E+04  0.00000000000E+00 0. -1.
         21   -1    0    0  501  502  0.00000000000E+00 -0.00000000000E+00 -0.13338451790E+02  0.13338451790E+02  0.00000000000E+00 0.  1.
         23    2    1    2    0    0 -0.16742387322E+02 -0.55881091716E+02  0.54766161698E+03  0.55824632909E+03  0.91119225642E+02 0.  0.
         23    2    1    2    0    0  0.37024749134E+02  0.60625637753E+02  0.53842516528E+03  0.55021010595E+03  0.88222457942E+02 0.  0.
        -11    1    3    3    0    0 -0.97699924014E+01 -0.81272412726E+02  0.41646812213E+03  0.42443651419E+03  0.00000000000E+00 0. -1.
         11    1    3    3    0    0 -0.69723949202E+01  0.25391321011E+02  0.13119349485E+03  0.13380981490E+03  0.00000000000E+00 0.  1.
        -13    1    4    4    0    0  0.64883789019E+02  0.51494891162E+02  0.42910115264E+03  0.43702337362E+03  0.00000000000E+00 0.  1.
         13    1    4    4    0    0 -0.27859039885E+02  0.91307465909E+01  0.10932401264E+03  0.11318673233E+03  0.00000000000E+00 0. -1.
          2    1    1    2  501    0 -0.20282361812E+02 -0.47445460375E+01  0.48213179089E+02  0.52520429888E+02  0.00000000000E+00 0. -1.
<scales pt_clust_5="13000.00000" pt_clust_6="13000.00000" pt_clust_7="13000.00000" pt_clust_8="13000.00000" pt_clust_9="20.82990"></scales>
<clustering>
<clus scale="   20.830">  2  9  1 -1</clus>
<clus scale="   88.222">  7  8 -1 -1</clus>
<clus scale="   91.119">  5  6 -1 -1</clus>
<clus scale="  108.883">  2  7  1 -1</clus>
<clus scale="   20.830">  2  5  1 -1</clus>
</clustering>
</event>
<event>
 9    1  0.1601012E-005  0.1925657E+03  0.7546771E-02  0.1187279E+00
         21   -1    0    0  501  502  0.00000000000E+00  0.00000000000E+00  0.78199423765E+02  0.78199423765E+02  0.00000000000E+00 0. -1.
          1   -1    0    0  502    0 -0.00000000000E+00 -0.00000000000E+00 -0.88959683280E+03  0.88959683280E+03  0.00000000000E+00 0. -1.
         23    2    1    2    0    0  0.48472123724E+00 -0.48590335313E+02 -0.14956612046E+03  0.17703061748E+03  0.81293047042E+02 0.  0.
         23    2    1    2    0    0  0.13975330526E+03  0.13455321407E+03 -0.55439533757E+03  0.59429985537E+03  0.90568062968E+02 0.  0.
        -11    1    4    4    0    0  0.34065743829E+02  0.56175899497E+00 -0.17505845940E+03  0.17834308140E+03  0.00000000000E+00 0. -1.
         11    1    4    4    0    0  0.10568756143E+03  0.13399145507E+03 -0.37933687817E+03  0.41595677397E+03  0.00000000000E+00 0.  1.
        -13    1    3    3    0    0  0.39059034346E+02 -0.14048792744E+02 -0.81980879293E+02  0.91890376597E+02  0.00000000000E+00 0.  1.
         13    1    3    3    0    0 -0.38574313109E+02 -0.34541542569E+02 -0.67585241165E+02  0.85140240887E+02  0.00000000000E+00 0. -1.
          1    1    1    2  501    0 -0.14023802649E+03 -0.85962878756E+02 -0.10743595100E+03  0.19646578370E+03  0.00000000000E+00 0. -1.
<scales pt_clust_5="13000.00000" pt_clust_6="13000.00000" pt_clust_7="13000.00000" pt_clust_8="13000.00000" pt_clust_9="169.93816"></scales>
<clustering>
<clus scale="   81.293">  7  8 -1 -1</clus>
<clus scale="   90.568">  5  6 -1 -1</clus>
<clus scale="   94.709">  2  7  1 -1</clus>
<clus scale="  169.938">  1  9  2 -1</clus>
<clus scale="  169.938">  1  5  2 -1</clus>
</clustering>
</event>
<event>
 9    1  0.1601012E-005  0.1407193E+03  0.7546771E-02  0.1212664E+00
          1   -1    0    0  502    0 -0.00000000000E+00  0.00000000000E+00  0.17091524103E+03  0.17091524103E+03  0.00000000000E+00 0. -1.
         21   -1    0    0  501  502  0.00000000000E+00 -0.00000000000E+00 -0.18275589934E+03  0.18275589934E+03  0.00000000000E+00 0. -1.
         23    2    1    2    0    0 -0.77011845100E+02  0.72689286679E+02  0.64671517429E+01  0.13887281116E+03  0.89606232728E+02 0.  0.
         23    2    1    2    0    0  0.29471699560E+02 -0.11543843496E+03 -0.16723581050E+02  0.15084471400E+03  0.90993605465E+02 0.  0.
        -11    1    4    4    0    0  0.40091431011E+02 -0.85331504775E+02  0.25728586931E+02  0.97727932205E+02  0.00000000000E+00 0. -1.
         11    1    4    4    0    0 -0.10619731451E+02 -0.30106930189E+02 -0.42452167981E+02  0.53116781790E+02  0.00000000000E+00 0.  1.
        -11    1    3    3    0    0 -0.64389664387E+02  0.89047101240E+02  0.23170026084E+02  0.11230434198E+03  0.00000000000E+00 0. -1.
         11    1    3    3    0    0 -0.12622180712E+02 -0.16357814561E+02 -0.16702874341E+02  0.26568469177E+02  0.00000000000E+00 0.  1.
          1    1    1    2  501    0  0.47540145540E+02  0.42749148284E+02 -0.15842290051E+01  0.63953615211E+02  0.00000000000E+00 0. -1.
<scales pt_clust_5="13000.00000" pt_clust_6="13000.00000" pt_clust_7="13000.00000" pt_clust_8="13000.00000" pt_clust_9="63.93402"></scales>
<clustering>
<clus scale="   63.934">  2  9  1 -1</clus>
<clus scale="   89.606">  7  8 -1 -1</clus>
<clus scale="   90.994">  5  6 -1 -1</clus>
<clus scale="  139.826">  1  7  2 -1</clus>
<clus scale="   63.934">  2  5  1 -1</clus>
</clustering>
</event>
<event>
 9    1  0.1601012E-005  0.2081025E+03  0.7546771E-02  0.1143173E+00
          2   -1    0    0  502    0 -0.00000000000E+00  0.00000000000E+00  0.14210611102E+04  0.14210611102E+04  0.00000000000E+00 0. -1.
         21   -1    0    0  501  502  0.00000000000E+00 -0.00000000000E+00 -0.11886139516E+03  0.11886139516E+03  0.00000000000E+00 0. -1.
         23    2    1    2    0    0 -0.21648679790E+03  0.94631642494E+02  0.10254867499E+04  0.10563249942E+04  0.91529982589E+02 0.  0.
         23    2    1    2    0    0  0.12870729762E+03 -0.15298145396E+02  0.32012394761E+03  0.35756752330E+03  0.92604482474E+02 0.  0.
        -11    1    4    4    0    0  0.14696775803E+01 -0.25958793148E+02  0.97697360082E+02  0.10109793797E+03  0.00000000000E+00 0.  1.
         11    1    4    4    0    0  0.12723762004E+03  0.10660647752E+02  0.22242658753E+03  0.25646958533E+03  0.00000000000E+00 0. -1.
        -11    1    3    3    0    0 -0.70834187949E+02  0.79976721751E+02  0.45086822182E+03  0.46335290185E+03  0.00000000000E+00 0.  1.
         11    1    3    3    0    0 -0.14565260996E+03  0.14654920743E+02  0.57461852808E+03  0.59297209235E+03  0.00000000000E+00 0. -1.
          2    1    1    2  501    0  0.87779500287E+02 -0.79333497097E+02 -0.43410982501E+02  0.12602998784E+03  0.00000000000E+00 0. -1.
<scales pt_clust_5="13000.00000" pt_clust_6="13000.00000" pt_clust_7="13000.00000" pt_clust_8="13000.00000" pt_clust_9="118.31756"></scales>
<clustering>
<clus scale="   91.530">  7  8 -1 -1</clus>
<clus scale="   92.604">  5  6 -1 -1</clus>
<clus scale="  118.318">  2  9  1 -1</clus>
<clus scale="  207.627">  1  7  2 -1</clus>
<clus scale="  118.318">  2  5  1 -1</clus>
</clustering>
</event>
<event>
 9    1  0.1601012E-005  0.1030902E+03  0.7546771E-02  0.1278884E+00
         21   -1    0    0  501  502  0.00000000000E+00  0.00000000000E+00  0.20366722842E+03  0.20366722842E+03  0.00000000000E+00 0.  1.
          3   -1    0    0  502    0 -0.00000000000E+00 -0.00000000000E+00 -0.84764091948E+02  0.84764091948E+02  0.00000000000E+00 0. -1.
         23    2    1    2    0    0  0.20725961168E+02 -0.13637001730E+02 -0.16378998862E+02  0.10339934193E+03  0.99033423775E+02 0.  0.
         23    2    1    2    0    0 -0.23571592576E+02  0.36681860485E+02  0.12488857202E+03  0.15959206312E+03  0.89282094087E+02 0.  0.
        -11    1    4    4    0    0 -0.45953347528E+02 -0.10250744337E+02  0.65357531897E+02  0.80550573456E+02  0.00000000000E+00 0. -1.
         11    1    4    4    0    0  0.22381754952E+02  0.46932604822E+02  0.59531040127E+02  0.79041489667E+02  0.00000000000E+00 0.  1.
        -13    1    3    3    0    0  0.42449766574E+02  0.27922657136E+02  0.64945631800E+01  0.51223401045E+02  0.00000000000E+00 0.  1.
         13    1    3    3    0    0 -0.21723805406E+02 -0.41559658866E+02 -0.22873562042E+02  0.52175940881E+02  0.00000000000E+00 0. -1.
          3    1    1    2  501    0  0.28456314083E+01 -0.23044858755E+02  0.10393563310E+02  0.25439915318E+02  0.00000000000E+00 0. -1.
<scales pt_clust_5="13000.00000" pt_clust_6="13000.00000" pt_clust_7="13000.00000" pt_clust_8="13000.00000" pt_clust_9="23.21990"></scales>
<clustering>
<clus scale="   23.220">  1  9  2 -1</clus>
<clus scale="   89.282">  5  6 -1 -1</clus>
<clus scale="   93.762">  1  5  2 -1</clus>
<clus scale="   99.033">  7  8 -1 -1</clus>
<clus scale="   23.220">  1  5  2 -1</clus>
</clustering>
</event>
<event>
 9    1  0.1601012E-005  0.2102622E+03  0.7546771E-02  0.1170312E+00
         -1   -1    0    0    0  501 -0.00000000000E+00  0.00000000000E+00  0.81876533898E+03  0.81876533898E+03  0.00000000000E+00 0.  1.
         21   -1    0    0  501  502  0.00000000000E+00 -0.00000000000E+00 -0.84056454216E+02  0.84056454216E+02  0.00000000000E+00 0.  1.
         23    2    1    2    0    0  0.29079370224E+02 -0.48587451537E+02  0.15128215804E+03  0.18507873874E+03  0.90341009354E+02 0.  0.
         23    2    1    2    0    0 -0.12304680752E+03  0.19027704861E+03  0.39084685855E+03  0.46085236406E+03  0.90982210109E+02 0.  0.
        -11    1    3    3    0    0 -0.47341867802E+01 -0.66873550086E+02  0.10870365579E+03  0.12771440407E+03  0.00000000000E+00 0.  1.
         11    1    3    3    0    0  0.33813557004E+02  0.18286098549E+02  0.42578502254E+02  0.57364334666E+02  0.00000000000E+00 0. -1.
        -13    1    4    4    0    0 -0.50230469249E+02  0.11393649848E+03  0.13266173200E+03  0.18194438948E+03  0.00000000000E+00 0. -1.
         13    1    4    4    0    0 -0.72816338267E+02  0.76340550127E+02  0.25818512655E+03  0.27890797458E+03  0.00000000000E+00 0.  1.
         -1    1    1    2    0  502  0.93967437292E+02 -0.14168959707E+03  0.19257986817E+03  0.25689069040E+03  0.00000000000E+00 0.  1.
<scales pt_clust_5="13000.00000" pt_clust_6="13000.00000" pt_clust_7="13000.00000" pt_clust_8="13000.00000" pt_clust_9="189.55851"></scales>
<clustering>
<clus scale="   90.341">  5  6 -1 -1</clus>
<clus scale="   90.982">  7  8 -1 -1</clus>
<clus scale="  106.620">  1  5  2 -1</clus>
<clus scale="  189.559">  2  9  1 -1</clus>
<clus scale="  189.559">  2  5  1 -1</clus>
</clustering>
</event>
<event>
 9    1  0.1601012E-005  0.1601481E+03  0.7546771E-02  0.1206884E+00
          1   -1    0    0  502    0 -0.00000000000E+00  0.00000000000E+00  0.59779567976E+03  0.59779567976E+03  0.00000000000E+00 0. -1.
         21   -1    0    0  501  502  0.00000000000E+00 -0.00000000000E+00 -0.81144860743E+02  0.81144860743E+02  0.00000000000E+00 0. -1.
         23    2    1    2    0    0  0.32303004344E+02  0.41058790605E+02  0.23717063666E+03  0.26032416452E+03  0.93752073904E+02 0.  0.
         23    2    1    2    0    0 -0.15110056769E+03  0.72626718447E+00  0.21198293788E+03  0.27573625098E+03  0.90894472508E+02 0.  0.
        -11    1    3    3    0    0 -0.15518846502E+02  0.52072281654E+02  0.15898557252E+03  0.16801419399E+03  0.00000000000E+00 0. -1.
         11    1    3    3    0    0  0.47821850845E+02 -0.11013491049E+02  0.78185064142E+02  0.92309970524E+02  0.00000000000E+00 0.  1.
        -13    1    4    4    0    0 -0.85857186702E+02 -0.31695191051E+02  0.16607625266E+03  0.18962426886E+03  0.00000000000E+00 0.  1.
         13    1    4    4    0    0 -0.65243380984E+02  0.32421458235E+02  0.45906685226E+02  0.86111982121E+02  0.00000000000E+00 0. -1.
          1    1    1    2  501    0  0.11879756334E+03 -0.41785057789E+02  0.67497244477E+02  0.14288012501E+03  0.00000000000E+00 0. -1.
<scales pt_clust_5="13000.00000" pt_clust_6="13000.00000" pt_clust_7="13000.00000" pt_clust_8="13000.00000" pt_clust_9="131.85450"></scales>
<clustering>
<clus scale="   90.894">  7  8 -1 -1</clus>
<clus scale="   93.752">  5  6 -1 -1</clus>
<clus scale="  107.325">  1  5  2 -1</clus>
<clus scale="  131.855">  2  9  1 -1</clus>
<clus scale="  131.855">  2  5  1 -1</clus>
</clustering>
</event>
<event>
 9    1  0.1601012E-005  0.1222510E+03  0.7546771E-02  0.1240463E+00
         21   -1    0    0  501  502  0.00000000000E+00  0.00000000000E+00  0.61568015332E+02  0.61568015332E+02  0.00000000000E+00 0.  1.
          1   -1    0    0  502    0 -0.00000000000E+00 -0.00000000000E+00 -0.50412733645E+03  0.50412733645E+03  0.00000000000E+00 0. -1.
         23    2    1    2    0    0  0.53840773401E+02 -0.50370776127E+02 -0.31064070570E+03  0.33103740925E+03  0.87476135684E+02 0.  0.
         23    2    1    2    0    0 -0.88978020645E+02  0.56395473630E+02 -0.14075366026E+03  0.19792946393E+03  0.90922726585E+02 0.  0.
        -13    1    3    3    0    0  0.73462662662E+02 -0.39801669682E+02 -0.28533557667E+03  0.29731687983E+03  0.00000000000E+00 0. -1.
         13    1    3    3    0    0 -0.19621889261E+02 -0.10569106445E+02 -0.25305129028E+02  0.33720529420E+02  0.00000000000E+00 0.  1.
        -13    1    4    4    0    0 -0.10357694385E+02 -0.23452208557E+02 -0.38342627839E+02  0.46124234723E+02  0.00000000000E+00 0. -1.
         13    1    4    4    0    0 -0.78620326259E+02  0.79847682187E+02 -0.10241103242E+03  0.15180522920E+03  0.00000000000E+00 0.  1.
          1    1    1    2  501    0  0.35137247244E+02 -0.60246975024E+01  0.88350448402E+01  0.36728478613E+02  0.00000000000E+00 0. -1.
<scales pt_clust_5="13000.00000" pt_clust_6="13000.00000" pt_clust_7="13000.00000" pt_clust_8="13000.00000" pt_clust_9="35.65001"></scales>
<clustering>
<clus scale="   35.650">  1  9  2 -1</clus>
<clus scale="   87.476">  5  6 -1 -1</clus>
<clus scale="   90.923">  7  8 -1 -1</clus>
<clus scale="  119.710">  2  5  1 -1</clus>
<clus scale="   35.650">  1  5  2 -1</clus>
</clustering>
</event>
<event>
 9    1  0.1601012E-005  0.1677955E+03  0.7546771E-02  0.1181858E+00
         21   -1    0    0  501  502  0.00000000000E+00  0.00000000000E+00  0.14810334427E+03  0.14810334427E+03  0.00000000000E+00 0.  1.
          2   -1    0    0  502    0 -0.00000000000E+00 -0.00000000000E+00 -0.62514102935E+03  0.62514102935E+03  0.00000000000E+00 0. -1.
         23    2    1    2    0    0 -0.23578300320E+02  0.13088033711E+03 -0.32643530733E+03  0.36143027386E+03  0.79913916822E+02 0.  0.
         23    2    1    2    0    0  0.10364010148E+03 -0.17287835313E+03  0.16169500810E+02  0.22211279552E+03  0.91893664443E+02 0.  0.
        -13    1    3    3    0    0  0.20654249363E+02  0.54945318805E+02 -0.19240116125E+03  0.20115614067E+03  0.00000000000E+00 0. -1.
         13    1    3    3    0    0 -0.44232549683E+02  0.75935018309E+02 -0.13403414607E+03  0.16027413319E+03  0.00000000000E+00 0.  1.
        -13    1    4    4    0    0  0.10098634090E+03 -0.81788330743E+02  0.16406944432E+02  0.13098381549E+03  0.00000000000E+00 0.  1.
         13    1    4    4    0    0  0.26537605790E+01 -0.91090022385E+02 -0.23744362193E+00  0.91128980038E+02  0.00000000000E+00 0. -1.
          2    1    1    2  501    0 -0.80061801158E+02  0.41998016014E+02 -0.16677187856E+03  0.18970130424E+03  0.00000000000E+00 0. -1.
<scales pt_clust_5="13000.00000" pt_clust_6="13000.00000" pt_clust_7="13000.00000" pt_clust_8="13000.00000" pt_clust_9="90.40870"></scales>
<clustering>
<clus scale="   79.914">  5  6 -1 -1</clus>
<clus scale="   90.409">  1  9  2 -1</clus>
<clus scale="   91.894">  7  8 -1 -1</clus>
<clus scale="  161.546">  2  5  1 -1</clus>
<clus scale="   90.409">  1  5  2 -1</clus>
</clustering>
</event>
<event>
 9    1  0.1601012E-005  0.2965589E+03  0.7546771E-02  0.1087013E+00
          1   -1    0    0  502    0 -0.00000000000E+00  0.00000000000E+00  0.57808722615E+03  0.57808722615E+03  0.00000000000E+00 0. -1.
         21   -1    0    0  501  502  0.00000000000E+00 -0.00000000000E+00 -0.53504393156E+03  0.53504393156E+03  0.00000000000E+00 0.  1.
         23    2    1    2    0    0 -0.21941376767E+03 -0.18962617015E+03  0.38026934217E+03  0.48680898854E+03  0.90982047019E+02 0.  0.
         23    2    1    2    0    0  0.16836036103E+03  0.20318514899E+03  0.55478617387E+01  0.27950197203E+03  0.91984551209E+02 0.  0.
        -11    1    3    3    0    0 -0.15559529859E+03 -0.14755026946E+03  0.20984422352E+03  0.30002596072E+03  0.00000000000E+00 0. -1.
         11    1    3    3    0    0 -0.63818469081E+02 -0.42075900690E+02  0.17042511865E+03  0.18678302782E+03  0.00000000000E+00 0.  1.
        -13    1    4    4    0    0  0.23894132152E+01  0.42963741221E+02  0.21808214057E+02  0.48240963460E+02  0.00000000000E+00 0. -1.
         13    1    4    4    0    0  0.16597094781E+03  0.16022140777E+03 -0.16260352319E+02  0.23126100857E+03  0.00000000000E+00 0.  1.
          1    1    1    2  501    0  0.51053406638E+02 -0.13558978839E+02 -0.34277390932E+03  0.34682019715E+03  0.00000000000E+00 0. -1.
<scales pt_clust_5="13000.00000" pt_clust_6="13000.00000" pt_clust_7="13000.00000" pt_clust_8="13000.00000" pt_clust_9="52.82325"></scales>
<clustering>
<clus scale="   52.823">  2  9  1 -1</clus>
<clus scale="   90.982">  5  6 -1 -1</clus>
<clus scale="   91.985">  7  8 -1 -1</clus>
<clus scale="  296.249">  1  5  2 -1</clus>
<clus scale="   52.823">  2  5  1 -1</clus>
</clustering>
</event>
<event>
 9    1  0.1601012E-005  0.9978949E+02  0.7546771E-02  0.1284055E+00
          4   -1    0    0  502    0 -0.00000000000E+00  0.00000000000E+00  0.28727705173E+03  0.28727705173E+03  0.00000000000E+00 0. -1.
         21   -1    0    0  501  502  0.00000000000E+00 -0.00000000000E+00 -0.85768611355E+02  0.85768611355E+02  0.00000000000E+00 0.  1.
         23    2    1    2    0    0 -0.15525670618E+02 -0.61855468687E+01  0.20101809406E+03  0.22123894090E+03  0.90879521298E+02 0.  0.
         23    2    1    2    0    0  0.54378879252E+02  0.12773914388E+02  0.48620329739E+01  0.11215713138E+03  0.97135716174E+02 0.  0.
        -11    1    3    3    0    0 -0.23504853857E+02  0.29205959262E+02  0.16816960715E+03  0.17229765808E+03  0.00000000000E+00 0. -1.
         11    1    3    3    0    0  0.79791832389E+01 -0.35391506131E+02  0.32848486911E+02  0.48941282817E+02  0.00000000000E+00 0.  1.
        -13    1    4    4    0    0 -0.22412949357E+02  0.25348780111E+02  0.58384661603E+01  0.34336403992E+02  0.00000000000E+00 0. -1.
         13    1    4    4    0    0  0.76791828608E+02 -0.12574865723E+02 -0.97643318637E+00  0.77820727385E+02  0.00000000000E+00 0.  1.
          4    1    1    2  501    0 -0.38853208633E+02 -0.65883675188E+01 -0.43716866543E+01  0.39649590816E+02  0.00000000000E+00 0. -1.
<scales pt_clust_5="13000.00000" pt_clust_6="13000.00000" pt_clust_7="13000.00000" pt_clust_8="13000.00000" pt_clust_9="39.40785"></scales>
<clustering>
<clus scale="   39.408">  2  9  1 -1</clus>
<clus scale="   90.880">  5  6 -1 -1</clus>
<clus scale="   93.711">  1  5  2 -1</clus>
<clus scale="   97.136">  7  8 -1 -1</clus>
<clus scale="   39.408">  2  5  1 -1</clus>
</clustering>
</event>
<event>
 9    1  0.1601012E-005  0.1047246E+03  0.7546771E-02  0.1271684E+00
         21   -1    0    0  501  502  0.00000000000E+00  0.00000000000E+00  0.16950693555E+03  0.16950693555E+03  0.00000000000E+00 0. -1.
         -1   -1    0    0    0  501 -0.00000000000E+00 -0.00000000000E+00 -0.43104870145E+03  0.43104870145E+03  0.00000000000E+00 0.  1.
         23    2    1    2    0    0  0.17917733683E+02  0.39930477657E+02 -0.36498905548E+03  0.37950884020E+03  0.94310449826E+02 0.  0.
         23    2    1    2    0    0  0.25860144788E+02 -0.79813903598E+02  0.32652627962E+02  0.12874796462E+03  0.92037155460E+02 0.  0.
        -13    1    3    3    0    0  0.38244913516E+00  0.63054993606E+02 -0.31867354153E+03  0.32485212722E+03  0.00000000000E+00 0.  1.
         13    1    3    3    0    0  0.17535284548E+02 -0.23124515949E+02 -0.46315513947E+02  0.54656712984E+02  0.00000000000E+00 0. -1.
        -13    1    4    4    0    0 -0.32567945323E+02 -0.16756987399E+02  0.20370716951E+02  0.41909829377E+02  0.00000000000E+00 0. -1.
         13    1    4    4    0    0  0.58428090111E+02 -0.63056916199E+02  0.12281911011E+02  0.86838135244E+02  0.00000000000E+00 0.  1.
         -1    1    1    2    0  502 -0.43777878471E+02  0.39883425941E+02  0.70794661611E+02  0.92298832175E+02  0.00000000000E+00 0.  1.
<scales pt_clust_5="13000.00000" pt_clust_6="13000.00000" pt_clust_7="13000.00000" pt_clust_8="13000.00000" pt_clust_9="59.22154"></scales>
<clustering>
<clus scale="   59.222">  1  9  2 -1</clus>
<clus scale="   92.037">  7  8 -1 -1</clus>
<clus scale="   94.310">  5  6 -1 -1</clus>
<clus scale="  102.682">  1  7  2 -1</clus>
<clus scale="   59.222">  1  5  2 -1</clus>
</clustering>
</event>
<event>
 9    1  0.1601012E-005  0.1337222E+03  0.7546771E-02  0.1222614E+00
         21   -1    0    0  501  502  0.00000000000E+00  0.00000000000E+00  0.33872303920E+02  0.33872303920E+02  0.00000000000E+00 0.  1.
          1   -1    0    0  502    0 -0.00000000000E+00 -0.00000000000E+00 -0.72699344045E+03  0.72699344045E+03  0.00000000000E+00 0. -1.
         23    2    1    2    0    0 -0.99670135429E+02 -0.45402887838E+02 -0.44703933996E+03  0.46929076763E+03  0.91619293799E+02 0.  0.
         23    2    1    2    0    0  0.65584055224E+02  0.29617923449E+02 -0.17631414913E+03  0.21233767116E+03  0.93926129078E+02 0.  0.
        -11    1    4    4    0    0  0.86990053535E+02  0.31965508338E+02 -0.16149161834E+03  0.18619507493E+03  0.00000000000E+00 0.  1.
         11    1    4    4    0    0 -0.21405998311E+02 -0.23475848890E+01 -0.14822530791E+02  0.26142596228E+02  0.00000000000E+00 0. -1.
        -13    1    3    3    0    0  0.82416595334E+01 -0.31008911847E+02 -0.73225845869E+02  0.79946870289E+02  0.00000000000E+00 0.  1.
         13    1    3    3    0    0 -0.10791179496E+03 -0.14393975991E+02 -0.37381349409E+03  0.38934389734E+03  0.00000000000E+00 0. -1.
          1    1    1    2  501    0  0.34086080205E+02  0.15784964389E+02 -0.69767647443E+02  0.79237305571E+02  0.00000000000E+00 0. -1.
<scales pt_clust_5="13000.00000" pt_clust_6="13000.00000" pt_clust_7="13000.00000" pt_clust_8="13000.00000" pt_clust_9="37.56363"></scales>
<clustering>
<clus scale="   37.564">  1  9  2 -1</clus>
<clus scale="   91.619">  7  8 -1 -1</clus>
<clus scale="   93.926">  5  6 -1 -1</clus>
<clus scale="  132.112">  2  7  1 -1</clus>
<clus scale="   37.564">  1  5  2 -1</clus>
</clustering>
</event>
<event>
 9    1  0.1601012E-005  0.1044393E+03  0.7546771E-02  0.1277981E+00
         -4   -1    0    0    0  501 -0.00000000000E+00  0.00000000000E+00  0.54036159326E+03  0.54036159326E+03  0.00000000000E+00 0.  1.
         21   -1    0    0  501  502  0.00000000000E+00 -0.00000000000E+00 -0.52252030570E+02  0.52252030570E+02  0.00000000000E+00 0.  1.
         23    2    1    2    0    0  0.38212333872E+02  0.27333043605E+02  0.30773277753E+03  0.32699093635E+03  0.10008162847E+03 0.  0.
         23    2    1    2    0    0 -0.10079884091E+02 -0.96879301696E+01  0.20581768240E+03  0.22378939917E+03  0.86748583482E+02 0.  0.
        -11    1    3    3    0    0  0.71746335346E+02  0.92250864840E+01  0.19443166819E+03  0.20745195215E+03  0.00000000000E+00 0. -1.
         11    1    3    3    0    0 -0.33534001473E+02  0.18107957121E+02  0.11330110934E+03  0.11953898420E+03  0.00000000000E+00 0.  1.
        -13    1    4    4    0    0  0.13241663567E+02 -0.38767536378E+02  0.55883332510E+02  0.69290766941E+02  0.00000000000E+00 0. -1.
         13    1    4    4    0    0 -0.23321547658E+02  0.29079606208E+02  0.14993434989E+03  0.15449863222E+03  0.00000000000E+00 0.  1.
         -4    1    1    2    0  502 -0.28132449781E+02 -0.17645113436E+02 -0.25440897239E+02  0.41833288314E+02  0.00000000000E+00 0.  1.
<scales pt_clust_5="13000.00000" pt_clust_6="13000.00000" pt_clust_7="13000.00000" pt_clust_8="13000.00000" pt_clust_9="33.20820"></scales>
<clustering>
<clus scale="   33.208">  2  9  1 -1</clus>
<clus scale="   86.749">  7  8 -1 -1</clus>
<clus scale="   91.742">  2  7  1 -1</clus>
<clus scale="  100.082">  5  6 -1 -1</clus>
<clus scale="   33.208">  2  5  1 -1</clus>
</clustering>
</event>
<event>
 9    1  0.1601012E-005  0.2598951E+03  0.7546771E-02  0.1107256E+00
         21   -1    0    0  501  502  0.00000000000E+00  0.00000000000E+00  0.47062280198E+03  0.47062280198E+03  0.00000000000E+00 0. -1.
          1   -1    0    0  502    0 -0.00000000000E+00 -0.00000000000E+00 -0.39419193992E+03  0.39419193992E+03  0.00000000000E+00 0. -1.
         23    2    1    2    0    0 -0.12325312758E+03 -0.17274842953E+03 -0.13003026759E+03  0.26410356708E+03  0.88371207358E+02 0.  0.
         23    2    1    2    0    0  0.10688702857E+03  0.34387236713E+03  0.61995722501E+02  0.37616384110E+03  0.89346091079E+02 0.  0.
        -11    1    4    4    0    0  0.47680815378E+02  0.22406244162E+03  0.77021865970E+02  0.24168120683E+03  0.00000000000E+00 0. -1.
         11    1    4    4    0    0  0.59206213196E+02  0.11980992551E+03 -0.15026143469E+02  0.13448263427E+03  0.00000000000E+00 0.  1.
        -13    1    3    3    0    0 -0.12851267366E+03 -0.13418742821E+03 -0.12702149735E+03  0.22506939812E+03  0.00000000000E+00 0. -1.
         13    1    3    3    0    0  0.52595460811E+01 -0.38561001322E+02 -0.30087702419E+01  0.39034168959E+02  0.00000000000E+00 0.  1.
          1    1    1    2  501    0  0.16366099009E+02 -0.17112393760E+03  0.14446540715E+03  0.22454733372E+03  0.00000000000E+00 0. -1.
<scales pt_clust_5="13000.00000" pt_clust_6="13000.00000" pt_clust_7="13000.00000" pt_clust_8="13000.00000" pt_clust_9="171.90477"></scales>
<clustering>
<clus scale="   88.371">  7  8 -1 -1</clus>
<clus scale="   89.346">  5  6 -1 -1</clus>
<clus scale="  171.905">  1  9  2 -1</clus>
<clus scale="  259.562">  2  7  1 -1</clus>
<clus scale="  171.905">  1  5  2 -1</clus>
</clustering>
</event>
<event>
 9    1  0.1601012E-005  0.1056202E+03  0.7546771E-02  0.1268982E+00
         -1   -1    0    0    0  501 -0.00000000000E+00  0.00000000000E+00  0.40980765478E+03  0.40980765478E+03  0.00000000000E+00 0.  1.
         21   -1    0    0  501  502  0.00000000000E+00 -0.00000000000E+00 -0.92783881726E+02  0.92783881726E+02  0.00000000000E+00 0.  1.
         23    2    1    2    0    0  0.70037561483E+01  0.41217306170E+02  0.17214708466E+03  0.19938714388E+03  0.91502434178E+02 0.  0.
         23    2    1    2    0    0 -0.17511342020E+02 -0.61742141110E+02  0.20797175042E+03  0.23602801983E+03  0.91313953372E+02 0.  0.
        -11    1    3    3    0    0  0.43080320537E+02  0.32630365875E+02  0.14084703804E+03  0.15085934813E+03  0.00000000000E+00 0. -1.
         11    1    3    3    0    0 -0.36076564389E+02  0.85869402954E+01  0.31300046617E+02  0.48527795746E+02  0.00000000000E+00 0.  1.
        -13    1    4    4    0    0  0.90962587960E+01 -0.75674391205E+02  0.11206432685E+03  0.13552774166E+03  0.00000000000E+00 0.  1.
         13    1    4    4    0    0 -0.26607600816E+02  0.13932250095E+02  0.95907423576E+02  0.10050027816E+03  0.00000000000E+00 0. -1.
         -1    1    1    2    0  502  0.10507585872E+02  0.20524834940E+02 -0.63095062028E+02  0.67176372799E+02  0.00000000000E+00 0.  1.
<scales pt_clust_5="13000.00000" pt_clust_6="13000.00000" pt_clust_7="13000.00000" pt_clust_8="13000.00000" pt_clust_9="23.05815"></scales>
<clustering>
<clus scale="   23.058">  2  9  1 -1</clus>
<clus scale="   91.314">  7  8 -1 -1</clus>
<clus scale="   91.502">  5  6 -1 -1</clus>
<clus scale="  105.457">  2  7  1 -1</clus>
<clus scale="   23.058">  2  5  1 -1</clus>
</clustering>
</event>
<event>
 9    1  0.1601012E-005  0.1212507E+03  0.7546771E-02  0.1243817E+00
         21   -1    0    0  501  502  0.00000000000E+00  0.00000000000E+00  0.11576581689E+03  0.11576581689E+03  0.00000000000E+00 0.  1.
          1   -1    0    0  502    0 -0.00000000000E+00 -0.00000000000E+00 -0.40614166128E+03  0.40614166128E+03  0.00000000000E+00 0. -1.
         23    2    1    2    0    0 -0.80110596723E+01  0.71220745756E+02 -0.26228602089E+03  0.28685753566E+03  0.91415082490E+02 0.  0.
         23    2    1    2    0    0  0.78233848068E+02 -0.43439411600E+02 -0.67432209833E+02  0.14989792610E+03  0.99572927356E+02 0.  0.
        -13    1    4    4    0    0  0.37326353436E+02  0.12408654008E+02 -0.70359973902E+02  0.80608667540E+02  0.00000000000E+00 0. -1.
         13    1    4    4    0    0  0.40907494632E+02 -0.55848065608E+02  0.29277640688E+01  0.69289258559E+02  0.00000000000E+00 0.  1.
        -13    1    3    3    0    0 -0.40289506612E+02  0.62949640942E+02 -0.12547826600E+03  0.14605032309E+03  0.00000000000E+00 0. -1.
         13    1    3    3    0    0  0.32278446940E+02  0.82711048135E+01 -0.13680775489E+03  0.14080721257E+03  0.00000000000E+00 0.  1.
          1    1    1    2  501    0 -0.70222788395E+02 -0.27781334155E+02  0.39342386323E+02  0.85152016412E+02  0.00000000000E+00 0. -1.
<scales pt_clust_5="13000.00000" pt_clust_6="13000.00000" pt_clust_7="13000.00000" pt_clust_8="13000.00000" pt_clust_9="75.51849"></scales>
<clustering>
<clus scale="   75.518">  1  9  2 -1</clus>
<clus scale="   91.415">  7  8 -1 -1</clus>
<clus scale="   99.573">  5  6 -1 -1</clus>
<clus scale="  114.646">  2  7  1 -1</clus>
<clus scale="   75.518">  1  5  2 -1</clus>
</clustering>
</event>
<event>
 9    1  0.1601012E-005  0.1235161E+03  0.7546771E-02  0.1239079E+00
         21   -1    0    0  501  502  0.00000000000E+00  0.00000000000E+00  0.44453405941E+02  0.44453405941E+02  0.00000000000E+00 0.  1.
          3   -1    0    0  502    0 -0.00000000000E+00 -0.00000000000E+00 -0.82195213254E+03  0.82195213254E+03  0.00000000000E+00 0. -1.
         23    2    1    2    0    0 -0.39998400022E+02 -0.60350262411E+02 -0.59234892258E+03  0.60448293106E+03  0.96334530120E+02 0.  0.
         23    2    1    2    0    0  0.66563010276E+02  0.67709308147E+02 -0.19274774562E+03  0.23332955252E+03  0.90971434472E+02 0.  0.
        -11    1    3    3    0    0 -0.63958118389E+02 -0.67818095364E+02 -0.50789544520E+03  0.51637943242E+03  0.00000000000E+00 0. -1.
         11    1    3    3    0    0  0.23959718367E+02  0.74678329535E+01 -0.84453477374E+02  0.88103498646E+02  0.00000000000E+00 0.  1.
        -13    1    4    4    0    0  0.41057830868E+02  0.75052990228E+02 -0.78729095671E+02  0.11626249319E+03  0.00000000000E+00 0.  1.
         13    1    4    4    0    0  0.25505179408E+02 -0.73436820813E+01 -0.11401864995E+03  0.11706705933E+03  0.00000000000E+00 0. -1.
          3    1    1    2  501    0 -0.26564610254E+02 -0.73590457362E+01  0.75979415965E+01  0.28593054901E+02  0.00000000000E+00 0. -1.
<scales pt_clust_5="13000.00000" pt_clust_6="13000.00000" pt_clust_7="13000.00000" pt_clust_8="13000.00000" pt_clust_9="27.56509"></scales>
<clustering>
<clus scale="   27.565">  1  9  2 -1</clus>
<clus scale="   90.971">  7  8 -1 -1</clus>
<clus scale="   96.335">  5  6 -1 -1</clus>
<clus scale="  119.380">  1  7  2 -1</clus>
<clus scale="   27.565">  1  5  2 -1</clus>
</clustering>
</event>
<event>
 9    1  0.1601012E-005  0.9561354E+02  0.7546771E-02  0.1290441E+00
         21   -1    0    0  501  502  0.00000000000E+00  0.00000000000E+00  0.80153658646E+02  0.80153658646E+02  0.00000000000E+00 0. -1.
          2   -1    0    0  502    0 -0.00000000000E+00 -0.00000000000E+00 -0.38974903441E+03  0.38974903441E+03  0.00000000000E+00 0. -1.
         23    2    1    2    0    0 -0.84135631922E+01 -0.43410823968E+02 -0.23264917718E+03  0.25359373354E+03  0.90713033035E+02 0.  0.
         23    2    1    2    0    0 -0.21246421559E+02  0.10079469349E+02 -0.12184744831E+03  0.15300954307E+03  0.89510409893E+02 0.  0.
        -11    1    3    3    0    0  0.17064836038E+02 -0.48366083975E+02 -0.21765945237E+03  0.22362049082E+03  0.00000000000E+00 0.  1.
         11    1    3    3    0    0 -0.25478399230E+02  0.49552600078E+01 -0.14989724813E+02  0.29973242718E+02  0.00000000000E+00 0. -1.
        -13    1    4    4    0    0 -0.19068062629E+02  0.39888172635E+02 -0.11375603035E+03  0.12204544961E+03  0.00000000000E+00 0. -1.
         13    1    4    4    0    0 -0.21783589306E+01 -0.29808703287E+02 -0.80914179574E+01  0.30964093461E+02  0.00000000000E+00 0.  1.
          2    1    1    2  501    0  0.29659984752E+02  0.33331354619E+02  0.44901249727E+02  0.63299416452E+02  0.00000000000E+00 0. -1.
<scales pt_clust_5="13000.00000" pt_clust_6="13000.00000" pt_clust_7="13000.00000" pt_clust_8="13000.00000" pt_clust_9="44.61719"></scales>
<clustering>
<clus scale="   44.617">  1  9  2 -1</clus>
<clus scale="   89.510">  7  8 -1 -1</clus>
<clus scale="   90.713">  5  6 -1 -1</clus>
<clus scale="   94.473">  1  7  2 -1</clus>
<clus scale="   44.617">  1  5  2 -1</clus>
</clustering>
</event>
<event>
 9    1  0.1601012E-005  0.1262470E+03  0.7546771E-02  0.1233207E+00
         21   -1    0    0  501  502  0.00000000000E+00  0.00000000000E+00  0.40617413207E+03  0.40617413207E+03  0.00000000000E+00 0.  1.
          2   -1    0    0  502    0 -0.00000000000E+00 -0.00000000000E+00 -0.47366154653E+02  0.47366154653E+02  0.00000000000E+00 0. -1.
         23    2    1    2    0    0 -0.60754630216E+02  0.46444985491E+02  0.16091327192E+03  0.20006489103E+03  0.91019875685E+02 0.  0.
         23    2    1    2    0    0  0.71815878709E+02 -0.67565854763E+02  0.16361343058E+03  0.21171838256E+03  0.91283370232E+02 0.  0.
        -13    1    3    3    0    0 -0.72390874298E+02  0.64709203462E+02  0.12785266878E+03  0.16054290582E+03  0.00000000000E+00 0. -1.
         13    1    3    3    0    0  0.11636244083E+02 -0.18264217971E+02  0.33060603140E+02  0.39521985204E+02  0.00000000000E+00 0.  1.
        -13    1    4    4    0    0 -0.15266260380E+02 -0.30759887210E+02  0.73426892861E+02  0.81060088591E+02  0.00000000000E+00 0.  1.
         13    1    4    4    0    0  0.87082139089E+02 -0.36805967553E+02  0.90186537719E+02  0.13065829396E+03  0.00000000000E+00 0. -1.
          2    1    1    2  501    0 -0.11061248494E+02  0.21120869272E+02  0.34281274916E+02  0.41757013146E+02  0.00000000000E+00 0. -1.
<scales pt_clust_5="13000.00000" pt_clust_6="13000.00000" pt_clust_7="13000.00000" pt_clust_8="13000.00000" pt_clust_9="23.84203"></scales>
<clustering>
<clus scale="   23.842">  1  9  2 -1</clus>
<clus scale="   91.020">  5  6 -1 -1</clus>
<clus scale="   91.283">  7  8 -1 -1</clus>
<clus scale="  126.057">  2  5  1 -1</clus>
<clus scale="   23.842">  1  5  2 -1</clus>
</clustering>
</event>
<event>
 9    1  0.1601012E-005  0.3850381E+03  0.7546771E-02  0.1086090E+00
         21   -1    0    0  501  502  0.00000000000E+00  0.00000000000E+00  0.40217228539E+03  0.40217228539E+03  0.00000000000E+00 0. -1.
          2   -1    0    0  502    0 -0.00000000000E+00 -0.00000000000E+00 -0.70483640474E+03  0.70483640474E+03  0.00000000000E+00 0. -1.
         23    2    1    2    0    0 -0.53818547071E+02 -0.93403311913E+02 -0.23729387841E+03  0.27486680061E+03  0.87308411167E+02 0.  0.
         23    2    1    2    0    0  0.69892813231E+02  0.43787426251E+03 -0.15017261290E+03  0.47702210672E+03  0.91539071028E+02 0.  0.
        -13    1    3    3    0    0 -0.60463260184E+01 -0.66203045235E+02 -0.61084366924E+02  0.90281233594E+02  0.00000000000E+00 0.  1.
         13    1    3    3    0    0 -0.47772221053E+02 -0.27200266677E+02 -0.17620951149E+03  0.18458556702E+03  0.00000000000E+00 0. -1.
        -13    1    4    4    0    0  0.87226152402E+02  0.37017527216E+03 -0.10779724422E+03  0.39529530689E+03  0.00000000000E+00 0. -1.
         13    1    4    4    0    0 -0.17333339171E+02  0.67698990350E+02 -0.42375368673E+02  0.81726799836E+02  0.00000000000E+00 0.  1.
          2    1    1    2  501    0 -0.16074266160E+02 -0.34447095060E+03  0.84802371967E+02  0.35511978279E+03  0.00000000000E+00 0. -1.
<scales pt_clust_5="13000.00000" pt_clust_6="13000.00000" pt_clust_7="13000.00000" pt_clust_8="13000.00000" pt_clust_9="373.99862"></scales>
<clustering>
<clus scale="   87.308">  5  6 -1 -1</clus>
<clus scale="   91.539">  7  8 -1 -1</clus>
<clus scale="  138.720">  2  5  1 -1</clus>
<clus scale="  373.999">  1  9  2 -1</clus>
<clus scale="  373.999">  1  5  2 -1</clus>
</clustering>
</event>
<event>
 9    1  0.1601012E-005  0.1604374E+03  0.7546771E-02  0.1188771E+00
         -3   -1    0    0    0  501 -0.00000000000E+00  0.00000000000E+00  0.70381689702E+03  0.70381689702E+03  0.00000000000E+00 0.  1.
         21   -1    0    0  501  502  0.00000000000E+00 -0.00000000000E+00 -0.48095733651E+02  0.48095733651E+02  0.00000000000E+00 0.  1.
         23    2    1    2    0    0  0.72568183736E+01  0.13528634585E+03  0.29175484741E+03  0.33457235738E+03  0.91993013614E+02 0.  0.
         23    2    1    2    0    0 -0.48363940025E+02 -0.12151585135E+03  0.25323099951E+03  0.29842125766E+03  0.88454141140E+02 0.  0.
        -13    1    3    3    0    0  0.45219343641E+02  0.38215814868E+02  0.11600150190E+03  0.13023665378E+03  0.00000000000E+00 0. -1.
         13    1    3    3    0    0 -0.37962525267E+02  0.97070530979E+02  0.17575334551E+03  0.20433570361E+03  0.00000000000E+00 0.  1.
        -13    1    4    4    0    0 -0.15031054580E+01 -0.43474947113E+02  0.16862389834E+03  0.17414462221E+03  0.00000000000E+00 0.  1.
         13    1    4    4    0    0 -0.46860834567E+02 -0.78040904235E+02  0.84607101172E+02  0.12427663545E+03  0.00000000000E+00 0. -1.
         -3    1    1    2    0  502  0.41107121652E+02 -0.13770494499E+02  0.11073531645E+03  0.11891901563E+03  0.00000000000E+00 0.  1.
<scales pt_clust_5="13000.00000" pt_clust_6="13000.00000" pt_clust_7="13000.00000" pt_clust_8="13000.00000" pt_clust_9="43.35232"></scales>
<clustering>
<clus scale="   43.352">  2  9  1 -1</clus>
<clus scale="   88.454">  7  8 -1 -1</clus>
<clus scale="   91.993">  5  6 -1 -1</clus>
<clus scale="  158.435">  2  7  1 -1</clus>
<clus scale="   43.352">  2  5  1 -1</clus>
</clustering>
</event>
<event>
 9    1  0.1601012E-005  0.9626012E+02  0.7546771E-02  0.1288995E+00
         21   -1    0    0  501  502  0.00000000000E+00  0.00000000000E+00  0.45992713334E+02  0.45992713334E+02  0.00000000000E+00 0. -1.
         -1   -1    0    0    0  501 -0.00000000000E+00 -0.00000000000E+00 -0.27359413752E+03  0.27359413752E+03  0.00000000000E+00 0.  1.
         23    2    1    2    0    0 -0.27655416005E+02  0.74373214730E+01 -0.14012338680E+03  0.17126413856E+03  0.94216271660E+02 0.  0.
         23    2    1    2    0    0  0.74385616320E+01  0.88937913736E+01 -0.67498517065E+02  0.11554150304E+03  0.93055668254E+02 0.  0.
        -13    1    4    4    0    0 -0.84068189572E+01 -0.28894739280E+02  0.66547164796E+01  0.30819893161E+02  0.00000000000E+00 0. -1.
         13    1    4    4    0    0  0.15845380589E+02  0.37788530654E+02 -0.74153233545E+02  0.84721609877E+02  0.00000000000E+00 0.  1.
        -13    1    3    3    0    0  0.24269840052E+01 -0.30044741173E+02 -0.87672654590E+01  0.31391745207E+02  0.00000000000E+00 0. -1.
         13    1    3    3    0    0 -0.30082400010E+02  0.37482062646E+02 -0.13135612134E+03  0.13987239336E+03  0.00000000000E+00 0.  1.
         -1    1    1    2    0  502  0.20216854373E+02 -0.16331112847E+02 -0.19979520321E+02  0.32781209249E+02  0.00000000000E+00 0.  1.
<scales pt_clust_5="13000.00000" pt_clust_6="13000.00000" pt_clust_7="13000.00000" pt_clust_8="13000.00000" pt_clust_9="25.98897"></scales>
<clustering>
<clus scale="   25.989">  1  9  2 -1</clus>
<clus scale="   93.056">  5  6 -1 -1</clus>
<clus scale="   94.216">  7  8 -1 -1</clus>
<clus scale="   95.124">  1  5  2 -1</clus>
<clus scale="   25.989">  1  5  2 -1</clus>
</clustering>
</event>
<event>
 9    1  0.1601012E-005  0.1022997E+03  0.7546771E-02  0.1276631E+00
         21   -1    0    0  501  502  0.00000000000E+00  0.00000000000E+00  0.49284451113E+02  0.49284451113E+02  0.00000000000E+00 0. -1.
          2   -1    0    0  502    0 -0.00000000000E+00 -0.00000000000E+00 -0.80423527634E+03  0.80423527634E+03  0.00000000000E+00 0. -1.
         23    2    1    2    0    0 -0.56028345366E+02 -0.27510784579E+02 -0.44037211339E+03  0.45365474344E+03  0.89325300126E+02 0.  0.
         23    2    1    2    0    0 -0.16058295745E+02  0.51169682538E+02 -0.30551122049E+03  0.32345525505E+03  0.91706002556E+02 0.  0.
        -13    1    4    4    0    0 -0.44527613152E+02  0.61313707902E+02 -0.20834756621E+03  0.22169976874E+03  0.00000000000E+00 0.  1.
         13    1    4    4    0    0  0.28469317407E+02 -0.10144025364E+02 -0.97163654274E+02  0.10175548632E+03  0.00000000000E+00 0. -1.
        -13    1    3    3    0    0  0.14864955379E+02 -0.25014584838E+02 -0.59512890667E+02  0.66245607466E+02  0.00000000000E+00 0.  1.
         13    1    3    3    0    0 -0.70893300746E+02 -0.24961997416E+01 -0.38085922272E+03  0.38740913598E+03  0.00000000000E+00 0. -1.
          2    1    1    2  501    0  0.72086641112E+02 -0.23658897959E+02 -0.90674913436E+01  0.76409728953E+02  0.00000000000E+00 0. -1.
<scales pt_clust_5="13000.00000" pt_clust_6="13000.00000" pt_clust_7="13000.00000" pt_clust_8="13000.00000" pt_clust_9="75.86980"></scales>
<clustering>
<clus scale="   75.870">  1  9  2 -1</clus>
<clus scale="   89.325">  7  8 -1 -1</clus>
<clus scale="   91.706">  5  6 -1 -1</clus>
<clus scale="  100.171">  2  7  1 -1</clus>
<clus scale="   75.870">  1  5  2 -1</clus>
</clustering>
</event>
<event>
 9    1  0.1601012E-005  0.2423234E+03  0.7546771E-02  0.1118329E+00
          2   -1    0    0  502    0 -0.00000000000E+00  0.00000000000E+00  0.13963057077E+04  0.13963057077E+04  0.00000000000E+00 0. -1.
         21   -1    0    0  501  502  0.00000000000E+00 -0.00000000000E+00 -0.69475913384E+02  0.69475913384E+02  0.00000000000E+00 0. -1.
         23    2    1    2    0    0  0.19902798194E+03 -0.87680452764E+02  0.89075928375E+03  0.92141931039E+03  0.90892489109E+02 0.  0.
         23    2    1    2    0    0 -0.22986644877E+03  0.70503080904E+02  0.43900981514E+03  0.50894038736E+03  0.92094687225E+02 0.  0.
        -13    1    4    4    0    0 -0.12499989305E+03  0.34303683057E+02  0.32484739497E+03  0.34975355031E+03  0.00000000000E+00 0. -1.
         13    1    4    4    0    0 -0.10486655572E+03  0.36199397846E+02  0.11416242016E+03  0.15918683705E+03  0.00000000000E+00 0.  1.
        -13    1    3    3    0    0  0.97835801547E+02 -0.91492647472E+02  0.47730008821E+03  0.49573997500E+03  0.00000000000E+00 0.  1.
         13    1    3    3    0    0  0.10119218039E+03  0.38121947076E+01  0.41345919554E+03  0.42567933539E+03  0.00000000000E+00 0. -1.
          2    1    1    2  501    0  0.30838466827E+02  0.17177371861E+02 -0.29393045852E+01  0.35421923321E+02  0.00000000000E+00 0. -1.
<scales pt_clust_5="13000.00000" pt_clust_6="13000.00000" pt_clust_7="13000.00000" pt_clust_8="13000.00000" pt_clust_9="35.29976"></scales>
<clustering>
<clus scale="   35.300">  2  9  1 -1</clus>
<clus scale="   90.892">  7  8 -1 -1</clus>
<clus scale="   92.095">  5  6 -1 -1</clus>
<clus scale="  241.869">  1  7  2 -1</clus>
<clus scale="   35.300">  2  5  1 -1</clus>
</clustering>
</event>
<event>
 9    1  0.1601012E-005  0.1377300E+03  0.7546771E-02  0.1217689E+00
         21   -1    0    0  501  502  0.00000000000E+00  0.00000000000E+00  0.18612364216E+03  0.18612364216E+03  0.00000000000E+00 0. -1.
          2   -1    0    0  502    0 -0.00000000000E+00 -0.00000000000E+00 -0.31501782865E+03  0.31501782865E+03  0.00000000000E+00 0. -1.
         23    2    1    2    0    0  0.40637814596E+01 -0.97164124965E+02 -0.15798368513E+03  0.20721844158E+03  0.92321483219E+02 0.  0.
         23    2    1    2    0    0 -0.24427364302E+02  0.10811243498E+03 -0.93616823130E+02  0.16905757204E+03  0.86783399142E+02 0.  0.
        -11    1    4    4    0    0  0.25266630091E+02  0.78661715870E+02 -0.61200983890E+02  0.10281842524E+03  0.00000000000E+00 0. -1.
         11    1    4    4    0    0 -0.49693994393E+02  0.29450719105E+02 -0.32415839241E+02  0.66239146796E+02  0.00000000000E+00 0.  1.
        -11    1    3    3    0    0 -0.21784346503E+02 -0.10209841559E+03 -0.10503510351E+03  0.14809124616E+03  0.00000000000E+00 0.  1.
         11    1    3    3    0    0  0.25848127963E+02  0.49342906270E+01 -0.52948581613E+02  0.59127195418E+02  0.00000000000E+00 0. -1.
          2    1    1    2  501    0  0.20363582843E+02 -0.10948310010E+02  0.12270632177E+03  0.12486545720E+03  0.00000000000E+00 0. -1.
<scales pt_clust_5="13000.00000" pt_clust_6="13000.00000" pt_clust_7="13000.00000" pt_clust_8="13000.00000" pt_clust_9="23.12014"></scales>
<clustering>
<clus scale="   23.120">  1  9  2 -1</clus>
<clus scale="   86.783">  5  6 -1 -1</clus>
<clus scale="   92.321">  7  8 -1 -1</clus>
<clus scale="  134.081">  1  5  2 -1</clus>
<clus scale="   23.120">  1  5  2 -1</clus>
</clustering>
</event>
<event>
 9    1  0.1601012E-005  0.9775925E+02  0.7546771E-02  0.1286344E+00
         21   -1    0    0  501  502  0.00000000000E+00  0.00000000000E+00  0.31707253149E+03  0.31707253149E+03  0.00000000000E+00 0. -1.
          2   -1    0    0  502    0 -0.00000000000E+00 -0.00000000000E+00 -0.26815088080E+03  0.26815088080E+03  0.00000000000E+00 0. -1.
         23    2    1    2    0    0 -0.76672661402E+01  0.34894769413E+02 -0.23928370354E+03  0.25796387480E+03  0.89511105559E+02 0.  0.
         23    2    1    2    0    0  0.47166499274E+01  0.49027439503E+00  0.10083890715E+03  0.13655821880E+03  0.91962898883E+02 0.  0.
        -11    1    3    3    0    0 -0.26994952253E+02  0.21875572639E+00 -0.16431437161E+02  0.31603281924E+02  0.00000000000E+00 0.  1.
         11    1    3    3    0    0  0.19327686113E+02  0.34676013687E+02 -0.22285226638E+03  0.22636059287E+03  0.00000000000E+00 0. -1.
        -13    1    4    4    0    0  0.39031747762E+02 -0.19417329948E+02  0.23230587479E+02  0.49398079216E+02  0.00000000000E+00 0. -1.
         13    1    4    4    0    0 -0.34315097835E+02  0.19907604343E+02  0.77608319669E+02  0.87160139582E+02  0.00000000000E+00 0.  1.
          2    1    1    2  501    0  0.29506162128E+01 -0.35385043808E+02  0.18736644708E+03  0.19070131870E+03  0.00000000000E+00 0. -1.
<scales pt_clust_5="13000.00000" pt_clust_6="13000.00000" pt_clust_7="13000.00000" pt_clust_8="13000.00000" pt_clust_9="35.50785"></scales>
<clustering>
<clus scale="   35.508">  1  9  2 -1</clus>
<clus scale="   89.511">  5  6 -1 -1</clus>
<clus scale="   91.963">  7  8 -1 -1</clus>
<clus scale="   95.456">  2  5  1 -1</clus>
<clus scale="   35.508">  1  5  2 -1</clus>
</clustering>
</event>
<event>
 9    1  0.1601012E-005  0.1045350E+03  0.7546771E-02  0.1272794E+00
          2   -1    0    0  502    0 -0.00000000000E+00  0.00000000000E+00  0.20959933624E+03  0.20959933624E+03  0.00000000000E+00 0. -1.
         21   -1    0    0  501  502  0.00000000000E+00 -0.00000000000E+00 -0.14429627116E+03  0.14429627116E+03  0.00000000000E+00 0.  1.
         23    2    1    2    0    0  0.52582018943E+02  0.18486809889E+02  0.13629868717E+03  0.17257060407E+03  0.89981389225E+02 0.  0.
         23    2    1    2    0    0 -0.52370281837E+02  0.20725395046E+02 -0.29315562131E+01  0.10277337119E+03  0.85916141588E+02 0.  0.
        -11    1    4    4    0    0 -0.70238579747E+02  0.29688982605E+01 -0.19088269188E+02  0.72846650317E+02  0.00000000000E+00 0. -1.
         11    1    4    4    0    0  0.17868297911E+02  0.17756496786E+02  0.16156712975E+02  0.29926720878E+02  0.00000000000E+00 0.  1.
        -13    1    3    3    0    0  0.47972637095E+02 -0.25291909137E+02  0.42309409242E+02  0.68783287854E+02  0.00000000000E+00 0.  1.
         13    1    3    3    0    0  0.46093818476E+01  0.43778719026E+02  0.93989277931E+02  0.10378731621E+03  0.00000000000E+00 0. -1.
          2    1    1    2  501    0 -0.21173710595E+00 -0.39212204935E+02 -0.68064065872E+02  0.78551632138E+02  0.00000000000E+00 0. -1.
<scales pt_clust_5="13000.00000" pt_clust_6="13000.00000" pt_clust_7="13000.00000" pt_clust_8="13000.00000" pt_clust_9="39.21278"></scales>
<clustering>
<clus scale="   39.213">  2  9  1 -1</clus>
<clus scale="   85.916">  5  6 -1 -1</clus>
<clus scale="   89.981">  7  8 -1 -1</clus>
<clus scale="  101.057">  2  5  1 -1</clus>
<clus scale="   39.213">  2  5  1 -1</clus>
</clustering>
</event>
<event>
 9    1  0.1601012E-005  0.1657445E+03  0.7546771E-02  0.1183284E+00
         21   -1    0    0  501  502  0.00000000000E+00  0.00000000000E+00  0.27003615123E+03  0.27003615123E+03  0.00000000000E+00 0. -1.
          1   -1    0    0  502    0 -0.00000000000E+00 -0.00000000000E+00 -0.74063497915E+03  0.74063497915E+03  0.00000000000E+00 0. -1.
         23    2    1    2    0    0 -0.11694961854E+03  0.74305875937E+02 -0.64775677014E+03  0.66780044468E+03  0.84675995275E+02 0.  0.
         23    2    1    2    0    0  0.14874973250E+03 -0.21207977731E+02  0.23518170729E+02  0.17723308905E+03  0.91006605607E+02 0.  0.
        -11    1    3    3    0    0 -0.23578007486E+02  0.63024963999E+02 -0.30810796091E+03  0.31537055046E+03  0.00000000000E+00 0.  1.
         11    1    3    3    0    0 -0.93371611050E+02  0.11280911938E+02 -0.33964880923E+03  0.35242989421E+03  0.00000000000E+00 0. -1.
        -11    1    4    4    0    0  0.36328082259E+02  0.21170883116E+02  0.37420920480E+02  0.56287308891E+02  0.00000000000E+00 0.  1.
         11    1    4    4    0    0  0.11242165024E+03 -0.42378860847E+02 -0.13902749752E+02  0.12094578016E+03  0.00000000000E+00 0. -1.
          1    1    1    2  501    0 -0.31800113961E+02 -0.53097898206E+02  0.15363977148E+03  0.16563759665E+03  0.00000000000E+00 0. -1.
<scales pt_clust_5="13000.00000" pt_clust_6="13000.00000" pt_clust_7="13000.00000" pt_clust_8="13000.00000" pt_clust_9="61.89212"></scales>
<clustering>
<clus scale="   61.892">  1  9  2 -1</clus>
<clus scale="   84.676">  5  6 -1 -1</clus>
<clus scale="   91.007">  7  8 -1 -1</clus>
<clus scale="  162.355">  2  5  1 -1</clus>
<clus scale="   61.892">  1  5  2 -1</clus>
</clustering>
</event>
<event>
 9    1  0.1601012E-005  0.1480537E+03  0.7546771E-02  0.1203223E+00
         21   -1    0    0  501  502  0.00000000000E+00  0.00000000000E+00  0.79319040598E+02  0.79319040598E+02  0.00000000000E+00 0. -1.
          1   -1    0    0  502    0 -0.00000000000E+00 -0.00000000000E+00 -0.76277846306E+03  0.76277846306E+03  0.00000000000E+00 0. -1.
         23    2    1    2    0    0 -0.42267405521E+02  0.92248474862E+02 -0.30902265246E+03  0.33788916673E+03  0.91530183952E+02 0.  0.
         23    2    1    2    0    0  0.62907656871E+02 -0.11556536413E+03 -0.41990315215E+03  0.44910035923E+03  0.89776103695E+02 0.  0.
        -11    1    4    4    0    0  0.14647973648E+02  0.14204213578E+02 -0.43696493302E+02  0.48225577677E+02  0.00000000000E+00 0. -1.
         11    1    4    4    0    0  0.48259683223E+02 -0.12976957771E+03 -0.37620665885E+03  0.40087478155E+03  0.00000000000E+00 0.  1.
        -13    1    3    3    0    0 -0.13371285615E+02 -0.17341528999E+02 -0.34148076573E+02  0.40566131695E+02  0.00000000000E+00 0.  1.
         13    1    3    3    0    0 -0.28896119905E+02  0.10959000386E+03 -0.27487457589E+03  0.29732303503E+03  0.00000000000E+00 0. -1.
          1    1    1    2  501    0 -0.20640251350E+02  0.23316889269E+02  0.45466382146E+02  0.55107977702E+02  0.00000000000E+00 0. -1.
<scales pt_clust_5="13000.00000" pt_clust_6="13000.00000" pt_clust_7="13000.00000" pt_clust_8="13000.00000" pt_clust_9="31.13996"></scales>
<clustering>
<clus scale="   31.140">  1  9  2 -1</clus>
<clus scale="   89.776">  5  6 -1 -1</clus>
<clus scale="   91.530">  7  8 -1 -1</clus>
<clus scale="  146.976">  1  5  2 -1</clus>
<clus scale="   31.140">  1  5  2 -1</clus>
</clustering>
</event>
<event>
 9    1  0.1601012E-005  0.1441599E+03  0.7546771E-02  0.1210967E+00
         21   -1    0    0  501  502  0.00000000000E+00  0.00000000000E+00  0.23878846336E+03  0.23878846336E+03  0.00000000000E+00 0. -1.
         -1   -1    0    0    0  501 -0.00000000000E+00 -0.00000000000E+00 -0.13065484356E+03  0.13065484356E+03  0.00000000000E+00 0.  1.
         23    2    1    2    0    0  0.46507835589E+02 -0.92253078117E+02 -0.10692724453E+02  0.13839934684E+03  0.91468222113E+02 0.  0.
         23    2    1    2    0    0 -0.59423783616E+02  0.73265895432E+02  0.36533314244E+02  0.14560697976E+03  0.10472646280E+03 0.  0.
        -11    1    4    4    0    0  0.26702772945E+02  0.21788648825E+02  0.28902579759E+02  0.44979355457E+02  0.00000000000E+00 0.  1.
         11    1    4    4    0    0 -0.86126556560E+02  0.51477246607E+02  0.76307344854E+01  0.10062762430E+03  0.00000000000E+00 0. -1.
        -11    1    3    3    0    0  0.58234618738E+02 -0.15750320813E+02 -0.89189417889E+01  0.60982710237E+02  0.00000000000E+00 0.  1.
         11    1    3    3    0    0 -0.11726783149E+02 -0.76502757304E+02 -0.17737826637E+01  0.77416636604E+02  0.00000000000E+00 0. -1.
         -1    1    1    2    0  502  0.12915948027E+02  0.18987182684E+02  0.82293030005E+02  0.85436980325E+02  0.00000000000E+00 0.  1.
<scales pt_clust_5="13000.00000" pt_clust_6="13000.00000" pt_clust_7="13000.00000" pt_clust_8="13000.00000" pt_clust_9="22.96377"></scales>
<clustering>
<clus scale="   22.964">  1  9  2 -1</clus>
<clus scale="   91.468">  7  8 -1 -1</clus>
<clus scale="  104.726">  5  6 -1 -1</clus>
<clus scale="  134.837">  2  7  1 -1</clus>
<clus scale="   22.964">  1  5  2 -1</clus>
</clustering>
</event>
<event>
 9    1  0.1601012E-005  0.1597742E+03  0.7546771E-02  0.1189205E+00
         21   -1    0    0  501  502  0.00000000000E+00  0.00000000000E+00  0.68188379878E+02  0.68188379878E+02  0.00000000000E+00 0.  1.
          2   -1    0    0  502    0 -0.00000000000E+00 -0.00000000000E+00 -0.65640471366E+03  0.65640471366E+03  0.00000000000E+00 0. -1.
         23    2    1    2    0    0 -0.52941011153E+01  0.11925482933E+03 -0.35512057529E+03  0.38586638168E+03  0.92371530762E+02 0.  0.
         23    2    1    2    0    0  0.34083944222E+02 -0.16113163374E+03 -0.14683140784E+03  0.23860648409E+03  0.90821105896E+02 0.  0.
        -11    1    4    4    0    0  0.74454158599E+01 -0.49877650178E+02  0.25001488164E+01  0.50492226617E+02  0.00000000000E+00 0.  1.
         11    1    4    4    0    0  0.26638528362E+02 -0.11125398356E+03 -0.14933155665E+03  0.18811425747E+03  0.00000000000E+00 0. -1.
        -11    1    3    3    0    0  0.37184465897E+02  0.84405625853E+02 -0.26180228346E+03  0.27757418793E+03  0.00000000000E+00 0.  1.
         11    1    3    3    0    0 -0.42478567012E+02  0.34849203480E+02 -0.93318291829E+02  0.10829219376E+03  0.00000000000E+00 0. -1.
          2    1    1    2  501    0 -0.28789843107E+02  0.41876804406E+02 -0.86264350658E+02  0.10012022777E+03  0.00000000000E+00 0. -1.
<scales pt_clust_5="13000.00000" pt_clust_6="13000.00000" pt_clust_7="13000.00000" pt_clust_8="13000.00000" pt_clust_9="50.81854"></scales>
<clustering>
<clus scale="   50.819">  1  9  2 -1</clus>
<clus scale="   90.821">  5  6 -1 -1</clus>
<clus scale="   92.372">  7  8 -1 -1</clus>
<clus scale="  158.883">  1  5  2 -1</clus>
<clus scale="   50.819">  1  5  2 -1</clus>
</clustering>
</event>
<event>
 9    1  0.1601012E-005  0.1076986E+03  0.7546771E-02  0.1269726E+00
         21   -1    0    0  501  502  0.00000000000E+00  0.00000000000E+00  0.18646499479E+03  0.18646499479E+03  0.00000000000E+00 0.  1.
          2   -1    0    0  502    0 -0.00000000000E+00 -0.00000000000E+00 -0.12828616794E+03  0.12828616794E+03  0.00000000000E+00 0. -1.
         23    2    1    2    0    0  0.29594478751E+02  0.28882468396E+02 -0.76453622104E+02  0.12508247564E+03  0.89946868905E+02 0.  0.
         23    2    1    2    0    0 -0.26716436555E+02 -0.75060502241E+01  0.13169824074E+03  0.16790072993E+03  0.10037987710E+03 0.  0.
        -11    1    3    3    0    0  0.53143313322E+02  0.44943559085E+02 -0.61577312624E+02  0.92929546884E+02  0.00000000000E+00 0. -1.
         11    1    3    3    0    0 -0.23548834570E+02 -0.16061090689E+02 -0.14876309480E+02  0.32152928754E+02  0.00000000000E+00 0.  1.
        -11    1    4    4    0    0 -0.59893260878E+02 -0.23919084378E+02  0.64674059022E+02  0.91334873989E+02  0.00000000000E+00 0.  1.
         11    1    4    4    0    0  0.33176824323E+02  0.16413034154E+02  0.67024181714E+02  0.76565855946E+02  0.00000000000E+00 0. -1.
          2    1    1    2  501    0 -0.28780421966E+01 -0.21376418172E+02  0.29342082166E+01  0.21767957153E+02  0.00000000000E+00 0. -1.
<scales pt_clust_5="13000.00000" pt_clust_6="13000.00000" pt_clust_7="13000.00000" pt_clust_8="13000.00000" pt_clust_9="21.56930"></scales>
<clustering>
<clus scale="   21.569">  1  9  2 -1</clus>
<clus scale="   89.947">  5  6 -1 -1</clus>
<clus scale="   98.048">  2  5  1 -1</clus>
<clus scale="  100.380">  7  8 -1 -1</clus>
<clus scale="   21.569">  1  5  2 -1</clus>
</clustering>
</event>
<event>
 9    1  0.1601012E-005  0.1598066E+03  0.7546771E-02  0.1189183E+00
         21   -1    0    0  501  502  0.00000000000E+00  0.00000000000E+00  0.93254876485E+02  0.93254876485E+02  0.00000000000E+00 0.  1.
         -3   -1    0    0    0  501 -0.00000000000E+00 -0.00000000000E+00 -0.74920647659E+03  0.74920647659E+03  0.00000000000E+00 0.  1.
         23    2    1    2    0    0  0.11301893455E+03 -0.15805039489E+02 -0.36008775996E+03  0.38883386669E+03  0.92225279454E+02 0.  0.
         23    2    1    2    0    0 -0.15364565986E+03 -0.73623147522E+00 -0.34414626737E+03  0.38839454046E+03  0.93841008520E+02 0.  0.
        -13    1    4    4    0    0 -0.30591329596E+02 -0.10105348605E+02 -0.18091764191E+03  0.18376381764E+03  0.00000000000E+00 0.  1.
         13    1    4    4    0    0 -0.12305433027E+03  0.93691171302E+01 -0.16322862546E+03  0.20463072282E+03  0.00000000000E+00 0. -1.
        -13    1    3    3    0    0  0.61297719512E+02  0.35218406348E+02 -0.21917188825E+03  0.23029125724E+03  0.00000000000E+00 0. -1.
         13    1    3    3    0    0  0.51721215039E+02 -0.51023445836E+02 -0.14091587171E+03  0.15854260944E+03  0.00000000000E+00 0.  1.
         -3    1    1    2    0  502  0.40626725312E+02  0.16541270964E+02  0.48282427231E+02  0.65232945924E+02  0.00000000000E+00 0.  1.
<scales pt_clust_5="13000.00000" pt_clust_6="13000.00000" pt_clust_7="13000.00000" pt_clust_8="13000.00000" pt_clust_9="43.86507"></scales>
<clustering>
<clus scale="   43.865">  1  9  2 -1</clus>
<clus scale="   92.225">  7  8 -1 -1</clus>
<clus scale="   93.841">  5  6 -1 -1</clus>
<clus scale="  158.863">  2  7  1 -1</clus>
<clus scale="   43.865">  1  5  2 -1</clus>
</clustering>
</event>
<event>
 9    1  0.1601012E-005  0.1040183E+03  0.7546771E-02  0.1273366E+00
         21   -1    0    0  501  502  0.00000000000E+00  0.00000000000E+00  0.48838119607E+02  0.48838119607E+02  0.00000000000E+00 0.  1.
          1   -1    0    0  502    0 -0.00000000000E+00 -0.00000000000E+00 -0.49419276450E+03  0.49419276450E+03  0.00000000000E+00 0. -1.
         23    2    1    2    0    0  0.32567359156E+02 -0.29614066338E+02 -0.36295054521E+03  0.37630014421E+03  0.89056580111E+02 0.  0.
         23    2    1    2    0    0 -0.57002933545E+02  0.43733676052E+02 -0.67164445412E+02  0.13465726586E+03  0.91975799357E+02 0.  0.
        -13    1    4    4    0    0 -0.34009955327E+02  0.72349642332E+02 -0.44052067863E+02  0.91278324316E+02  0.00000000000E+00 0.  1.
         13    1    4    4    0    0 -0.22992978218E+02 -0.28615966280E+02 -0.23112377548E+02  0.43378941543E+02  0.00000000000E+00 0. -1.
        -13    1    3    3    0    0 -0.23211451553E+02  0.32940927707E+00 -0.33097516021E+02  0.40426792607E+02  0.00000000000E+00 0.  1.
         13    1    3    3    0    0  0.55778810709E+02 -0.29943475615E+02 -0.32985302919E+03  0.33587335161E+03  0.00000000000E+00 0. -1.
          1    1    1    2  501    0  0.24435574389E+02 -0.14119609714E+02 -0.15239654270E+02  0.32073474032E+02  0.00000000000E+00 0. -1.
<scales pt_clust_5="13000.00000" pt_clust_6="13000.00000" pt_clust_7="13000.00000" pt_clust_8="13000.00000" pt_clust_9="28.22163"></scales>
<clustering>
<clus scale="   28.222">  1  9  2 -1</clus>
<clus scale="   89.057">  7  8 -1 -1</clus>
<clus scale="   91.976">  5  6 -1 -1</clus>
<clus scale="  101.446">  2  7  1 -1</clus>
<clus scale="   28.222">  1  5  2 -1</clus>
</clustering>
</event>
<event>
 9    1  0.1601012E-005  0.1566245E+03  0.7546771E-02  0.1192575E+00
         21   -1    0    0  501  502  0.00000000000E+00  0.00000000000E+00  0.16676363897E+03  0.16676363897E+03  0.00000000000E+00 0.  1.
         -1   -1    0    0    0  501 -0.00000000000E+00 -0.00000000000E+00 -0.32720296228E+03  0.32720296228E+03  0.00000000000E+00 0.  1.
         23    2    1    2    0    0  0.34051485665E+02 -0.10939858188E+03 -0.18834506210E+03  0.23948585988E+03  0.93552451980E+02 0.  0.
         23    2    1    2    0    0 -0.63550262679E+02  0.15128244064E+03 -0.12351552809E+02  0.18932642458E+03  0.93631839963E+02 0.  0.
        -11    1    4    4    0    0 -0.10504774452E+01  0.49904205255E+02 -0.43516166829E+02  0.66220766988E+02  0.00000000000E+00 0. -1.
         11    1    4    4    0    0 -0.62499785234E+02  0.10137823538E+03  0.31164614020E+02  0.12310565759E+03  0.00000000000E+00 0.  1.
        -11    1    3    3    0    0  0.59166444198E+02 -0.33706147481E+02 -0.90517018241E+02  0.11327004497E+03  0.00000000000E+00 0. -1.
         11    1    3    3    0    0 -0.25114958533E+02 -0.75692434394E+02 -0.97828043863E+02  0.12621581491E+03  0.00000000000E+00 0.  1.
         -1    1    1    2    0  502  0.29498777015E+02 -0.41883858762E+02  0.40257291604E+02  0.65154316798E+02  0.00000000000E+00 0.  1.
<scales pt_clust_5="13000.00000" pt_clust_6="13000.00000" pt_clust_7="13000.00000" pt_clust_8="13000.00000" pt_clust_9="51.22924"></scales>
<clustering>
<clus scale="   51.229">  1  9  2 -1</clus>
<clus scale="   93.552">  7  8 -1 -1</clus>
<clus scale="   93.632">  5  6 -1 -1</clus>
<clus scale="  156.577">  2  7  1 -1</clus>
<clus scale="   51.229">  1  5  2 -1</clus>
</clustering>
</event>
<event>
 9    1  0.1601012E-005  0.9675700E+02  0.7546771E-02  0.1296557E+00
          1   -1    0    0  502    0 -0.00000000000E+00  0.00000000000E+00  0.46679181205E+03  0.46679181205E+03  0.00000000000E+00 0. -1.
         21   -1    0    0  501  502  0.00000000000E+00 -0.00000000000E+00 -0.92704807479E+02  0.92704807479E+02  0.00000000000E+00 0. -1.
         23    2    1    2    0    0 -0.46979461785E+02 -0.74915606919E+01  0.23628476010E+03  0.25228127837E+03  0.74512832805E+02 0.  0.
         23    2    1    2    0    0  0.11749834764E+02  0.12303665779E+02  0.20845378210E+03  0.22812094980E+03  0.91086495457E+02 0.  0.
        -11    1    3    3    0    0 -0.15687426573E+02  0.29041192800E+02  0.50195755531E+02  0.60075786345E+02  0.00000000000E+00 0.  1.
         11    1    3    3    0    0 -0.31292035212E+02 -0.36532753492E+02  0.18608900457E+03  0.19220549203E+03  0.00000000000E+00 0. -1.
        -11    1    4    4    0    0 -0.96250051523E+01 -0.31457505095E+02  0.35318085463E+02  0.48265748847E+02  0.00000000000E+00 0. -1.
         11    1    4    4    0    0  0.21374839917E+02  0.43761170874E+02  0.17313569664E+03  0.17985520095E+03  0.00000000000E+00 0.  1.
          1    1    1    2  501    0  0.35229627020E+02 -0.48121050870E+01 -0.70651537628E+02  0.79094391360E+02  0.00000000000E+00 0. -1.
<scales pt_clust_5="13000.00000" pt_clust_6="13000.00000" pt_clust_7="13000.00000" pt_clust_8="13000.00000" pt_clust_9="35.55676"></scales>
<clustering>
<clus scale="   35.557">  2  9  1 -1</clus>
<clus scale="   74.513">  5  6 -1 -1</clus>
<clus scale="   81.347">  1  5  2 -1</clus>
<clus scale="   91.086">  7  8 -1 -1</clus>
<clus scale="   35.557">  2  5  1 -1</clus>
</clustering>
</event>
<event>
 9    1  0.1601012E-005  0.9391290E+02  0.7546771E-02  0.1294883E+00
         21   -1    0    0  501  502  0.00000000000E+00  0.00000000000E+00  0.37429986620E+02  0.37429986620E+02  0.00000000000E+00 0.  1.
          3   -1    0    0  502    0 -0.00000000000E+00 -0.00000000000E+00 -0.30362239555E+03  0.30362239555E+03  0.00000000000E+00 0. -1.
         23    2    1    2    0    0 -0.31877311112E+02  0.23073788269E+02 -0.13923426559E+03  0.17015178658E+03  0.89537071055E+02 0.  0.
         23    2    1    2    0    0  0.17897351537E+02 -0.21457946054E+01 -0.10200402227E+03  0.13545869458E+03  0.87288703468E+02 0.  0.
        -11    1    4    4    0    0  0.71054088890E+01 -0.35305204277E+02 -0.10465382375E+02  0.37502913391E+02  0.00000000000E+00 0.  1.
         11    1    4    4    0    0  0.10791942648E+02  0.33159409672E+02 -0.91538639891E+02  0.97955781192E+02  0.00000000000E+00 0. -1.
        -11    1    3    3    0    0 -0.25636453683E+02  0.44129612360E+02 -0.13912478930E+03  0.14819027446E+03  0.00000000000E+00 0. -1.
         11    1    3    3    0    0 -0.62408574290E+01 -0.21055824091E+02 -0.10947628266E+00  0.21961512121E+02  0.00000000000E+00 0.  1.
          3    1    1    2  501    0  0.13979959575E+02 -0.20927993664E+02 -0.24954121083E+02  0.35441901015E+02  0.00000000000E+00 0. -1.
<scales pt_clust_5="13000.00000" pt_clust_6="13000.00000" pt_clust_7="13000.00000" pt_clust_8="13000.00000" pt_clust_9="25.16784"></scales>
<clustering>
<clus scale="   25.168">  1  9  2 -1</clus>
<clus scale="   87.289">  5  6 -1 -1</clus>
<clus scale="   89.537">  7  8 -1 -1</clus>
<clus scale="   91.772">  1  5  2 -1</clus>
<clus scale="   25.168">  1  5  2 -1</clus>
</clustering>
</event>
<event>
 9    1  0.1601012E-005  0.1403644E+03  0.7546771E-02  0.1213058E+00
         -1   -1    0    0    0  501 -0.00000000000E+00  0.00000000000E+00  0.58611255314E+03  0.58611255314E+03  0.00000000000E+00 0.  1.
         21   -1    0    0  501  502  0.00000000000E+00 -0.00000000000E+00 -0.70198060889E+02  0.70198060889E+02  0.00000000000E+00 0.  1.
         23    2    1    2    0    0  0.24580646927E+02 -0.97197590893E+02  0.35440862884E+03  0.37949622311E+03  0.91434825331E+02 0.  0.
         23    2    1    2    0    0 -0.63295328532E+02  0.11535889076E+03  0.69148895790E+02  0.17503782754E+03  0.92426722262E+02 0.  0.
        -11    1    4    4    0    0 -0.70016500576E+02  0.49777798351E+02  0.10036198408E+02  0.86491992924E+02  0.00000000000E+00 0.  1.
         11    1    4    4    0    0  0.67211720440E+01  0.65581092412E+02  0.59112697382E+02  0.88545834613E+02  0.00000000000E+00 0. -1.
        -11    1    3    3    0    0 -0.28931946988E+02 -0.57575515090E+02  0.22384051701E+03  0.23293040710E+03  0.00000000000E+00 0. -1.
         11    1    3    3    0    0  0.53512593915E+02 -0.39622075803E+02  0.13056811183E+03  0.14656581602E+03  0.00000000000E+00 0.  1.
         -1    1    1    2    0  502  0.38714681605E+02 -0.18161299869E+02  0.92356967625E+02  0.10177656338E+03  0.00000000000E+00 0.  1.
<scales pt_clust_5="13000.00000" pt_clust_6="13000.00000" pt_clust_7="13000.00000" pt_clust_8="13000.00000" pt_clust_9="42.76285"></scales>
<clustering>
<clus scale="   42.763">  2  9  1 -1</clus>
<clus scale="   91.435">  7  8 -1 -1</clus>
<clus scale="   92.427">  5  6 -1 -1</clus>
<clus scale="  139.713">  1  7  2 -1</clus>
<clus scale="   42.763">  2  5  1 -1</clus>
</clustering>
</event>
<event>
 9    1  0.1601012E-005  0.9526154E+02  0.7546771E-02  0.1291846E+00
          2   -1    0    0  502    0 -0.00000000000E+00  0.00000000000E+00  0.22660788978E+03  0.22660788978E+03  0.00000000000E+00 0. -1.
         21   -1    0    0  501  502  0.00000000000E+00 -0.00000000000E+00 -0.60907465236E+02  0.60907465236E+02  0.00000000000E+00 0. -1.
         23    2    1    2    0    0  0.15636309237E+02 -0.19921042585E+02  0.12798720894E+03  0.16062576479E+03  0.93694015590E+02 0.  0.
         23    2    1    2    0    0  0.62214688730E+01  0.28312187172E+01  0.19642597004E+02  0.93778084670E+02  0.91442742046E+02 0.  0.
        -11    1    3    3    0    0  0.37116229614E+02 -0.47418480108E+02  0.95805093952E+02  0.11315804339E+03  0.00000000000E+00 0. -1.
         11    1    3    3    0    0 -0.21479920377E+02  0.27497437523E+02  0.32182114991E+02  0.47467721401E+02  0.00000000000E+00 0.  1.
        -13    1    4    4    0    0  0.43614441584E+02  0.27426211331E+01  0.32255205165E+02  0.54315188903E+02  0.00000000000E+00 0. -1.
         13    1    4    4    0    0 -0.37392972711E+02  0.88597584088E-01 -0.12612608160E+02  0.39462895767E+02  0.00000000000E+00 0.  1.
          2    1    1    2  501    0 -0.21857778110E+02  0.17089823868E+02  0.18070618598E+02  0.33111505557E+02  0.00000000000E+00 0. -1.
<scales pt_clust_5="13000.00000" pt_clust_6="13000.00000" pt_clust_7="13000.00000" pt_clust_8="13000.00000" pt_clust_9="27.74571"></scales>
<clustering>
<clus scale="   27.746">  2  9  1 -1</clus>
<clus scale="   91.443">  7  8 -1 -1</clus>
<clus scale="   93.048">  2  7  1 -1</clus>
<clus scale="   93.694">  5  6 -1 -1</clus>
<clus scale="   27.746">  2  5  1 -1</clus>
</clustering>
</event>
<event>
 9    1  0.1601012E-005  0.1766311E+03  0.7546771E-02  0.1171412E+00
         21   -1    0    0  501  502  0.00000000000E+00  0.00000000000E+00  0.34024891663E+03  0.34024891663E+03  0.00000000000E+00 0. -1.
         -1   -1    0    0    0  501 -0.00000000000E+00 -0.00000000000E+00 -0.24894144081E+03  0.24894144081E+03  0.00000000000E+00 0.  1.
         23    2    1    2    0    0  0.41386211032E+02 -0.15037340989E+03 -0.17707133466E+03  0.25263636781E+03  0.90254617127E+02 0.  0.
         23    2    1    2    0    0 -0.13383911174E+02  0.13082794349E+03  0.16886574283E+03  0.23134465217E+03  0.87804493675E+02 0.  0.
        -11    1    3    3    0    0  0.61274485358E+02 -0.55345021338E+02 -0.71678859881E+02  0.10934117658E+03  0.00000000000E+00 0.  1.
         11    1    3    3    0    0 -0.19888274326E+02 -0.95028388554E+02 -0.10539247478E+03  0.14329519122E+03  0.00000000000E+00 0. -1.
        -13    1    4    4    0    0  0.34634426659E+02  0.33328021652E+02  0.38264098192E+02  0.61436485476E+02  0.00000000000E+00 0.  1.
         13    1    4    4    0    0 -0.48018337833E+02  0.97499921834E+02  0.13060164464E+03  0.16990816669E+03  0.00000000000E+00 0. -1.
         -1    1    1    2    0  502 -0.28002299858E+02  0.19545466405E+02  0.99513067659E+02  0.10520933746E+03  0.00000000000E+00 0.  1.
<scales pt_clust_5="13000.00000" pt_clust_6="13000.00000" pt_clust_7="13000.00000" pt_clust_8="13000.00000" pt_clust_9="34.14900"></scales>
<clustering>
<clus scale="   34.149">  1  9  2 -1</clus>
<clus scale="   87.804">  7  8 -1 -1</clus>
<clus scale="   90.255">  5  6 -1 -1</clus>
<clus scale="  175.392">  1  7  2 -1</clus>
<clus scale="   34.149">  1  5  2 -1</clus>
</clustering>
</event>
<event>
 9    1  0.1601012E-005  0.1202741E+03  0.7546771E-02  0.1245499E+00
         21   -1    0    0  501  502  0.00000000000E+00  0.00000000000E+00  0.17463807704E+03  0.17463807704E+03  0.00000000000E+00 0. -1.
          2   -1    0    0  502    0 -0.00000000000E+00 -0.00000000000E+00 -0.22762730375E+03  0.22762730375E+03  0.00000000000E+00 0. -1.
         23    2    1    2    0    0 -0.52911751170E+02 -0.70082212297E+02 -0.14140241439E+03  0.18560161234E+03  0.82110570686E+02 0.  0.
         23    2    1    2    0    0  0.37854143869E+02  0.44499471759E+02 -0.14765312151E+02  0.10929985004E+03  0.91188286421E+02 0.  0.
        -13    1    4    4    0    0  0.62767942827E+02  0.15162620464E+02 -0.25368370611E+02  0.69377762529E+02  0.00000000000E+00 0.  1.
         13    1    4    4    0    0 -0.24913798957E+02  0.29336851295E+02  0.10603058460E+02  0.39922087509E+02  0.00000000000E+00 0. -1.
        -13    1    3    3    0    0 -0.29949650873E+02  0.44564042971E+01 -0.84100397272E+01  0.31425624813E+02  0.00000000000E+00 0.  1.
         13    1    3    3    0    0 -0.22962100297E+02 -0.74538616594E+02 -0.13299237466E+03  0.15417598753E+03  0.00000000000E+00 0. -1.
          2    1    1    2  501    0  0.15057607301E+02  0.25582740538E+02  0.10317849982E+03  0.10736391841E+03  0.00000000000E+00 0. -1.
<scales pt_clust_5="13000.00000" pt_clust_6="13000.00000" pt_clust_7="13000.00000" pt_clust_8="13000.00000" pt_clust_9="29.68515"></scales>
<clustering>
<clus scale="   29.685">  1  9  2 -1</clus>
<clus scale="   82.111">  7  8 -1 -1</clus>
<clus scale="   91.188">  5  6 -1 -1</clus>
<clus scale="  113.546">  2  7  1 -1</clus>
<clus scale="   29.685">  1  5  2 -1</clus>
</clustering>
</event>
<event>
 9    1  0.1601012E-005  0.9600920E+02  0.7546771E-02  0.1289367E+00
          1   -1    0    0  502    0 -0.00000000000E+00  0.00000000000E+00  0.60715968675E+02  0.60715968675E+02  0.00000000000E+00 0. -1.
         21   -1    0    0  501  502  0.00000000000E+00 -0.00000000000E+00 -0.19310548916E+03  0.19310548916E+03  0.00000000000E+00 0.  1.
         23    2    1    2    0    0 -0.23715866291E+02 -0.12349110877E+02 -0.58020553825E+02  0.11171818173E+03  0.91649465951E+02 0.  0.
         23    2    1    2    0    0  0.11772707090E+02  0.32787455661E+02 -0.62618885154E+02  0.11567546112E+03  0.90807894192E+02 0.  0.
        -13    1    4    4    0    0 -0.12667407805E+02  0.25076740639E+02 -0.79946773813E+02  0.84739558558E+02  0.00000000000E+00 0.  1.
         13    1    4    4    0    0  0.24440114895E+02  0.77107150229E+01  0.17327888659E+02  0.30935902567E+02  0.00000000000E+00 0. -1.
        -13    1    3    3    0    0 -0.27467455654E+02  0.32498760800E+02 -0.50587614630E+02  0.66103988742E+02  0.00000000000E+00 0. -1.
         13    1    3    3    0    0  0.37515893634E+01 -0.44847871677E+02 -0.74329391956E+01  0.45614192986E+02  0.00000000000E+00 0.  1.
          1    1    1    2  501    0  0.11943159200E+02 -0.20438344785E+02 -0.11750081503E+02  0.26427814979E+02  0.00000000000E+00 0. -1.
<scales pt_clust_5="13000.00000" pt_clust_6="13000.00000" pt_clust_7="13000.00000" pt_clust_8="13000.00000" pt_clust_9="23.67204"></scales>
<clustering>
<clus scale="   23.672">  2  9  1 -1</clus>
<clus scale="   90.808">  5  6 -1 -1</clus>
<clus scale="   91.649">  7  8 -1 -1</clus>
<clus scale="   95.206">  2  5  1 -1</clus>
<clus scale="   23.672">  2  5  1 -1</clus>
</clustering>
</event>
<event>
 9    1  0.1601012E-005  0.1097369E+03  0.7546771E-02  0.1261829E+00
          3   -1    0    0  502    0 -0.00000000000E+00  0.00000000000E+00  0.43513379096E+03  0.43513379096E+03  0.00000000000E+00 0. -1.
         21   -1    0    0  501  502  0.00000000000E+00 -0.00000000000E+00 -0.81883153805E+02  0.81883153805E+02  0.00000000000E+00 0.  1.
         23    2    1    2    0    0  0.45630275845E+02  0.47866373657E+02  0.25433047441E+03  0.27841977606E+03  0.91979724308E+02 0.  0.
         23    2    1    2    0    0 -0.69011584748E+01 -0.48977469818E+02  0.14416963150E+03  0.17902625726E+03  0.93910061243E+02 0.  0.
        -11    1    4    4    0    0  0.38129050309E+02 -0.45892889509E+02  0.67794371498E+02  0.90310899629E+02  0.00000000000E+00 0.  1.
         11    1    4    4    0    0 -0.45030208784E+02 -0.30845803082E+01  0.76375260003E+02  0.88715357630E+02  0.00000000000E+00 0. -1.
        -11    1    3    3    0    0  0.58038357070E+02  0.24224539200E+02  0.24002752366E+03  0.24812998873E+03  0.00000000000E+00 0. -1.
         11    1    3    3    0    0 -0.12408081225E+02  0.23641834457E+02  0.14302950748E+02  0.30289787327E+02  0.00000000000E+00 0.  1.
          3    1    1    2  501    0 -0.38729117370E+02  0.11110961602E+01 -0.45249468763E+02  0.59570911444E+02  0.00000000000E+00 0. -1.
<scales pt_clust_5="13000.00000" pt_clust_6="13000.00000" pt_clust_7="13000.00000" pt_clust_8="13000.00000" pt_clust_9="38.74505"></scales>
<clustering>
<clus scale="   38.745">  2  9  1 -1</clus>
<clus scale="   91.980">  7  8 -1 -1</clus>
<clus scale="   93.910">  5  6 -1 -1</clus>
<clus scale="  108.090">  1  7  2 -1</clus>
<clus scale="   38.745">  2  5  1 -1</clus>
</clustering>
</event>
<event>
 9    1  0.1601012E-005  0.9758473E+02  0.7546771E-02  0.1286198E+00
         -1   -1    0    0    0  501 -0.00000000000E+00  0.00000000000E+00  0.23431514118E+02  0.23431514118E+02  0.00000000000E+00 0.  1.
         21   -1    0    0  501  502  0.00000000000E+00 -0.00000000000E+00 -0.55754110309E+03  0.55754110309E+03  0.00000000000E+00 0. -1.
         23    2    1    2    0    0 -0.18011483075E+02  0.33318422126E+02 -0.16453541625E+03  0.19235397752E+03  0.92160830577E+02 0.  0.
         23    2    1    2    0    0  0.24567928619E+02 -0.95466229117E+01 -0.31185000082E+03  0.32584790257E+03  0.90728779741E+02 0.  0.
        -11    1    3    3    0    0 -0.27993613590E+02 -0.26761771983E+02 -0.62727710543E+02  0.73719743024E+02  0.00000000000E+00 0.  1.
         11    1    3    3    0    0  0.99821305146E+01  0.60080194109E+02 -0.10180770571E+03  0.11863423450E+03  0.00000000000E+00 0. -1.
        -13    1    4    4    0    0  0.13116897717E+01 -0.44251573931E+02 -0.92417486672E+02  0.10247396825E+03  0.00000000000E+00 0.  1.
         13    1    4    4    0    0  0.23256238848E+02  0.34704951019E+02 -0.21943251414E+03  0.22337393432E+03  0.00000000000E+00 0. -1.
         -1    1    1    2    0  502 -0.65564455445E+01 -0.23771799214E+02 -0.57724171908E+02  0.62770737120E+02  0.00000000000E+00 0.  1.
<scales pt_clust_5="13000.00000" pt_clust_6="13000.00000" pt_clust_7="13000.00000" pt_clust_8="13000.00000" pt_clust_9="24.65939"></scales>
<clustering>
<clus scale="   24.659">  2  9  1 -1</clus>
<clus scale="   90.729">  7  8 -1 -1</clus>
<clus scale="   92.161">  5  6 -1 -1</clus>
<clus scale="   96.233">  2  7  1 -1</clus>
<clus scale="   24.659">  2  5  1 -1</clus>
</clustering>
</event>
<event>
 9    1  0.1601012E-005  0.1203701E+03  0.7546771E-02  0.1243251E+00
         21   -1    0    0  501  502  0.00000000000E+00  0.00000000000E+00  0.37338265888E+02  0.37338265888E+02  0.00000000000E+00 0.  1.
          1   -1    0    0  502    0 -0.00000000000E+00 -0.00000000000E+00 -0.59631479312E+03  0.59631479312E+03  0.00000000000E+00 0. -1.
         23    2    1    2    0    0 -0.11060026241E+02 -0.72010026336E+02 -0.24851348484E+03  0.27406741013E+03  0.89700752903E+02 0.  0.
         23    2    1    2    0    0 -0.28217202132E+02  0.86413269651E+02 -0.17400652504E+03  0.21686026497E+03  0.92122961832E+02 0.  0.
        -13    1    4    4    0    0  0.23392815632E+02  0.31058231578E-01 -0.62131317880E+02  0.66389196782E+02  0.00000000000E+00 0. -1.
         13    1    4    4    0    0 -0.51610017764E+02  0.86382211419E+02 -0.11187520716E+03  0.15047106818E+03  0.00000000000E+00 0.  1.
        -13    1    3    3    0    0 -0.37669692386E+02 -0.14765655922E+02 -0.16197024566E+03  0.16694726951E+03  0.00000000000E+00 0.  1.
         13    1    3    3    0    0  0.26609666145E+02 -0.57244370415E+02 -0.86543239185E+02  0.10712014061E+03  0.00000000000E+00 0. -1.
          1    1    1    2  501    0  0.39277228374E+02 -0.14403243314E+02 -0.13645651735E+03  0.14272538392E+03  0.00000000000E+00 0. -1.
<scales pt_clust_5="13000.00000" pt_clust_6="13000.00000" pt_clust_7="13000.00000" pt_clust_8="13000.00000" pt_clust_9="41.83486"></scales>
<clustering>
<clus scale="   41.835">  1  9  2 -1</clus>
<clus scale="   89.701">  7  8 -1 -1</clus>
<clus scale="   92.123">  5  6 -1 -1</clus>
<clus scale="  118.527">  2  7  1 -1</clus>
<clus scale="   41.835">  1  5  2 -1</clus>
</clustering>
</event>
<event>
 9    1  0.1601012E-005  0.1166215E+03  0.7546771E-02  0.1250416E+00
          2   -1    0    0  502    0 -0.00000000000E+00  0.00000000000E+00  0.42038802319E+03  0.42038802319E+03  0.00000000000E+00 0. -1.
         21   -1    0    0  501  502  0.00000000000E+00 -0.00000000000E+00 -0.65375618872E+02  0.65375618872E+02  0.00000000000E+00 0. -1.
         23    2    1    2    0    0 -0.64440650583E+01 -0.61746243400E+02  0.28385825105E+03  0.30544638397E+03  0.94169327490E+02 0.  0.
         23    2    1    2    0    0  0.21216206873E+02  0.93104690350E+02  0.59474959016E+02  0.14373895924E+03  0.89470703888E+02 0.  0.
        -13    1    3    3    0    0  0.24918151059E+02  0.13686349049E+02  0.47375617705E+02  0.55251059314E+02  0.00000000000E+00 0.  1.
         13    1    3    3    0    0 -0.31362216117E+02 -0.75432592448E+02  0.23648263335E+03  0.25019532465E+03  0.00000000000E+00 0. -1.
        -13    1    4    4    0    0 -0.13560276416E+02  0.32235541359E+02 -0.17935977694E+02  0.39302805486E+02  0.00000000000E+00 0.  1.
         13    1    4    4    0    0  0.34776483288E+02  0.60869148990E+02  0.77410936710E+02  0.10443615375E+03  0.00000000000E+00 0. -1.
          2    1    1    2  501    0 -0.14772141814E+02 -0.31358446950E+02  0.11679194254E+02  0.36578298858E+02  0.00000000000E+00 0. -1.
<scales pt_clust_5="13000.00000" pt_clust_6="13000.00000" pt_clust_7="13000.00000" pt_clust_8="13000.00000" pt_clust_9="34.66365"></scales>
<clustering>
<clus scale="   34.664">  2  9  1 -1</clus>
<clus scale="   89.471">  7  8 -1 -1</clus>
<clus scale="   94.169">  5  6 -1 -1</clus>
<clus scale="  112.862">  2  7  1 -1</clus>
<clus scale="   34.664">  2  5  1 -1</clus>
</clustering>
</event>
<event>
 9    1  0.1601012E-005  0.1353417E+03  0.7546771E-02  0.1219894E+00
         -1   -1    0    0    0  501 -0.00000000000E+00  0.00000000000E+00  0.22827559195E+03  0.22827559195E+03  0.00000000000E+00 0.  1.
         21   -1    0    0  501  502  0.00000000000E+00 -0.00000000000E+00 -0.29330755778E+03  0.29330755778E+03  0.00000000000E+00 0. -1.
         23    2    1    2    0    0 -0.25757818446E+02  0.10168681160E+03  0.16867615604E+03  0.21844864267E+03  0.90909245972E+02 0.  0.
         23    2    1    2    0    0 -0.21612520209E+02 -0.82777262250E+02 -0.98544154749E+02  0.15866714726E+03  0.90250412785E+02 0.  0.
        -13    1    4    4    0    0  0.15880082986E+02 -0.30507738175E+02 -0.86683209169E+02  0.93257052688E+02  0.00000000000E+00 0. -1.
         13    1    4    4    0    0 -0.37492603195E+02 -0.52269524076E+02 -0.11860945581E+02  0.65410094569E+02  0.00000000000E+00 0.  1.
        -13    1    3    3    0    0 -0.22676404218E+01  0.10650665213E+03  0.10158796990E+03  0.14720368464E+03  0.00000000000E+00 0.  1.
         13    1    3    3    0    0 -0.23490178024E+02 -0.48198405279E+01  0.67088186135E+02  0.71244958034E+02  0.00000000000E+00 0. -1.
         -1    1    1    2    0  502  0.47370338655E+02 -0.18909549355E+02 -0.13516396712E+03  0.14446735980E+03  0.00000000000E+00 0.  1.
<scales pt_clust_5="13000.00000" pt_clust_6="13000.00000" pt_clust_7="13000.00000" pt_clust_8="13000.00000" pt_clust_9="51.00510"></scales>
<clustering>
<clus scale="   51.005">  2  9  1 -1</clus>
<clus scale="   90.250">  5  6 -1 -1</clus>
<clus scale="   90.909">  7  8 -1 -1</clus>
<clus scale="  134.900">  2  5  1 -1</clus>
<clus scale="   51.005">  2  5  1 -1</clus>
</clustering>
</event>
<event>
 9    1  0.1601012E-005  0.2445472E+03  0.7546771E-02  0.1116916E+00
         21   -1    0    0  501  502  0.00000000000E+00  0.00000000000E+00  0.45751409985E+03  0.45751409985E+03  0.00000000000E+00 0. -1.
          1   -1    0    0  502    0 -0.00000000000E+00 -0.00000000000E+00 -0.47342021968E+03  0.47342021968E+03  0.00000000000E+00 0. -1.
         23    2    1    2    0    0  0.10420123764E+03  0.22784533686E+03 -0.36026592258E+03  0.44803611605E+03  0.90407028789E+02 0.  0.
         23    2    1    2    0    0 -0.72776692005E+02 -0.13572279216E+03  0.71617291622E+02  0.19330790204E+03  0.92313516460E+02 0.  0.
        -13    1    4    4    0    0 -0.41125119834E+02 -0.72598727394E+01  0.38777631912E+02  0.56988472257E+02  0.00000000000E+00 0. -1.
         13    1    4    4    0    0 -0.31651572172E+02 -0.12846291942E+03  0.32839659710E+02  0.13631942978E+03  0.00000000000E+00 0.  1.
        -13    1    3    3    0    0  0.48603075235E+02  0.18667413571E+03 -0.29785674223E+03  0.35486353822E+03  0.00000000000E+00 0. -1.
         13    1    3    3    0    0  0.55598162404E+02  0.41171201148E+02 -0.62409180348E+02  0.93172577824E+02  0.00000000000E+00 0.  1.
          1    1    1    2  501    0 -0.31424545634E+02 -0.92122544706E+02  0.27274251113E+03  0.28959030144E+03  0.00000000000E+00 0. -1.
<scales pt_clust_5="13000.00000" pt_clust_6="13000.00000" pt_clust_7="13000.00000" pt_clust_8="13000.00000" pt_clust_9="97.33481"></scales>
<clustering>
<clus scale="   90.407">  7  8 -1 -1</clus>
<clus scale="   92.314">  5  6 -1 -1</clus>
<clus scale="   97.335">  1  9  2 -1</clus>
<clus scale="  243.834">  2  7  1 -1</clus>
<clus scale="   97.335">  1  5  2 -1</clus>
</clustering>
</event>
<event>
 9    1  0.1601012E-005  0.9622093E+02  0.7546771E-02  0.1289954E+00
          1   -1    0    0  502    0 -0.00000000000E+00  0.00000000000E+00  0.44788452502E+03  0.44788452502E+03  0.00000000000E+00 0. -1.
         21   -1    0    0  501  502  0.00000000000E+00 -0.00000000000E+00 -0.34061843467E+02  0.34061843467E+02  0.00000000000E+00 0.  1.
         23    2    1    2    0    0  0.14552142719E+02  0.12178225546E+01  0.21697696374E+03  0.23539967601E+03  0.90115241348E+02 0.  0.
         23    2    1    2    0    0 -0.38102022434E+02 -0.34408576647E+02  0.12504003860E+03  0.16401016384E+03  0.92890302666E+02 0.  0.
        -11    1    3    3    0    0 -0.25564818549E+02  0.28991207839E+02  0.63355813965E+02  0.74215963530E+02  0.00000000000E+00 0.  1.
         11    1    3    3    0    0  0.40116961268E+02 -0.27773385284E+02  0.15362114978E+03  0.16118371248E+03  0.00000000000E+00 0. -1.
        -11    1    4    4    0    0 -0.24463193253E+02  0.22839295484E+02  0.10230512958E+02  0.34996351777E+02  0.00000000000E+00 0.  1.
         11    1    4    4    0    0 -0.13638829182E+02 -0.57247872131E+02  0.11480952564E+03  0.12901381206E+03  0.00000000000E+00 0. -1.
          1    1    1    2  501    0  0.23549879715E+02  0.33190754092E+02  0.71805679219E+02  0.82536528640E+02  0.00000000000E+00 0. -1.
<scales pt_clust_5="13000.00000" pt_clust_6="13000.00000" pt_clust_7="13000.00000" pt_clust_8="13000.00000" pt_clust_9="40.69674"></scales>
<clustering>
<clus scale="   40.697">  2  9  1 -1</clus>
<clus scale="   90.115">  5  6 -1 -1</clus>
<clus scale="   92.890">  7  8 -1 -1</clus>
<clus scale="   93.545">  1  5  2 -1</clus>
<clus scale="   40.697">  2  5  1 -1</clus>
</clustering>
</event>
<event>
 9    1  0.1601012E-005  0.1048396E+03  0.7546771E-02  0.1271422E+00
          1   -1    0    0  502    0 -0.00000000000E+00  0.00000000000E+00  0.11094851918E+03  0.11094851918E+03  0.00000000000E+00 0. -1.
         21   -1    0    0  501  502  0.00000000000E+00 -0.00000000000E+00 -0.24105164918E+03  0.24105164918E+03  0.00000000000E+00 0. -1.
         23    2    1    2    0    0  0.45382426743E+02 -0.20524651321E+02  0.62327803736E+02  0.12177688216E+03  0.92000151861E+02 0.  0.
         23    2    1    2    0    0 -0.17738376695E+02  0.22327772284E+02 -0.14389803746E+03  0.17434049128E+03  0.94206062912E+02 0.  0.
        -11    1    4    4    0    0 -0.92404481316E+01 -0.37063142174E+02 -0.61910520464E+02  0.72745961631E+02  0.00000000000E+00 0.  1.
         11    1    4    4    0    0 -0.84979285638E+01  0.59390914458E+02 -0.81987517000E+02  0.10159452965E+03  0.00000000000E+00 0. -1.
        -13    1    3    3    0    0  0.26161603585E+02 -0.49094492526E+01 -0.21595039606E+02  0.34276492377E+02  0.00000000000E+00 0.  1.
         13    1    3    3    0    0  0.19220823157E+02 -0.15615202068E+02  0.83922843341E+02  0.87500389788E+02  0.00000000000E+00 0. -1.
          1    1    1    2  501    0 -0.27644050047E+02 -0.18031209634E+01 -0.48532896267E+02  0.55882794922E+02  0.00000000000E+00 0. -1.
<scales pt_clust_5="13000.00000" pt_clust_6="13000.00000" pt_clust_7="13000.00000" pt_clust_8="13000.00000" pt_clust_9="27.70279"></scales>
<clustering>
<clus scale="   27.703">  2  9  1 -1</clus>
<clus scale="   92.000">  7  8 -1 -1</clus>
<clus scale="   94.206">  5  6 -1 -1</clus>
<clus scale="  102.862">  1  7  2 -1</clus>
<clus scale="   27.703">  2  5  1 -1</clus>
</clustering>
</event>
<event>
 9    1  0.1601012E-005  0.1156223E+03  0.7546771E-02  0.1253486E+00
         21   -1    0    0  501  502  0.00000000000E+00  0.00000000000E+00  0.10745076796E+03  0.10745076796E+03  0.00000000000E+00 0. -1.
          1   -1    0    0  502    0 -0.00000000000E+00 -0.00000000000E+00 -0.27015836863E+03  0.27015836863E+03  0.00000000000E+00 0. -1.
         23    2    1    2    0    0 -0.27178826917E+02 -0.43948686262E+02 -0.12497381737E+03  0.16258777958E+03  0.90256054555E+02 0.  0.
         23    2    1    2    0    0  0.44324998855E+02  0.62587039547E+02 -0.92162539714E+02  0.15498912442E+03  0.98213298074E+02 0.  0.
        -11    1    4    4    0    0 -0.29554105563E+02  0.34731925564E+02 -0.31637570377E+02  0.55503942819E+02  0.00000000000E+00 0.  1.
         11    1    4    4    0    0  0.73879104418E+02  0.27855113983E+02 -0.60524969337E+02  0.99485181599E+02  0.00000000000E+00 0. -1.
        -13    1    3    3    0    0 -0.50635971396E+02 -0.57225781236E+02 -0.84126798022E+02  0.11364906415E+03  0.00000000000E+00 0.  1.
         13    1    3    3    0    0  0.23457144478E+02  0.13277094975E+02 -0.40847019346E+02  0.48938715425E+02  0.00000000000E+00 0. -1.
          1    1    1    2  501    0 -0.17146171938E+02 -0.18638353285E+02  0.54428756417E+02  0.60032232596E+02  0.00000000000E+00 0. -1.
<scales pt_clust_5="13000.00000" pt_clust_6="13000.00000" pt_clust_7="13000.00000" pt_clust_8="13000.00000" pt_clust_9="25.32547"></scales>
<clustering>
<clus scale="   25.325">  1  9  2 -1</clus>
<clus scale="   90.256">  7  8 -1 -1</clus>
<clus scale="   98.213">  5  6 -1 -1</clus>
<clus scale="  108.944">  2  7  1 -1</clus>
<clus scale="   25.325">  1  5  2 -1</clus>
</clustering>
</event>
<event>
 9    1  0.1601012E-005  0.1052966E+03  0.7546771E-02  0.1269950E+00
         21   -1    0    0  501  502  0.00000000000E+00  0.00000000000E+00  0.71614285625E+02  0.71614285625E+02  0.00000000000E+00 0.  1.
          1   -1    0    0  502    0 -0.00000000000E+00 -0.00000000000E+00 -0.32619942899E+03  0.32619942899E+03  0.00000000000E+00 0. -1.
         23    2    1    2    0    0 -0.24289139087E+02  0.46378388075E+02 -0.22288484491E+03  0.24666356135E+03  0.91784210253E+02 0.  0.
         23    2    1    2    0    0  0.44689015833E+02 -0.30634415547E+02 -0.52468176924E+02  0.11805434661E+03  0.90820392044E+02 0.  0.
        -11    1    3    3    0    0 -0.44118269802E+02  0.64625841257E+02 -0.15515823621E+03  0.17377283837E+03  0.00000000000E+00 0.  1.
         11    1    3    3    0    0  0.19829130715E+02 -0.18247453182E+02 -0.67726608691E+02  0.72890722985E+02  0.00000000000E+00 0. -1.
        -13    1    4    4    0    0 -0.46264258782E+00  0.20144418316E+02  0.12771046728E+02  0.23856052942E+02  0.00000000000E+00 0.  1.
         13    1    4    4    0    0  0.45151658421E+02 -0.50778833864E+02 -0.65239223651E+02  0.94198293665E+02  0.00000000000E+00 0. -1.
          1    1    1    2  501    0 -0.20399876746E+02 -0.15743972528E+02  0.20767878465E+02  0.33095806656E+02  0.00000000000E+00 0. -1.
<scales pt_clust_5="13000.00000" pt_clust_6="13000.00000" pt_clust_7="13000.00000" pt_clust_8="13000.00000" pt_clust_9="25.76873"></scales>
<clustering>
<clus scale="   25.769">  1  9  2 -1</clus>
<clus scale="   90.820">  7  8 -1 -1</clus>
<clus scale="   91.784">  5  6 -1 -1</clus>
<clus scale="  104.458">  1  7  2 -1</clus>
<clus scale="   25.769">  1  5  2 -1</clus>
</clustering>
</event>
<event>
 9    1  0.1601012E-005  0.1159393E+03  0.7546771E-02  0.1250839E+00
          1   -1    0    0  502    0 -0.00000000000E+00  0.00000000000E+00  0.25732643007E+03  0.25732643007E+03  0.00000000000E+00 0. -1.
         21   -1    0    0  501  502  0.00000000000E+00 -0.00000000000E+00 -0.12125025421E+03  0.12125025421E+03  0.00000000000E+00 0.  1.
         23    2    1    2    0    0 -0.64569858306E+02 -0.31179745827E+02  0.17767122595E+03  0.21295235367E+03  0.92952661358E+02 0.  0.
         23    2    1    2    0    0  0.61680133765E+02 -0.26204397806E+00 -0.64121683986E+02  0.12683791689E+03  0.90397783357E+02 0.  0.
        -11    1    4    4    0    0  0.67003925686E+02 -0.24468852062E+02 -0.71480008203E+02  0.10098337661E+03  0.00000000000E+00 0.  1.
         11    1    4    4    0    0 -0.53237919205E+01  0.24206808084E+02  0.73583242163E+01  0.25854540284E+02  0.00000000000E+00 0. -1.
        -13    1    3    3    0    0 -0.37982030788E+02 -0.21536590268E+02  0.12556173345E+02  0.45432553001E+02  0.00000000000E+00 0.  1.
         13    1    3    3    0    0 -0.26587827519E+02 -0.96431555590E+01  0.16511505260E+03  0.16751980067E+03  0.00000000000E+00 0. -1.
          1    1    1    2  501    0  0.28897245411E+01  0.31441789805E+02  0.22526633905E+02  0.38786413719E+02  0.00000000000E+00 0. -1.
<scales pt_clust_5="13000.00000" pt_clust_6="13000.00000" pt_clust_7="13000.00000" pt_clust_8="13000.00000" pt_clust_9="31.57432"></scales>
<clustering>
<clus scale="   31.574">  2  9  1 -1</clus>
<clus scale="   90.398">  5  6 -1 -1</clus>
<clus scale="   92.953">  7  8 -1 -1</clus>
<clus scale="  113.901">  2  5  1 -1</clus>
<clus scale="   31.574">  2  5  1 -1</clus>
</clustering>
</event>
<event>
 9    1  0.1601012E-005  0.1477747E+03  0.7546771E-02  0.1203609E+00
         21   -1    0    0  501  502  0.00000000000E+00  0.00000000000E+00  0.22360560183E+03  0.22360560183E+03  0.00000000000E+00 0.  1.
          4   -1    0    0  502    0 -0.00000000000E+00 -0.00000000000E+00 -0.22796729888E+03  0.22796729888E+03  0.00000000000E+00 0. -1.
         23    2    1    2    0    0  0.94904499855E+01 -0.11824985242E+03 -0.16547206200E+03  0.22347726755E+03  0.92130285842E+02 0.  0.
         23    2    1    2    0    0 -0.17846075227E+02  0.98796313077E+02  0.11485070454E+03  0.17722115186E+03  0.90207862483E+02 0.  0.
        -11    1    3    3    0    0  0.45736904851E+02 -0.96301990382E+02 -0.10499158572E+03  0.14963011358E+03  0.00000000000E+00 0.  1.
         11    1    3    3    0    0 -0.36246454866E+02 -0.21947862035E+02 -0.60480476280E+02  0.73847153969E+02  0.00000000000E+00 0. -1.
        -11    1    4    4    0    0 -0.41568819111E+02  0.10387188137E+02  0.44489284328E+02  0.61766955726E+02  0.00000000000E+00 0. -1.
         11    1    4    4    0    0  0.23722743884E+02  0.88409124940E+02  0.70361420210E+02  0.11545419613E+03  0.00000000000E+00 0.  1.
          4    1    1    2  501    0  0.83556252411E+01  0.19453539339E+02  0.46259660417E+02  0.50874481304E+02  0.00000000000E+00 0. -1.
<scales pt_clust_5="13000.00000" pt_clust_6="13000.00000" pt_clust_7="13000.00000" pt_clust_8="13000.00000" pt_clust_9="21.17207"></scales>
<clustering>
<clus scale="   21.172">  1  9  2 -1</clus>
<clus scale="   90.208">  7  8 -1 -1</clus>
<clus scale="   92.130">  5  6 -1 -1</clus>
<clus scale="  146.584">  1  7  2 -1</clus>
<clus scale="   21.172">  1  5  2 -1</clus>
</clustering>
</event>
<event>
 9    1  0.1601012E-005  0.1057439E+03  0.7546771E-02  0.1268742E+00
          2   -1    0    0  502    0 -0.00000000000E+00  0.00000000000E+00  0.37253970547E+03  0.37253970547E+03  0.00000000000E+00 0. -1.
         21   -1    0    0  501  502  0.00000000000E+00 -0.00000000000E+00 -0.64723443961E+02  0.64723443961E+02  0.00000000000E+00 0.  1.
         23    2    1    2    0    0 -0.55593700158E+02 -0.21185819894E+02  0.27688021542E+03  0.29753024143E+03  0.91225503068E+02 0.  0.
         23    2    1    2    0    0  0.28809465042E+02  0.22922320967E+02  0.46560407402E+02  0.10867600292E+03  0.91033971675E+02 0.  0.
        -11    1    3    3    0    0 -0.15332717819E+02 -0.47398739225E+02  0.20575440390E+03  0.21169933264E+03  0.00000000000E+00 0.  1.
         11    1    3    3    0    0 -0.40260982339E+02  0.26212919331E+02  0.71125811524E+02  0.85830908790E+02  0.00000000000E+00 0. -1.
        -13    1    4    4    0    0  0.18270447763E+02 -0.28679643360E+02  0.44451420882E+02  0.55966597387E+02  0.00000000000E+00 0. -1.
         13    1    4    4    0    0  0.10539017279E+02  0.51601964326E+02  0.21089865202E+01  0.52709405534E+02  0.00000000000E+00 0.  1.
          2    1    1    2  501    0  0.26784235116E+02 -0.17365010728E+01 -0.15624361315E+02  0.31056905082E+02  0.00000000000E+00 0. -1.
<scales pt_clust_5="13000.00000" pt_clust_6="13000.00000" pt_clust_7="13000.00000" pt_clust_8="13000.00000" pt_clust_9="26.84047"></scales>
<clustering>
<clus scale="   26.840">  2  9  1 -1</clus>
<clus scale="   91.034">  7  8 -1 -1</clus>
<clus scale="   91.226">  5  6 -1 -1</clus>
<clus scale="  105.579">  2  7  1 -1</clus>
<clus scale="   26.840">  2  5  1 -1</clus>
</clustering>
</event>
<event>
 9    1  0.1601012E-005  0.1085836E+03  0.7546771E-02  0.1263840E+00
          4   -1    0    0  502    0 -0.00000000000E+00  0.00000000000E+00  0.22021635859E+03  0.22021635859E+03  0.00000000000E+00 0. -1.
         21   -1    0    0  501  502  0.00000000000E+00 -0.00000000000E+00 -0.11625914627E+03  0.11625914627E+03  0.00000000000E+00 0. -1.
         23    2    1    2    0    0 -0.44037529901E+01  0.48482318017E+02  0.10104659329E+03  0.14453643853E+03  0.91161613890E+02 0.  0.
         23    2    1    2    0    0 -0.91430620974E+01 -0.69743583210E+02  0.58977903566E+02  0.13046469776E+03  0.92708582494E+02 0.  0.
        -13    1    4    4    0    0 -0.34576365326E+02 -0.66248458752E+01 -0.67596102013E+01  0.35848374470E+02  0.00000000000E+00 0.  1.
         13    1    4    4    0    0  0.25433303229E+02 -0.63118737335E+02  0.65737513767E+02  0.94616323286E+02  0.00000000000E+00 0. -1.
        -13    1    3    3    0    0  0.24723679521E+02  0.30760249749E+02  0.16990471386E+01  0.39501139918E+02  0.00000000000E+00 0.  1.
         13    1    3    3    0    0 -0.29127432511E+02  0.17722068267E+02  0.99347546152E+02  0.10503529861E+03  0.00000000000E+00 0. -1.
          4    1    1    2  501    0  0.13546815088E+02  0.21261265193E+02 -0.56067284531E+02  0.61474368572E+02  0.00000000000E+00 0. -1.
<scales pt_clust_5="13000.00000" pt_clust_6="13000.00000" pt_clust_7="13000.00000" pt_clust_8="13000.00000" pt_clust_9="25.21027"></scales>
<clustering>
<clus scale="   25.210">  2  9  1 -1</clus>
<clus scale="   91.162">  7  8 -1 -1</clus>
<clus scale="   92.709">  5  6 -1 -1</clus>
<clus scale="  107.266">  1  7  2 -1</clus>
<clus scale="   25.210">  2  5  1 -1</clus>
</clustering>
</event>
<event>
 9    1  0.2981376E-005  0.1298565E+03  0.7546771E-02  0.1228172E+00
         21   -1    0    0  501  502  0.00000000000E+00  0.00000000000E+00  0.85031520855E+02  0.85031520855E+02  0.00000000000E+00 0. -1.
         -3   -1    0    0    0  501 -0.00000000000E+00 -0.00000000000E+00 -0.67267995537E+03  0.67267995537E+03  0.00000000000E+00 0.  1.
         23    2    1    2    0    0 -0.62552965385E+02 -0.53335452002E+02 -0.42294751476E+03  0.44076663025E+03  0.92914359390E+02 0.  0.
         23    2    1    2    0    0  0.71682601613E+02  0.12520823320E+03 -0.47284355709E+02  0.17897493459E+03  0.94766660183E+02 0.  0.
        -11    1    3    3    0    0 -0.17335761247E+02 -0.60698628614E+02 -0.34179779699E+03  0.34757817274E+03  0.00000000000E+00 0.  1.
         11    1    3    3    0    0 -0.45217204138E+02  0.73631766121E+01 -0.81149717763E+02  0.93188457509E+02  0.00000000000E+00 0. -1.
        -13    1    4    4    0    0  0.62945539005E+02  0.33938040108E+02 -0.49982495633E+02  0.87247815541E+02  0.00000000000E+00 0.  1.
         13    1    4    4    0    0  0.87370626072E+01  0.91270193094E+02  0.26981399239E+01  0.91727119051E+02  0.00000000000E+00 0. -1.
         -3    1    1    2    0  502 -0.91296362276E+01 -0.71872781200E+02 -0.11741656405E+03  0.13796991139E+03  0.00000000000E+00 0.  1.
<scales pt_clust_5="13000.00000" pt_clust_6="13000.00000" pt_clust_7="13000.00000" pt_clust_8="13000.00000" pt_clust_9="72.45034"></scales>
<clustering>
<clus scale="   72.450">  1  9  2 -1</clus>
<clus scale="   92.914">  5  6 -1 -1</clus>
<clus scale="   94.767">  7  8 -1 -1</clus>
<clus scale="  128.511">  2  5  1 -1</clus>
<clus scale="   72.450">  1  5  2 -1</clus>
</clustering>
</event>
<event>
 9    1  0.1601012E-005  0.1462241E+03  0.7546771E-02  0.1223063E+00
          3   -1    0    0  502    0 -0.00000000000E+00  0.00000000000E+00  0.10249562870E+03  0.10249562870E+03  0.00000000000E+00 0. -1.
         21   -1    0    0  501  502  0.00000000000E+00 -0.00000000000E+00 -0.39628090195E+03  0.39628090195E+03  0.00000000000E+00 0.  1.
         23    2    1    2    0    0 -0.25085358285E+02  0.33327182525E+02 -0.14322007067E+02  0.10111622758E+03  0.90991182534E+02 0.  0.
         23    2    1    2    0    0 -0.86749257535E+02 -0.48224842533E+02 -0.62138605212E+02  0.15279517726E+03  0.98153404510E+02 0.  0.
        -11    1    4    4    0    0 -0.29566661936E+01 -0.32702941521E+02 -0.58996716994E+02  0.67519159319E+02  0.00000000000E+00 0. -1.
         11    1    4    4    0    0 -0.83792591341E+02 -0.15521901012E+02 -0.31418882173E+01  0.85276017944E+02  0.00000000000E+00 0.  1.
        -13    1    3    3    0    0 -0.10682958364E+02 -0.31270019382E+02 -0.11083521870E+02  0.34853754010E+02  0.00000000000E+00 0.  1.
         13    1    3    3    0    0 -0.14402399921E+02  0.64597201907E+02 -0.32384851974E+01  0.66262473573E+02  0.00000000000E+00 0. -1.
          3    1    1    2  501    0  0.11183461582E+03  0.14897660008E+02 -0.21732466097E+03  0.24486512581E+03  0.00000000000E+00 0. -1.
<scales pt_clust_5="13000.00000" pt_clust_6="13000.00000" pt_clust_7="13000.00000" pt_clust_8="13000.00000" pt_clust_9="108.38547"></scales>
<clustering>
<clus scale="   90.991">  7  8 -1 -1</clus>
<clus scale="   98.153">  5  6 -1 -1</clus>
<clus scale="  100.097">  1  7  2 -1</clus>
<clus scale="  108.385">  2  9  1 -1</clus>
<clus scale="  108.385">  2  5  1 -1</clus>
</clustering>
</event>
<event>
 9    1  0.1601012E-005  0.1049241E+03  0.7546771E-02  0.1271182E+00
         21   -1    0    0  501  502  0.00000000000E+00  0.00000000000E+00  0.37840981738E+02  0.37840981738E+02  0.00000000000E+00 0.  1.
          1   -1    0    0  502    0 -0.00000000000E+00 -0.00000000000E+00 -0.46818959758E+03  0.46818959758E+03  0.00000000000E+00 0. -1.
         23    2    1    2    0    0 -0.27280617758E+02 -0.26994758606E+02 -0.20864807670E+03  0.23021188396E+03  0.89389834483E+02 0.  0.
         23    2    1    2    0    0  0.69036914444E+02  0.36877459766E+02 -0.15120099613E+03  0.19328723675E+03  0.91499574121E+02 0.  0.
        -11    1    4    4    0    0 -0.20287284643E+02  0.12426380590E+02 -0.54118814896E+02  0.59117129316E+02  0.00000000000E+00 0. -1.
         11    1    4    4    0    0  0.89324199087E+02  0.24451079176E+02 -0.97082181232E+02  0.13417010743E+03  0.00000000000E+00 0.  1.
        -13    1    3    3    0    0  0.20895268295E+02  0.79120461845E+01 -0.12832674454E+03  0.13025730719E+03  0.00000000000E+00 0.  1.
         13    1    3    3    0    0 -0.48175886053E+02 -0.34906804791E+02 -0.80321332158E+02  0.99954576770E+02  0.00000000000E+00 0. -1.
          1    1    1    2  501    0 -0.41756296686E+02 -0.98827011597E+01 -0.70499543015E+02  0.82531458611E+02  0.00000000000E+00 0. -1.
<scales pt_clust_5="13000.00000" pt_clust_6="13000.00000" pt_clust_7="13000.00000" pt_clust_8="13000.00000" pt_clust_9="42.90988"></scales>
<clustering>
<clus scale="   42.910">  1  9  2 -1</clus>
<clus scale="   89.390">  7  8 -1 -1</clus>
<clus scale="   91.500">  5  6 -1 -1</clus>
<clus scale="  103.089">  2  7  1 -1</clus>
<clus scale="   42.910">  1  5  2 -1</clus>
</clustering>
</event>
<event>
 9    1  0.1601012E-005  0.1935976E+03  0.7546771E-02  0.1155645E+00
         -1   -1    0    0    0  501 -0.00000000000E+00  0.00000000000E+00  0.10680778371E+04  0.10680778371E+04  0.00000000000E+00 0.  1.
         21   -1    0    0  501  502  0.00000000000E+00 -0.00000000000E+00 -0.12123231246E+03  0.12123231246E+03  0.00000000000E+00 0.  1.
         23    2    1    2    0    0  0.18488235781E+02 -0.15688293980E+03  0.48896122412E+03  0.52131444664E+03  0.87929528126E+02 0.  0.
         23    2    1    2    0    0 -0.14276975121E+02  0.18480176255E+03  0.54155203363E+03  0.57969233402E+03  0.91701000717E+02 0.  0.
        -13    1    4    4    0    0 -0.38461584794E+02  0.75993708870E+02  0.32704923650E+03  0.33795789736E+03  0.00000000000E+00 0.  1.
         13    1    4    4    0    0  0.24184609673E+02  0.10880805368E+03  0.21450279713E+03  0.24173443666E+03  0.00000000000E+00 0. -1.
        -13    1    3    3    0    0  0.38909824303E+02 -0.38057131026E+02  0.21884418085E+03  0.22551074285E+03  0.00000000000E+00 0. -1.
         13    1    3    3    0    0 -0.20421588521E+02 -0.11882580877E+03  0.27011704327E+03  0.29580370378E+03  0.00000000000E+00 0.  1.
         -1    1    1    2    0  502 -0.42112606602E+01 -0.27918822754E+02 -0.83667733152E+02  0.88303368855E+02  0.00000000000E+00 0.  1.
<scales pt_clust_5="13000.00000" pt_clust_6="13000.00000" pt_clust_7="13000.00000" pt_clust_8="13000.00000" pt_clust_9="28.23465"></scales>
<clustering>
<clus scale="   28.235">  2  9  1 -1</clus>
<clus scale="   87.930">  7  8 -1 -1</clus>
<clus scale="   91.701">  5  6 -1 -1</clus>
<clus scale="  191.840">  1  7  2 -1</clus>
<clus scale="   28.235">  2  5  1 -1</clus>
</clustering>
</event>
<event>
 9    1  0.1601012E-005  0.1221519E+03  0.7546771E-02  0.1242403E+00
         21   -1    0    0  501  502  0.00000000000E+00  0.00000000000E+00  0.21333074072E+03  0.21333074072E+03  0.00000000000E+00 0.  1.
          3   -1    0    0  502    0 -0.00000000000E+00 -0.00000000000E+00 -0.93311237796E+02  0.93311237796E+02  0.00000000000E+00 0. -1.
         23    2    1    2    0    0  0.33699595296E+02  0.51370889256E+02  0.48776181009E+02  0.12700681214E+03  0.99884851256E+02 0.  0.
         23    2    1    2    0    0 -0.72612994891E+02 -0.40851054379E+02  0.45628111964E+02  0.13187473741E+03  0.91474401310E+02 0.  0.
        -11    1    4    4    0    0 -0.94519613467E+02 -0.33287231261E+02  0.40824687668E+02  0.10820652577E+03  0.00000000000E+00 0.  1.
         11    1    4    4    0    0  0.21906618576E+02 -0.75638231185E+01  0.48034242960E+01  0.23668211647E+02  0.00000000000E+00 0. -1.
        -13    1    3    3    0    0 -0.27057203251E+02  0.18592857041E+02  0.47771681145E+02  0.57964817779E+02  0.00000000000E+00 0.  1.
         13    1    3    3    0    0  0.60756798547E+02  0.32778032215E+02  0.10044998636E+01  0.69041994363E+02  0.00000000000E+00 0. -1.
          3    1    1    2  501    0  0.38913399595E+02 -0.10519834877E+02  0.25615209952E+02  0.47760428963E+02  0.00000000000E+00 0. -1.
<scales pt_clust_5="13000.00000" pt_clust_6="13000.00000" pt_clust_7="13000.00000" pt_clust_8="13000.00000" pt_clust_9="40.31029"></scales>
<clustering>
<clus scale="   40.310">  1  9  2 -1</clus>
<clus scale="   91.474">  5  6 -1 -1</clus>
<clus scale="   99.885">  7  8 -1 -1</clus>
<clus scale="  115.376">  1  5  2 -1</clus>
<clus scale="   40.310">  1  5  2 -1</clus>
</clustering>
</event>
<event>
 9    1  0.1601012E-005  0.9905908E+02  0.7546771E-02  0.1283782E+00
         21   -1    0    0  501  502  0.00000000000E+00  0.00000000000E+00  0.78714474515E+02  0.78714474515E+02  0.00000000000E+00 0. -1.
         -2   -1    0    0    0  501 -0.00000000000E+00 -0.00000000000E+00 -0.21424494107E+03  0.21424494107E+03  0.00000000000E+00 0.  1.
         23    2    1    2    0    0  0.28003334724E+02  0.20835077601E+02 -0.12602066060E+03  0.15901804793E+03  0.90483398790E+02 0.  0.
         23    2    1    2    0    0 -0.95131772881E+01 -0.31949714577E+02 -0.30568815447E+02  0.10379335018E+03  0.93420138407E+02 0.  0.
        -11    1    3    3    0    0 -0.23403079200E+02 -0.73033764224E+01 -0.82379068766E+02  0.85949720150E+02  0.00000000000E+00 0. -1.
         11    1    3    3    0    0  0.51406413924E+02  0.28138454023E+02 -0.43641591833E+02  0.73068327784E+02  0.00000000000E+00 0.  1.
        -11    1    4    4    0    0 -0.81496067839E+01  0.29378272246E+02 -0.29525721717E+02  0.42441338502E+02  0.00000000000E+00 0.  1.
         11    1    4    4    0    0 -0.13635705042E+01 -0.61327986824E+02 -0.10430937296E+01  0.61352011677E+02  0.00000000000E+00 0. -1.
         -2    1    1    2    0  502 -0.18490157436E+02  0.11114636976E+02  0.21059009487E+02  0.30148017475E+02  0.00000000000E+00 0.  1.
<scales pt_clust_5="13000.00000" pt_clust_6="13000.00000" pt_clust_7="13000.00000" pt_clust_8="13000.00000" pt_clust_9="21.57362"></scales>
<clustering>
<clus scale="   21.574">  1  9  2 -1</clus>
<clus scale="   90.483">  5  6 -1 -1</clus>
<clus scale="   93.420">  7  8 -1 -1</clus>
<clus scale="   96.294">  2  5  1 -1</clus>
<clus scale="   21.574">  1  5  2 -1</clus>
</clustering>
</event>
<event>
 9    1  0.1601012E-005  0.1080907E+03  0.7546771E-02  0.1264763E+00
         -3   -1    0    0    0  501 -0.00000000000E+00  0.00000000000E+00  0.23265113529E+03  0.23265113529E+03  0.00000000000E+00 0.  1.
         21   -1    0    0  501  502  0.00000000000E+00 -0.00000000000E+00 -0.11709983760E+03  0.11709983760E+03  0.00000000000E+00 0. -1.
         23    2    1    2    0    0 -0.20628030770E+00  0.79139291020E+02  0.12347760792E+03  0.17170384373E+03  0.89288411122E+02 0.  0.
         23    2    1    2    0    0 -0.20528700544E+01 -0.32600723131E+02  0.45877121231E+02  0.10687303766E+03  0.90830140940E+02 0.  0.
        -13    1    4    4    0    0  0.40618357064E+02 -0.34355337278E+02  0.31421897834E+02  0.61785724837E+02  0.00000000000E+00 0.  1.
         13    1    4    4    0    0 -0.42671227118E+02  0.17546141473E+01  0.14455223396E+02  0.45087312828E+02  0.00000000000E+00 0. -1.
        -13    1    3    3    0    0  0.19386625169E+02  0.46278111401E+02  0.12365256413E+03  0.13344460066E+03  0.00000000000E+00 0.  1.
         13    1    3    3    0    0 -0.19592905477E+02  0.32861179619E+02 -0.17495620574E+00  0.38259243074E+02  0.00000000000E+00 0. -1.
         -3    1    1    2    0  502  0.22591503621E+01 -0.46538567889E+02 -0.53803431460E+02  0.71174091483E+02  0.00000000000E+00 0.  1.
<scales pt_clust_5="13000.00000" pt_clust_6="13000.00000" pt_clust_7="13000.00000" pt_clust_8="13000.00000" pt_clust_9="46.59337"></scales>
<clustering>
<clus scale="   46.593">  2  9  1 -1</clus>
<clus scale="   89.288">  7  8 -1 -1</clus>
<clus scale="   90.830">  5  6 -1 -1</clus>
<clus scale="  106.798">  1  7  2 -1</clus>
<clus scale="   46.593">  2  5  1 -1</clus>
</clustering>
</event>
<event>
 9    1  0.1601012E-005  0.1059448E+03  0.7546771E-02  0.1268865E+00
         21   -1    0    0  501  502  0.00000000000E+00  0.00000000000E+00  0.91424851516E+02  0.91424851516E+02  0.00000000000E+00 0. -1.
          2   -1    0    0  502    0 -0.00000000000E+00 -0.00000000000E+00 -0.23512380500E+03  0.23512380500E+03  0.00000000000E+00 0. -1.
         23    2    1    2    0    0 -0.41498793094E+02 -0.49934143332E+02 -0.10925350896E+03  0.15753420114E+03  0.93086662903E+02 0.  0.
         23    2    1    2    0    0  0.26677913034E+02  0.24023579150E+02 -0.71306245185E+02  0.12158308973E+03  0.91700729046E+02 0.  0.
        -11    1    3    3    0    0 -0.52145299011E+02 -0.29660256539E+02 -0.16816411508E+02  0.62302927081E+02  0.00000000000E+00 0.  1.
         11    1    3    3    0    0  0.10646505917E+02 -0.20273886794E+02 -0.92437097448E+02  0.95231274057E+02  0.00000000000E+00 0. -1.
        -13    1    4    4    0    0 -0.28901253567E+02 -0.12228284382E+02 -0.30034978702E+02  0.43438615797E+02  0.00000000000E+00 0.  1.
         13    1    4    4    0    0  0.55579166602E+02  0.36251863532E+02 -0.41271266482E+02  0.78144473936E+02  0.00000000000E+00 0. -1.
          2    1    1    2  501    0  0.14820880060E+02  0.25910564183E+02  0.36860800656E+02  0.47431365645E+02  0.00000000000E+00 0. -1.
<scales pt_clust_5="13000.00000" pt_clust_6="13000.00000" pt_clust_7="13000.00000" pt_clust_8="13000.00000" pt_clust_9="29.84989"></scales>
<clustering>
<clus scale="   29.850">  1  9  2 -1</clus>
<clus scale="   91.701">  7  8 -1 -1</clus>
<clus scale="   93.087">  5  6 -1 -1</clus>
<clus scale="  104.729">  1  7  2 -1</clus>
<clus scale="   29.850">  1  5  2 -1</clus>
</clustering>
</event>
<event>
 9    1  0.1601012E-005  0.1265694E+03  0.7546771E-02  0.1232679E+00
          2   -1    0    0  502    0 -0.00000000000E+00  0.00000000000E+00  0.18521628109E+03  0.18521628109E+03  0.00000000000E+00 0. -1.
         21   -1    0    0  501  502  0.00000000000E+00 -0.00000000000E+00 -0.32569930274E+03  0.32569930274E+03  0.00000000000E+00 0.  1.
         23    2    1    2    0    0 -0.26223048141E+02 -0.68880177873E+02  0.63490985540E+02  0.13249385906E+03  0.89952155540E+02 0.  0.
         23    2    1    2    0    0  0.11813581410E+03  0.13826265965E+03 -0.14141901706E+03  0.24736825433E+03  0.90105944517E+02 0.  0.
        -13    1    4    4    0    0  0.72052691079E+02  0.30585870819E+02 -0.90499628507E+02  0.11965478906E+03  0.00000000000E+00 0.  1.
         13    1    4    4    0    0  0.46083123026E+02  0.10767678883E+03 -0.50919388550E+02  0.12771346527E+03  0.00000000000E+00 0. -1.
        -13    1    3    3    0    0  0.67958659096E+01  0.19533608113E+02  0.44054873212E+01  0.21146015178E+02  0.00000000000E+00 0.  1.
         13    1    3    3    0    0 -0.33018914051E+02 -0.88413785986E+02  0.59085498219E+02  0.11134784388E+03  0.00000000000E+00 0. -1.
          2    1    1    2  501    0 -0.91912765963E+02 -0.69382481775E+02 -0.62554990132E+02  0.13105347044E+03  0.00000000000E+00 0. -1.
<scales pt_clust_5="13000.00000" pt_clust_6="13000.00000" pt_clust_7="13000.00000" pt_clust_8="13000.00000" pt_clust_9="115.16026"></scales>
<clustering>
<clus scale="   89.952">  7  8 -1 -1</clus>
<clus scale="   90.106">  5  6 -1 -1</clus>
<clus scale="  115.160">  2  9  1 -1</clus>
<clus scale="  126.460">  1  7  2 -1</clus>
<clus scale="  115.160">  2  5  1 -1</clus>
</clustering>
</event>
<event>
 9    1  0.1601012E-005  0.1060968E+03  0.7546771E-02  0.1269336E+00
          1   -1    0    0  502    0 -0.00000000000E+00  0.00000000000E+00  0.46811624810E+03  0.46811624810E+03  0.00000000000E+00 0. -1.
         21   -1    0    0  501  502  0.00000000000E+00 -0.00000000000E+00 -0.74409229476E+02  0.74409229476E+02  0.00000000000E+00 0. -1.
         23    2    1    2    0    0  0.31484134054E+02 -0.26714422476E+02  0.27202326893E+03  0.29047798863E+03  0.93144468310E+02 0.  0.
         23    2    1    2    0    0 -0.12412319908E+02  0.57045561685E+02  0.16254856160E+03  0.19770004233E+03  0.96202962871E+02 0.  0.
        -11    1    4    4    0    0 -0.49931203752E+02  0.41667625898E+02  0.64484955496E+02  0.91583981358E+02  0.00000000000E+00 0.  1.
         11    1    4    4    0    0  0.37518883844E+02  0.15377935788E+02  0.98063606103E+02  0.10611606097E+03  0.00000000000E+00 0. -1.
        -13    1    3    3    0    0  0.64038781604E+02 -0.15056810107E+02  0.20085735448E+03  0.21135597916E+03  0.00000000000E+00 0. -1.
         13    1    3    3    0    0 -0.32554647549E+02 -0.11657612369E+02  0.71165914452E+02  0.79122009473E+02  0.00000000000E+00 0.  1.
          1    1    1    2  501    0 -0.19071814147E+02 -0.30331139209E+02 -0.40864811909E+02  0.54347446609E+02  0.00000000000E+00 0. -1.
<scales pt_clust_5="13000.00000" pt_clust_6="13000.00000" pt_clust_7="13000.00000" pt_clust_8="13000.00000" pt_clust_9="35.82893"></scales>
<clustering>
<clus scale="   35.829">  2  9  1 -1</clus>
<clus scale="   93.144">  7  8 -1 -1</clus>
<clus scale="   96.203">  5  6 -1 -1</clus>
<clus scale="  103.332">  1  7  2 -1</clus>
<clus scale="   35.829">  2  5  1 -1</clus>
</clustering>
</event>
<event>
 9    1  0.1601012E-005  0.9343533E+02  0.7546771E-02  0.1295477E+00
          1   -1    0    0  502    0 -0.00000000000E+00  0.00000000000E+00  0.26326506873E+03  0.26326506873E+03  0.00000000000E+00 0. -1.
         21   -1    0    0  501  502  0.00000000000E+00 -0.00000000000E+00 -0.75764990397E+02  0.75764990397E+02  0.00000000000E+00 0. -1.
         23    2    1    2    0    0 -0.96398541050E+01 -0.95635196538E+01  0.15993779058E+03  0.18541590507E+03  0.92814725672E+02 0.  0.
         23    2    1    2    0    0 -0.13902660477E+02  0.12682150410E+02  0.61735619727E+02  0.11199934336E+03  0.91533847640E+02 0.  0.
        -11    1    4    4    0    0 -0.17883801425E+02 -0.29529400589E+02  0.60411355162E+02  0.69579793655E+02  0.00000000000E+00 0.  1.
         11    1    4    4    0    0  0.39811409483E+01  0.42211550999E+02  0.13242645651E+01  0.42419549710E+02  0.00000000000E+00 0. -1.
        -11    1    3    3    0    0 -0.36032131668E+02  0.29054456691E+02  0.91184897512E+02  0.10226026355E+03  0.00000000000E+00 0. -1.
         11    1    3    3    0    0  0.26392277563E+02 -0.38617976345E+02  0.68752893073E+02  0.83155641527E+02  0.00000000000E+00 0.  1.
          1    1    1    2  501    0  0.23542514582E+02 -0.31186307564E+01 -0.34173331976E+02  0.41614810693E+02  0.00000000000E+00 0. -1.
<scales pt_clust_5="13000.00000" pt_clust_6="13000.00000" pt_clust_7="13000.00000" pt_clust_8="13000.00000" pt_clust_9="23.74818"></scales>
<clustering>
<clus scale="   23.748">  2  9  1 -1</clus>
<clus scale="   91.534">  5  6 -1 -1</clus>
<clus scale="   92.163">  2  5  1 -1</clus>
<clus scale="   92.815">  7  8 -1 -1</clus>
<clus scale="   23.748">  2  5  1 -1</clus>
</clustering>
</event>
<event>
 9    1  0.1601012E-005  0.2566420E+03  0.7546771E-02  0.1109270E+00
         21   -1    0    0  501  502  0.00000000000E+00  0.00000000000E+00  0.52798229498E+02  0.52798229498E+02  0.00000000000E+00 0. -1.
          1   -1    0    0  502    0 -0.00000000000E+00 -0.00000000000E+00 -0.16843464755E+04  0.16843464755E+04  0.00000000000E+00 0. -1.
         23    2    1    2    0    0  0.14758022997E+03  0.15168254883E+03 -0.55138118909E+03  0.59770368642E+03  0.91874703740E+02 0.  0.
         23    2    1    2    0    0 -0.19282351221E+03 -0.19222585779E+03 -0.73521697228E+03  0.78918214948E+03  0.90181935345E+02 0.  0.
        -11    1    3    3    0    0  0.80349462102E+02  0.62742323164E+02 -0.15176252114E+03  0.18282368008E+03  0.00000000000E+00 0. -1.
         11    1    3    3    0    0  0.67230767868E+02  0.88940225669E+02 -0.39961866795E+03  0.41488000634E+03  0.00000000000E+00 0.  1.
        -13    1    4    4    0    0 -0.52121933888E+02 -0.10591614248E+03 -0.37050541304E+03  0.38885625406E+03  0.00000000000E+00 0. -1.
         13    1    4    4    0    0 -0.14070157832E+03 -0.86309715315E+02 -0.36471155925E+03  0.40032589543E+03  0.00000000000E+00 0.  1.
          1    1    1    2  501    0  0.45243282241E+02  0.40543308960E+02 -0.34495008460E+03  0.35025886906E+03  0.00000000000E+00 0. -1.
<scales pt_clust_5="13000.00000" pt_clust_6="13000.00000" pt_clust_7="13000.00000" pt_clust_8="13000.00000" pt_clust_9="60.75128"></scales>
<clustering>
<clus scale="   60.751">  1  9  2 -1</clus>
<clus scale="   90.182">  7  8 -1 -1</clus>
<clus scale="   91.875">  5  6 -1 -1</clus>
<clus scale="  256.041">  1  7  2 -1</clus>
<clus scale="   60.751">  1  5  2 -1</clus>
</clustering>
</event>
<event>
 9    1  0.1601012E-005  0.1259266E+03  0.7546771E-02  0.1235734E+00
         21   -1    0    0  501  502  0.00000000000E+00  0.00000000000E+00  0.16363839916E+03  0.16363839916E+03  0.00000000000E+00 0.  1.
         -2   -1    0    0    0  501 -0.00000000000E+00 -0.00000000000E+00 -0.45238234607E+03  0.45238234607E+03  0.00000000000E+00 0.  1.
         23    2    1    2    0    0 -0.42205435160E+02 -0.36379873230E+02 -0.20184429867E+03  0.22833213220E+03  0.91047502741E+02 0.  0.
         23    2    1    2    0    0  0.70754733813E+02  0.13545973373E+03 -0.17493490097E+03  0.25210805788E+03  0.97983067181E+02 0.  0.
        -11    1    4    4    0    0  0.22626656460E+02  0.90261358875E+02 -0.38823166628E+02  0.10082815458E+03  0.00000000000E+00 0. -1.
         11    1    4    4    0    0  0.48128077353E+02  0.45198374853E+02 -0.13611173434E+03  0.15127990330E+03  0.00000000000E+00 0.  1.
        -13    1    3    3    0    0 -0.21287662585E+02 -0.66331985261E+02 -0.12110962503E+03  0.13971627722E+03  0.00000000000E+00 0. -1.
         13    1    3    3    0    0 -0.20917772575E+02  0.29952112031E+02 -0.80734673647E+02  0.88615854978E+02  0.00000000000E+00 0.  1.
         -2    1    1    2    0  502 -0.28549298654E+02 -0.99079860498E+02  0.88035252726E+02  0.13558055514E+03  0.00000000000E+00 0.  1.
<scales pt_clust_5="13000.00000" pt_clust_6="13000.00000" pt_clust_7="13000.00000" pt_clust_8="13000.00000" pt_clust_9="103.11101"></scales>
<clustering>
<clus scale="   91.048">  7  8 -1 -1</clus>
<clus scale="   97.983">  5  6 -1 -1</clus>
<clus scale="  103.111">  1  9  2 -1</clus>
<clus scale="  120.609">  2  7  1 -1</clus>
<clus scale="  103.111">  1  5  2 -1</clus>
</clustering>
</event>
<event>
 9    1  0.1601012E-005  0.9754254E+02  0.7546771E-02  0.1285714E+00
         -1   -1    0    0    0  501 -0.00000000000E+00  0.00000000000E+00  0.57549960154E+03  0.57549960154E+03  0.00000000000E+00 0.  1.
         21   -1    0    0  501  502  0.00000000000E+00 -0.00000000000E+00 -0.85723027513E+02  0.85723027513E+02  0.00000000000E+00 0.  1.
         23    2    1    2    0    0 -0.44673024157E+02  0.42660936318E+01  0.42313373852E+03  0.43526722339E+03  0.91659786429E+02 0.  0.
         23    2    1    2    0    0 -0.65009782887E+01  0.41465397573E+02  0.10661659736E+03  0.14653217574E+03  0.91339683483E+02 0.  0.
        -11    1    3    3    0    0  0.69070371518E+01  0.39025412451E+02  0.17897126345E+03  0.18330685508E+03  0.00000000000E+00 0. -1.
         11    1    3    3    0    0 -0.51580061309E+02 -0.34759318819E+02  0.24416247506E+03  0.25196036831E+03  0.00000000000E+00 0.  1.
        -11    1    4    4    0    0  0.37333015204E+02  0.42637224618E+02  0.59988085110E+02  0.82524283108E+02  0.00000000000E+00 0. -1.
         11    1    4    4    0    0 -0.43833993492E+02 -0.11718270447E+01  0.46628512251E+02  0.64007892629E+02  0.00000000000E+00 0.  1.
         -1    1    1    2    0  502  0.51174002446E+02 -0.45731491205E+02 -0.39973761852E+02  0.79423229919E+02  0.00000000000E+00 0.  1.
<scales pt_clust_5="13000.00000" pt_clust_6="13000.00000" pt_clust_7="13000.00000" pt_clust_8="13000.00000" pt_clust_9="68.63052"></scales>
<clustering>
<clus scale="   68.631">  2  9  1 -1</clus>
<clus scale="   91.340">  7  8 -1 -1</clus>
<clus scale="   91.660">  5  6 -1 -1</clus>
<clus scale="   97.242">  2  7  1 -1</clus>
<clus scale="   68.631">  2  5  1 -1</clus>
</clustering>
</event>
<event>
 9    1  0.1601012E-005  0.1091400E+03  0.7546771E-02  0.1263338E+00
         -3   -1    0    0    0  501 -0.00000000000E+00  0.00000000000E+00  0.74373754567E+02  0.74373754567E+02  0.00000000000E+00 0.  1.
         21   -1    0    0  501  502  0.00000000000E+00 -0.00000000000E+00 -0.44745148326E+03  0.44745148326E+03  0.00000000000E+00 0.  1.
         23    2    1    2    0    0 -0.39594282204E+02  0.28010447791E+02 -0.16760343774E+02  0.10365030729E+03  0.90056563944E+02 0.  0.
         23    2    1    2    0    0  0.72961608100E+02 -0.23575954029E+02 -0.91705039782E+02  0.15143022793E+03  0.92962776116E+02 0.  0.
        -11    1    3    3    0    0 -0.13536932918E+02 -0.27923261090E+02 -0.26960458373E+02  0.41107461347E+02  0.00000000000E+00 0.  1.
         11    1    3    3    0    0 -0.26057349285E+02  0.55933708880E+02  0.10200114599E+02  0.62542845944E+02  0.00000000000E+00 0. -1.
        -13    1    4    4    0    0  0.44550240094E+02 -0.10415419339E+02  0.84231374466E+01  0.46520469655E+02  0.00000000000E+00 0.  1.
         13    1    4    4    0    0  0.28411368006E+02 -0.13160534690E+02 -0.10012817723E+03  0.10490975827E+03  0.00000000000E+00 0. -1.
         -3    1    1    2    0  502 -0.33367325896E+02 -0.44344937611E+01 -0.26461234514E+03  0.26674470261E+03  0.00000000000E+00 0.  1.
<scales pt_clust_5="13000.00000" pt_clust_6="13000.00000" pt_clust_7="13000.00000" pt_clust_8="13000.00000" pt_clust_9="33.66071"></scales>
<clustering>
<clus scale="   33.661">  2  9  1 -1</clus>
<clus scale="   90.057">  5  6 -1 -1</clus>
<clus scale="   92.963">  7  8 -1 -1</clus>
<clus scale="  106.675">  1  5  2 -1</clus>
<clus scale="   33.661">  2  5  1 -1</clus>
</clustering>
</event>
<event>
 9    1  0.1831823E-005  0.1205328E+03  0.7546771E-02  0.1243725E+00
         21   -1    0    0  501  502  0.00000000000E+00  0.00000000000E+00  0.14947022219E+03  0.14947022219E+03  0.00000000000E+00 0.  1.
          2   -1    0    0  502    0 -0.00000000000E+00 -0.00000000000E+00 -0.37772744993E+03  0.37772744993E+03  0.00000000000E+00 0. -1.
         23    2    1    2    0    0 -0.39708250489E+02 -0.60994438767E+02 -0.28627311574E+03  0.31034649242E+03  0.95213349095E+02 0.  0.
         23    2    1    2    0    0  0.94255096587E+02  0.37018862811E+02  0.74589831757E+02  0.15500554708E+03  0.90601640090E+02 0.  0.
        -11    1    3    3    0    0 -0.67159820738E+02 -0.43816732393E+02 -0.24558098230E+03  0.25834156930E+03  0.00000000000E+00 0. -1.
         11    1    3    3    0    0  0.27451570249E+02 -0.17177706374E+02 -0.40692133441E+02  0.52004923126E+02  0.00000000000E+00 0.  1.
        -11    1    4    4    0    0  0.87287740417E+02  0.57528957575E+02  0.35660253737E+02  0.11045534973E+03  0.00000000000E+00 0. -1.
         11    1    4    4    0    0  0.69673561705E+01 -0.20510094764E+02  0.38929578020E+02  0.44550197351E+02  0.00000000000E+00 0.  1.
          2    1    1    2  501    0 -0.54546846098E+02  0.23975575956E+02 -0.16573943757E+02  0.61845632613E+02  0.00000000000E+00 0. -1.
<scales pt_clust_5="13000.00000" pt_clust_6="13000.00000" pt_clust_7="13000.00000" pt_clust_8="13000.00000" pt_clust_9="59.58344"></scales>
<clustering>
<clus scale="   59.583">  1  9  2 -1</clus>
<clus scale="   90.602">  7  8 -1 -1</clus>
<clus scale="   95.213">  5  6 -1 -1</clus>
<clus scale="  116.924">  1  7  2 -1</clus>
<clus scale="   59.583">  1  5  2 -1</clus>
</clustering>
</event>
<event>
 9    1  0.1601012E-005  0.1186446E+03  0.7546771E-02  0.1247752E+00
         21   -1    0    0  501  502  0.00000000000E+00  0.00000000000E+00  0.13477668769E+03  0.13477668769E+03  0.00000000000E+00 0.  1.
          1   -1    0    0  502    0 -0.00000000000E+00 -0.00000000000E+00 -0.14515610808E+03  0.14515610808E+03  0.00000000000E+00 0. -1.
         23    2    1    2    0    0  0.60783572101E+02  0.69286647842E+02 -0.25070398645E+02  0.12751336952E+03  0.84473974169E+02 0.  0.
         23    2    1    2    0    0 -0.47970389248E+02 -0.28216298201E+02  0.19506604323E+02  0.10912806997E+03  0.91821077718E+02 0.  0.
        -13    1    4    4    0    0 -0.41752282438E+02  0.19534531404E+02 -0.16543413443E+02  0.48974845934E+02  0.00000000000E+00 0.  1.
         13    1    4    4    0    0 -0.62181068102E+01 -0.47750829606E+02  0.36050017766E+02  0.60153224031E+02  0.00000000000E+00 0. -1.
        -13    1    3    3    0    0  0.38522156475E+02  0.30018786431E+02  0.29218198126E+02  0.56910343349E+02  0.00000000000E+00 0.  1.
         13    1    3    3    0    0  0.22261415626E+02  0.39267861410E+02 -0.54288596771E+02  0.70603026173E+02  0.00000000000E+00 0. -1.
          1    1    1    2  501    0 -0.12813182853E+02 -0.41070349640E+02 -0.48156260734E+01  0.43291356284E+02  0.00000000000E+00 0. -1.
<scales pt_clust_5="13000.00000" pt_clust_6="13000.00000" pt_clust_7="13000.00000" pt_clust_8="13000.00000" pt_clust_9="43.02270"></scales>
<clustering>
<clus scale="   43.023">  1  9  2 -1</clus>
<clus scale="   84.474">  7  8 -1 -1</clus>
<clus scale="   91.821">  5  6 -1 -1</clus>
<clus scale="  113.054">  2  7  1 -1</clus>
<clus scale="   43.023">  1  5  2 -1</clus>
</clustering>
</event>
<event>
 9    1  0.1601012E-005  0.9805639E+02  0.7546771E-02  0.1285750E+00
         -1   -1    0    0    0  501 -0.00000000000E+00  0.00000000000E+00  0.39783625316E+03  0.39783625316E+03  0.00000000000E+00 0.  1.
         21   -1    0    0  501  502  0.00000000000E+00 -0.00000000000E+00 -0.58941256429E+02  0.58941256429E+02  0.00000000000E+00 0. -1.
         23    2    1    2    0    0 -0.21275750929E+02  0.38120082930E+02  0.26570744315E+03  0.28445581065E+03  0.91699861331E+02 0.  0.
         23    2    1    2    0    0  0.25453617155E+02 -0.21961244743E+01  0.92799237188E+02  0.13118043630E+03  0.89128552421E+02 0.  0.
        -11    1    3    3    0    0 -0.11837664333E+02  0.65667377157E+02  0.13558055180E+03  0.15111062420E+03  0.00000000000E+00 0.  1.
         11    1    3    3    0    0 -0.94380865964E+01 -0.27547294227E+02  0.13012689134E+03  0.13334518645E+03  0.00000000000E+00 0. -1.
        -13    1    4    4    0    0  0.11727940779E+02 -0.19029848528E+02  0.10425487135E+03  0.10662437775E+03  0.00000000000E+00 0.  1.
         13    1    4    4    0    0  0.13725676376E+02  0.16833724053E+02 -0.11455634164E+02  0.24556058551E+02  0.00000000000E+00 0. -1.
         -1    1    1    2    0  502 -0.41778662260E+01 -0.35923958456E+02 -0.19611683607E+02  0.41141262636E+02  0.00000000000E+00 0.  1.
<scales pt_clust_5="13000.00000" pt_clust_6="13000.00000" pt_clust_7="13000.00000" pt_clust_8="13000.00000" pt_clust_9="36.16608"></scales>
<clustering>
<clus scale="   36.166">  2  9  1 -1</clus>
<clus scale="   89.129">  7  8 -1 -1</clus>
<clus scale="   91.700">  5  6 -1 -1</clus>
<clus scale="   95.656">  2  7  1 -1</clus>
<clus scale="   36.166">  2  5  1 -1</clus>
</clustering>
</event>
<event>
 9    1  0.1601012E-005  0.1806073E+03  0.7546771E-02  0.1167287E+00
          1   -1    0    0  502    0 -0.00000000000E+00  0.00000000000E+00  0.10030156340E+04  0.10030156340E+04  0.00000000000E+00 0. -1.
         21   -1    0    0  501  502  0.00000000000E+00 -0.00000000000E+00 -0.89492970744E+02  0.89492970744E+02  0.00000000000E+00 0.  1.
         23    2    1    2    0    0  0.44473108059E+02 -0.15072593677E+03  0.79984844318E+03  0.82002237383E+03  0.89347614285E+02 0.  0.
         23    2    1    2    0    0 -0.66348976766E+02  0.14287814000E+03  0.14618970392E+03  0.23251876619E+03  0.88753577328E+02 0.  0.
        -11    1    3    3    0    0  0.58493767695E+02 -0.48998176786E+02  0.39891022690E+03  0.40614247662E+03  0.00000000000E+00 0.  1.
         11    1    3    3    0    0 -0.14020659636E+02 -0.10172775998E+03  0.40093821628E+03  0.41387989722E+03  0.00000000000E+00 0. -1.
        -13    1    4    4    0    0 -0.66005217120E+02  0.62344608437E+02  0.39924059231E+02  0.99184017834E+02  0.00000000000E+00 0.  1.
         13    1    4    4    0    0 -0.34375964539E+00  0.80533531562E+02  0.10626564469E+03  0.13333474835E+03  0.00000000000E+00 0. -1.
          1    1    1    2  501    0  0.21875868707E+02  0.78477967696E+01 -0.32515483851E+02  0.39967464717E+02  0.00000000000E+00 0. -1.
<scales pt_clust_5="13000.00000" pt_clust_6="13000.00000" pt_clust_7="13000.00000" pt_clust_8="13000.00000" pt_clust_9="23.24095"></scales>
<clustering>
<clus scale="   23.241">  2  9  1 -1</clus>
<clus scale="   88.754">  7  8 -1 -1</clus>
<clus scale="   89.348">  5  6 -1 -1</clus>
<clus scale="  180.314">  2  7  1 -1</clus>
<clus scale="   23.241">  2  5  1 -1</clus>
</clustering>
</event>
<event>
 9    1  0.1601012E-005  0.1020148E+03  0.7546771E-02  0.1276225E+00
         21   -1    0    0  501  502  0.00000000000E+00  0.00000000000E+00  0.14707680255E+03  0.14707680255E+03  0.00000000000E+00 0. -1.
          1   -1    0    0  502    0 -0.00000000000E+00 -0.00000000000E+00 -0.19292905122E+03  0.19292905122E+03  0.00000000000E+00 0. -1.
         23    2    1    2    0    0  0.39901346366E+02  0.30523603888E+02 -0.79076120660E+02  0.12850676057E+03  0.87961052850E+02 0.  0.
         23    2    1    2    0    0 -0.73077897195E+02  0.37358555067E+02 -0.15672479691E+02  0.12150173636E+03  0.88210002968E+02 0.  0.
        -11    1    3    3    0    0  0.50646900777E+02 -0.58061994121E+01 -0.13438584649E+02  0.52720167558E+02  0.00000000000E+00 0.  1.
         11    1    3    3    0    0 -0.10745554411E+02  0.36329803300E+02 -0.65637536011E+02  0.75786593016E+02  0.00000000000E+00 0. -1.
        -13    1    4    4    0    0 -0.41691409361E+02  0.65133722309E+02 -0.18429020789E+02  0.79499711971E+02  0.00000000000E+00 0. -1.
         13    1    4    4    0    0 -0.31386487834E+02 -0.27775167242E+02  0.27565410980E+01  0.42002024388E+02  0.00000000000E+00 0.  1.
          1    1    1    2  501    0  0.33176550829E+02 -0.67882158955E+02  0.48896351680E+02  0.89997356833E+02  0.00000000000E+00 0. -1.
<scales pt_clust_5="13000.00000" pt_clust_6="13000.00000" pt_clust_7="13000.00000" pt_clust_8="13000.00000" pt_clust_9="75.55575"></scales>
<clustering>
<clus scale="   75.556">  1  9  2 -1</clus>
<clus scale="   87.961">  5  6 -1 -1</clus>
<clus scale="   88.210">  7  8 -1 -1</clus>
<clus scale="  101.800">  2  5  1 -1</clus>
<clus scale="   75.556">  1  5  2 -1</clus>
</clustering>
</event>
<event>
 9    1  0.1601012E-005  0.1680053E+03  0.7546771E-02  0.1179985E+00
         21   -1    0    0  501  502  0.00000000000E+00  0.00000000000E+00  0.10546528214E+04  0.10546528214E+04  0.00000000000E+00 0. -1.
          3   -1    0    0  502    0 -0.00000000000E+00 -0.00000000000E+00 -0.82438165920E+02  0.82438165920E+02  0.00000000000E+00 0. -1.
         23    2    1    2    0    0 -0.16790178621E+03 -0.20760459546E+02  0.10177147001E+03  0.21788996584E+03  0.92176996113E+02 0.  0.
         23    2    1    2    0    0  0.58379939942E+02  0.99138397643E+02  0.31808553025E+03  0.35066156351E+03  0.92458035313E+02 0.  0.
        -11    1    3    3    0    0 -0.26862589231E+01 -0.21771747529E+02  0.31411942930E+02  0.38313641645E+02  0.00000000000E+00 0.  1.
         11    1    3    3    0    0 -0.16521552728E+03  0.10112879829E+01  0.70359527075E+02  0.17957632419E+03  0.00000000000E+00 0. -1.
        -13    1    4    4    0    0  0.58093090843E+02  0.20840954754E+02  0.86975725788E+02  0.10664862622E+03  0.00000000000E+00 0.  1.
         13    1    4    4    0    0  0.28684909889E+00  0.78297442888E+02  0.23110980446E+03  0.24401293729E+03  0.00000000000E+00 0. -1.
          3    1    1    2  501    0  0.10952184627E+03 -0.78377938096E+02  0.55235765520E+03  0.56853945795E+03  0.00000000000E+00 0. -1.
<scales pt_clust_5="13000.00000" pt_clust_6="13000.00000" pt_clust_7="13000.00000" pt_clust_8="13000.00000" pt_clust_9="134.67790"></scales>
<clustering>
<clus scale="   92.177">  5  6 -1 -1</clus>
<clus scale="   92.458">  7  8 -1 -1</clus>
<clus scale="  134.678">  1  9  2 -1</clus>
<clus scale="  167.851">  2  5  1 -1</clus>
<clus scale="  134.678">  1  5  2 -1</clus>
</clustering>
</event>
<event>
 9    1  0.1601012E-005  0.9861286E+02  0.7546771E-02  0.1283455E+00
         21   -1    0    0  501  502  0.00000000000E+00  0.00000000000E+00  0.49102984684E+03  0.49102984684E+03  0.00000000000E+00 0. -1.
          3   -1    0    0  502    0 -0.00000000000E+00 -0.00000000000E+00 -0.39107625652E+02  0.39107625652E+02  0.00000000000E+00 0. -1.
         23    2    1    2    0    0  0.17190617928E+02 -0.43324982155E+02  0.88838051700E+02  0.13616217938E+03  0.92061763185E+02 0.  0.
         23    2    1    2    0    0 -0.17337089991E+02  0.13822638306E+02  0.13899031322E+03  0.16794771479E+03  0.91632350800E+02 0.  0.
        -11    1    3    3    0    0  0.46767518065E+02 -0.43325557309E+02  0.30320934997E+02  0.70595068959E+02  0.00000000000E+00 0. -1.
         11    1    3    3    0    0 -0.29576900137E+02  0.57515406515E-03  0.58517116703E+02  0.65567110423E+02  0.00000000000E+00 0.  1.
        -13    1    4    4    0    0 -0.14340218658E+02  0.50794528111E+02  0.10552984554E+03  0.11799268730E+03  0.00000000000E+00 0.  1.
         13    1    4    4    0    0 -0.29968713325E+01 -0.36971889805E+02  0.33460467689E+02  0.49955027489E+02  0.00000000000E+00 0. -1.
          3    1    1    2  501    0  0.14647206246E+00  0.29502343849E+02  0.22409385626E+03  0.22602757832E+03  0.00000000000E+00 0. -1.
<scales pt_clust_5="13000.00000" pt_clust_6="13000.00000" pt_clust_7="13000.00000" pt_clust_8="13000.00000" pt_clust_9="29.50271"></scales>
<clustering>
<clus scale="   29.503">  1  9  2 -1</clus>
<clus scale="   91.632">  7  8 -1 -1</clus>
<clus scale="   92.062">  5  6 -1 -1</clus>
<clus scale="   98.212">  1  7  2 -1</clus>
<clus scale="   29.503">  1  5  2 -1</clus>
</clustering>
</event>
<event>
 9    1  0.1601012E-005  0.1185734E+03  0.7546771E-02  0.1245520E+00
         21   -1    0    0  501  502  0.00000000000E+00  0.00000000000E+00  0.12314140660E+03  0.12314140660E+03  0.00000000000E+00 0. -1.
          1   -1    0    0  502    0 -0.00000000000E+00 -0.00000000000E+00 -0.40118559774E+03  0.40118559774E+03  0.00000000000E+00 0. -1.
         23    2    1    2    0    0  0.77774620931E+02 -0.73022176526E+02 -0.24130613660E+03  0.27889182984E+03  0.90392871751E+02 0.  0.
         23    2    1    2    0    0  0.29198824599E+02  0.57439960762E+02 -0.71182503657E+02  0.13197794216E+03  0.90550030038E+02 0.  0.
        -13    1    3    3    0    0  0.82858804593E+02 -0.44666291221E+02 -0.11146934248E+03  0.14589747559E+03  0.00000000000E+00 0.  1.
         13    1    3    3    0    0 -0.50841836617E+01 -0.28355885305E+02 -0.12983679412E+03  0.13299435425E+03  0.00000000000E+00 0. -1.
        -13    1    4    4    0    0  0.19981272327E+02 -0.13658066236E+02 -0.52622118903E+02  0.57921338166E+02  0.00000000000E+00 0. -1.
         13    1    4    4    0    0  0.92175522715E+01  0.71098026999E+02 -0.18560384754E+02  0.74056603995E+02  0.00000000000E+00 0.  1.
          1    1    1    2  501    0 -0.10697344553E+03  0.15582215764E+02  0.34444449110E+02  0.11345723234E+03  0.00000000000E+00 0. -1.
<scales pt_clust_5="13000.00000" pt_clust_6="13000.00000" pt_clust_7="13000.00000" pt_clust_8="13000.00000" pt_clust_9="108.10238"></scales>
<clustering>
<clus scale="   90.393">  5  6 -1 -1</clus>
<clus scale="   90.550">  7  8 -1 -1</clus>
<clus scale="  108.102">  1  9  2 -1</clus>
<clus scale="  118.453">  2  5  1 -1</clus>
<clus scale="  108.102">  1  5  2 -1</clus>
</clustering>
</event>
<event>
 9    1  0.1601012E-005  0.1253019E+03  0.7546771E-02  0.1241549E+00
         -1   -1    0    0    0  501 -0.00000000000E+00  0.00000000000E+00  0.12579680998E+03  0.12579680998E+03  0.00000000000E+00 0.  1.
         21   -1    0    0  501  502  0.00000000000E+00 -0.00000000000E+00 -0.24323650613E+03  0.24323650613E+03  0.00000000000E+00 0. -1.
         23    2    1    2    0    0  0.76492046978E+01 -0.55258917343E+02  0.43841112322E+02  0.13083226093E+03  0.10992260501E+03 0.  0.
         23    2    1    2    0    0  0.10368218796E+02  0.70048196707E+02 -0.51553989027E+02  0.12602563345E+03  0.90611239257E+02 0.  0.
        -11    1    3    3    0    0 -0.32910887084E+02  0.17079824860E+02  0.27844390686E+02  0.46369785406E+02  0.00000000000E+00 0.  1.
         11    1    3    3    0    0  0.40560091782E+02 -0.72338742203E+02  0.15996721635E+02  0.84462475526E+02  0.00000000000E+00 0. -1.
        -13    1    4    4    0    0 -0.40316977989E+02  0.34835320373E+02 -0.23859023381E+02  0.58379887430E+02  0.00000000000E+00 0.  1.
         13    1    4    4    0    0  0.50685196785E+02  0.35212876334E+02 -0.27694965647E+02  0.67645746023E+02  0.00000000000E+00 0. -1.
         -1    1    1    2    0  502 -0.18017423494E+02 -0.14789279364E+02 -0.10972681944E+03  0.11217542172E+03  0.00000000000E+00 0.  1.
<scales pt_clust_5="13000.00000" pt_clust_6="13000.00000" pt_clust_7="13000.00000" pt_clust_8="13000.00000" pt_clust_9="23.30988"></scales>
<clustering>
<clus scale="   23.310">  2  9  1 -1</clus>
<clus scale="   90.611">  7  8 -1 -1</clus>
<clus scale="  108.757">  2  7  1 -1</clus>
<clus scale="  109.923">  5  6 -1 -1</clus>
<clus scale="   23.310">  2  5  1 -1</clus>
</clustering>
</event>
<event>
 9    1  0.1601012E-005  0.1506015E+03  0.7546771E-02  0.1200104E+00
         21   -1    0    0  501  502  0.00000000000E+00  0.00000000000E+00  0.11499480909E+03  0.11499480909E+03  0.00000000000E+00 0.  1.
          1   -1    0    0  502    0 -0.00000000000E+00 -0.00000000000E+00 -0.33558272596E+03  0.33558272596E+03  0.00000000000E+00 0. -1.
         23    2    1    2    0    0 -0.69035869053E+02 -0.10041021400E+03 -0.22935729744E+03  0.27616601188E+03  0.93886814506E+02 0.  0.
         23    2    1    2    0    0  0.48289382712E+02  0.95931991129E+02 -0.15427846691E+02  0.14222492685E+03  0.91951617491E+02 0.  0.
        -13    1    3    3    0    0 -0.77051889624E+02 -0.30894671186E+02 -0.13867421289E+03  0.16162305443E+03  0.00000000000E+00 0.  1.
         13    1    3    3    0    0  0.80160205709E+01 -0.69515542813E+02 -0.90683084551E+02  0.11454295745E+03  0.00000000000E+00 0. -1.
        -13    1    4    4    0    0 -0.66442222902E+01  0.80058666860E+02  0.73602912720E+01  0.80670376947E+02  0.00000000000E+00 0.  1.
         13    1    4    4    0    0  0.54933605002E+02  0.15873324269E+02 -0.22788137963E+02  0.61554549903E+02  0.00000000000E+00 0. -1.
          1    1    1    2  501    0  0.20746486341E+02  0.44782228701E+01  0.24197227256E+02  0.32186596317E+02  0.00000000000E+00 0. -1.
<scales pt_clust_5="13000.00000" pt_clust_6="13000.00000" pt_clust_7="13000.00000" pt_clust_8="13000.00000" pt_clust_9="21.22431"></scales>
<clustering>
<clus scale="   21.224">  1  9  2 -1</clus>
<clus scale="   91.952">  7  8 -1 -1</clus>
<clus scale="   93.887">  5  6 -1 -1</clus>
<clus scale="  149.403">  1  7  2 -1</clus>
<clus scale="   21.224">  1  5  2 -1</clus>
</clustering>
</event>
<event>
 9    1  0.1601012E-005  0.1110801E+03  0.7546771E-02  0.1258768E+00
         21   -1    0    0  501  502  0.00000000000E+00  0.00000000000E+00  0.30276304935E+03  0.30276304935E+03  0.00000000000E+00 0. -1.
          3   -1    0    0  502    0 -0.00000000000E+00 -0.00000000000E+00 -0.14263450049E+03  0.14263450049E+03  0.00000000000E+00 0. -1.
         23    2    1    2    0    0  0.39111954085E+02  0.56134132431E+02 -0.99731512582E+02  0.15133262413E+03  0.90963744144E+02 0.  0.
         23    2    1    2    0    0 -0.10040368530E+02 -0.25470397316E+02  0.19424555668E+03  0.21602208509E+03  0.90469082105E+02 0.  0.
        -11    1    4    4    0    0 -0.44237089211E+02 -0.76028379399E+01  0.52271699403E+02  0.68898866210E+02  0.00000000000E+00 0.  1.
         11    1    4    4    0    0  0.34196720681E+02 -0.17867559376E+02  0.14197385728E+03  0.14712321888E+03  0.00000000000E+00 0. -1.
        -13    1    3    3    0    0 -0.25121524523E+02  0.12797070657E+00 -0.85768994485E+01  0.26545631938E+02  0.00000000000E+00 0.  1.
         13    1    3    3    0    0  0.64233478608E+02  0.56006161725E+02 -0.91154613134E+02  0.12478699219E+03  0.00000000000E+00 0. -1.
          3    1    1    2  501    0 -0.29071585554E+02 -0.30663735116E+02  0.65614504764E+02  0.78042840628E+02  0.00000000000E+00 0. -1.
<scales pt_clust_5="13000.00000" pt_clust_6="13000.00000" pt_clust_7="13000.00000" pt_clust_8="13000.00000" pt_clust_9="42.25425"></scales>
<clustering>
<clus scale="   42.254">  1  9  2 -1</clus>
<clus scale="   90.469">  5  6 -1 -1</clus>
<clus scale="   90.964">  7  8 -1 -1</clus>
<clus scale="  110.675">  1  5  2 -1</clus>
<clus scale="   42.254">  1  5  2 -1</clus>
</clustering>
</event>
<event>
 9    1  0.1601012E-005  0.9981098E+02  0.7546771E-02  0.1282958E+00
          1   -1    0    0  502    0 -0.00000000000E+00  0.00000000000E+00  0.47623600339E+03  0.47623600339E+03  0.00000000000E+00 0. -1.
         21   -1    0    0  501  502  0.00000000000E+00 -0.00000000000E+00 -0.57221349972E+02  0.57221349972E+02  0.00000000000E+00 0. -1.
         23    2    1    2    0    0 -0.10557351575E+02 -0.28687605772E+02  0.24887332777E+03  0.26520814138E+03  0.86388590587E+02 0.  0.
         23    2    1    2    0    0  0.37509005250E+02  0.47292604713E+02  0.19742911943E+03  0.22562103690E+03  0.91011423221E+02 0.  0.
        -11    1    4    4    0    0  0.61608113253E+02  0.40894163711E+02  0.18162351652E+03  0.19609944925E+03  0.00000000000E+00 0. -1.
         11    1    4    4    0    0 -0.24099108003E+02  0.63984410023E+01  0.15805602912E+02  0.29521587647E+02  0.00000000000E+00 0.  1.
        -13    1    3    3    0    0 -0.20692423762E+02  0.25472439401E+02  0.59134644485E+02  0.67630819517E+02  0.00000000000E+00 0.  1.
         13    1    3    3    0    0  0.10135072187E+02 -0.54160045172E+02  0.18973868328E+03  0.19757732186E+03  0.00000000000E+00 0. -1.
          1    1    1    2  501    0 -0.26951653675E+02 -0.18604998942E+02 -0.27287793780E+02  0.42628175082E+02  0.00000000000E+00 0. -1.
<scales pt_clust_5="13000.00000" pt_clust_6="13000.00000" pt_clust_7="13000.00000" pt_clust_8="13000.00000" pt_clust_9="32.74962"></scales>
<clustering>
<clus scale="   32.750">  2  9  1 -1</clus>
<clus scale="   86.389">  7  8 -1 -1</clus>
<clus scale="   91.011">  5  6 -1 -1</clus>
<clus scale="   95.615">  1  7  2 -1</clus>
<clus scale="   32.750">  2  5  1 -1</clus>
</clustering>
</event>
<event>
 9    1  0.1722478E-005  0.1547927E+03  0.7546771E-02  0.1194726E+00
         21   -1    0    0  501  502  0.00000000000E+00  0.00000000000E+00  0.13958884984E+03  0.13958884984E+03  0.00000000000E+00 0. -1.
         -3   -1    0    0    0  501 -0.00000000000E+00 -0.00000000000E+00 -0.39186185783E+03  0.39186185783E+03  0.00000000000E+00 0.  1.
         23    2    1    2    0    0  0.71854427272E+02  0.99447023134E+02 -0.27818358366E+03  0.31747369895E+03  0.91382023258E+02 0.  0.
         23    2    1    2    0    0 -0.10613034448E+03 -0.92197848517E+02  0.45718105454E+02  0.17373117330E+03  0.91259422087E+02 0.  0.
        -11    1    3    3    0    0  0.53741100789E+02  0.11631342485E+03 -0.22872330879E+03  0.26216649423E+03  0.00000000000E+00 0.  1.
         11    1    3    3    0    0  0.18113326482E+02 -0.16866401712E+02 -0.49460274870E+02  0.55307204713E+02  0.00000000000E+00 0. -1.
        -13    1    4    4    0    0  0.23693309592E+01 -0.33812547131E+02 -0.14167706098E+02  0.36737255868E+02  0.00000000000E+00 0.  1.
         13    1    4    4    0    0 -0.10849967544E+03 -0.58385301387E+02  0.59885811552E+02  0.13699391743E+03  0.00000000000E+00 0. -1.
         -3    1    1    2    0  502  0.34275917208E+02 -0.72491746163E+01 -0.19807529777E+02  0.40245835424E+02  0.00000000000E+00 0.  1.
<scales pt_clust_5="13000.00000" pt_clust_6="13000.00000" pt_clust_7="13000.00000" pt_clust_8="13000.00000" pt_clust_9="35.03413"></scales>
<clustering>
<clus scale="   35.034">  1  9  2 -1</clus>
<clus scale="   91.259">  7  8 -1 -1</clus>
<clus scale="   91.382">  5  6 -1 -1</clus>
<clus scale="  154.720">  1  7  2 -1</clus>
<clus scale="   35.034">  1  5  2 -1</clus>
</clustering>
</event>
<event>
 9    1  0.1601012E-005  0.1148302E+03  0.7546771E-02  0.1252594E+00
         -1   -1    0    0    0  501 -0.00000000000E+00  0.00000000000E+00  0.73182531123E+03  0.73182531123E+03  0.00000000000E+00 0.  1.
         21   -1    0    0  501  502  0.00000000000E+00 -0.00000000000E+00 -0.63025062868E+02  0.63025062868E+02  0.00000000000E+00 0.  1.
         23    2    1    2    0    0  0.53368520324E+02  0.33573636661E+02  0.42967323102E+03  0.44356891146E+03  0.90326661187E+02 0.  0.
         23    2    1    2    0    0 -0.87800780544E+02 -0.18598187393E+02  0.27305911169E+03  0.30067285021E+03  0.88249729388E+02 0.  0.
        -11    1    3    3    0    0  0.68534794369E+02 -0.43842395020E+01  0.24628937950E+03  0.25568476304E+03  0.00000000000E+00 0. -1.
         11    1    3    3    0    0 -0.15166274045E+02  0.37957876163E+02  0.18338385152E+03  0.18788414843E+03  0.00000000000E+00 0.  1.
        -11    1    4    4    0    0 -0.10146282500E+03  0.15357635845E+01  0.22390669719E+03  0.24582772926E+03  0.00000000000E+00 0.  1.
         11    1    4    4    0    0  0.13662044455E+02 -0.20133950977E+02  0.49152414506E+02  0.54845120953E+02  0.00000000000E+00 0. -1.
         -1    1    1    2    0  502  0.34432260220E+02 -0.14975449268E+02 -0.33932094349E+02  0.50608612425E+02  0.00000000000E+00 0.  1.
<scales pt_clust_5="13000.00000" pt_clust_6="13000.00000" pt_clust_7="13000.00000" pt_clust_8="13000.00000" pt_clust_9="37.54790"></scales>
<clustering>
<clus scale="   37.548">  2  9  1 -1</clus>
<clus scale="   88.250">  7  8 -1 -1</clus>
<clus scale="   90.327">  5  6 -1 -1</clus>
<clus scale="  113.204">  2  7  1 -1</clus>
<clus scale="   37.548">  2  5  1 -1</clus>
</clustering>
</event>
<event>
 9    1  0.1601012E-005  0.2516939E+03  0.7546771E-02  0.1112288E+00
         21   -1    0    0  501  502  0.00000000000E+00  0.00000000000E+00  0.49976225360E+03  0.49976225360E+03  0.00000000000E+00 0. -1.
          4   -1    0    0  502    0 -0.00000000000E+00 -0.00000000000E+00 -0.19026726552E+03  0.19026726552E+03  0.00000000000E+00 0. -1.
         23    2    1    2    0    0 -0.79437558542E+02 -0.18075500224E+03  0.11078590477E+03  0.24420663766E+03  0.91545991926E+02 0.  0.
         23    2    1    2    0    0  0.14145910695E+03  0.23569166503E+03  0.78646328163E+02  0.29994699395E+03  0.90673669506E+02 0.  0.
        -11    1    3    3    0    0 -0.54618191627E+02 -0.18316799469E+03  0.87980283304E+02  0.21041433266E+03  0.00000000000E+00 0.  1.
         11    1    3    3    0    0 -0.24819366915E+02  0.24129924558E+01  0.22805621469E+02  0.33792305000E+02  0.00000000000E+00 0. -1.
        -11    1    4    4    0    0  0.75824581222E+01  0.43373607598E+02  0.45448812194E+02  0.63279997132E+02  0.00000000000E+00 0.  1.
         11    1    4    4    0    0  0.13387664882E+03  0.19231805743E+03  0.33197515969E+02  0.23666699681E+03  0.00000000000E+00 0. -1.
          4    1    1    2  501    0 -0.62021548404E+02 -0.54936662792E+02  0.12006275515E+03  0.14587588751E+03  0.00000000000E+00 0. -1.
<scales pt_clust_5="13000.00000" pt_clust_6="13000.00000" pt_clust_7="13000.00000" pt_clust_8="13000.00000" pt_clust_9="82.85354"></scales>
<clustering>
<clus scale="   82.854">  1  9  2 -1</clus>
<clus scale="   90.674">  7  8 -1 -1</clus>
<clus scale="   91.546">  5  6 -1 -1</clus>
<clus scale="  251.378">  1  7  2 -1</clus>
<clus scale="   82.854">  1  5  2 -1</clus>
</clustering>
</event>
<event>
 9    1  0.1601012E-005  0.1593180E+03  0.7546771E-02  0.1196743E+00
         21   -1    0    0  501  502  0.00000000000E+00  0.00000000000E+00  0.86810848900E+03  0.86810848900E+03  0.00000000000E+00 0. -1.
          3   -1    0    0  502    0 -0.00000000000E+00 -0.00000000000E+00 -0.72432123940E+02  0.72432123940E+02  0.00000000000E+00 0. -1.
         23    2    1    2    0    0  0.92566373662E+02  0.39155463408E+02  0.70753198634E+02  0.15310820181E+03  0.91293058323E+02 0.  0.
         23    2    1    2    0    0 -0.67963841940E+02  0.10638358822E+03  0.31075828237E+03  0.34775133205E+03  0.91780865254E+02 0.  0.
        -11    1    3    3    0    0  0.18234421837E+02 -0.29073636838E+02  0.12033458740E+02  0.36367219140E+02  0.00000000000E+00 0.  1.
         11    1    3    3    0    0  0.74331951825E+02  0.68229100245E+02  0.58719739893E+02  0.11674098267E+03  0.00000000000E+00 0. -1.
        -11    1    4    4    0    0 -0.17685274533E+02  0.10218789413E+03  0.18220211548E+03  0.20964910095E+03  0.00000000000E+00 0. -1.
         11    1    4    4    0    0 -0.50278567407E+02  0.41956940826E+01  0.12855616690E+03  0.13810223111E+03  0.00000000000E+00 0.  1.
          3    1    1    2  501    0 -0.24602531722E+02 -0.14553905163E+03  0.41416488406E+03  0.43968107908E+03  0.00000000000E+00 0. -1.
<scales pt_clust_5="13000.00000" pt_clust_6="13000.00000" pt_clust_7="13000.00000" pt_clust_8="13000.00000" pt_clust_9="130.22483"></scales>
<clustering>
<clus scale="   91.293">  5  6 -1 -1</clus>
<clus scale="   91.781">  7  8 -1 -1</clus>
<clus scale="  135.780">  2  5  1 -1</clus>
<clus scale="  130.225">  1  9  2 -1</clus>
<clus scale="  130.225">  1  5  2 -1</clus>
</clustering>
</event>
<event>
 9    1  0.1601012E-005  0.9832098E+02  0.7546771E-02  0.1284638E+00
         -2   -1    0    0    0  501 -0.00000000000E+00  0.00000000000E+00  0.92866675663E+02  0.92866675663E+02  0.00000000000E+00 0.  1.
         21   -1    0    0  501  502  0.00000000000E+00 -0.00000000000E+00 -0.45978807536E+03  0.45978807536E+03  0.00000000000E+00 0. -1.
         23    2    1    2    0    0 -0.11835342266E+02  0.27894914034E+02  0.24321219511E+02  0.99117812595E+02  0.91184524452E+02 0.  0.
         23    2    1    2    0    0  0.58688362723E+02 -0.26951056300E+02 -0.74295269402E+02  0.13314386899E+03  0.89648309743E+02 0.  0.
        -11    1    3    3    0    0  0.10301521898E+02  0.42646285402E+02  0.46902996622E+02  0.64223968299E+02  0.00000000000E+00 0.  1.
         11    1    3    3    0    0 -0.22136864164E+02 -0.14751371368E+02 -0.22581777111E+02  0.34893844296E+02  0.00000000000E+00 0. -1.
        -11    1    4    4    0    0  0.12987339770E+02  0.32677300647E+02 -0.20034194707E+02  0.40470309233E+02  0.00000000000E+00 0.  1.
         11    1    4    4    0    0  0.45701022954E+02 -0.59628356947E+02 -0.54261074695E+02  0.92673559758E+02  0.00000000000E+00 0. -1.
         -2    1    1    2    0  502 -0.46853020457E+02 -0.94385773387E+00 -0.31694734981E+03  0.32039306944E+03  0.00000000000E+00 0.  1.
<scales pt_clust_5="13000.00000" pt_clust_6="13000.00000" pt_clust_7="13000.00000" pt_clust_8="13000.00000" pt_clust_9="46.86253"></scales>
<clustering>
<clus scale="   46.863">  2  9  1 -1</clus>
<clus scale="   89.648">  7  8 -1 -1</clus>
<clus scale="   91.185">  5  6 -1 -1</clus>
<clus scale="   96.898">  2  7  1 -1</clus>
<clus scale="   46.863">  2  5  1 -1</clus>
</clustering>
</event>
<event>
 9    1  0.1601012E-005  0.1583147E+03  0.7546771E-02  0.1225766E+00
         21   -1    0    0  501  502  0.00000000000E+00  0.00000000000E+00  0.35790742011E+03  0.35790742011E+03  0.00000000000E+00 0.  1.
         -3   -1    0    0    0  501 -0.00000000000E+00 -0.00000000000E+00 -0.92884437537E+02  0.92884437537E+02  0.00000000000E+00 0.  1.
         23    2    1    2    0    0  0.73052367406E+01 -0.17806301470E+02  0.40635510419E+02  0.84906355191E+02  0.72023701578E+02 0.  0.
         23    2    1    2    0    0  0.54842748611E+02  0.12149466162E+03  0.16117326103E+03  0.22946818463E+03  0.94393579278E+02 0.  0.
        -11    1    4    4    0    0  0.31341167626E+01  0.60523437891E+02  0.13041692415E+03  0.14381058141E+03  0.00000000000E+00 0.  1.
         11    1    4    4    0    0  0.51708631848E+02  0.60971223732E+02  0.30756336885E+02  0.85657603221E+02  0.00000000000E+00 0. -1.
        -13    1    3    3    0    0  0.38652089857E+02 -0.15912257052E+02  0.15142729341E+02  0.44457690298E+02  0.00000000000E+00 0. -1.
         13    1    3    3    0    0 -0.31346853116E+02 -0.18940444179E+01  0.25492781078E+02  0.40448664893E+02  0.00000000000E+00 0.  1.
         -3    1    1    2    0  502 -0.62147985352E+02 -0.10368836015E+03  0.63214211123E+02  0.13641731782E+03  0.00000000000E+00 0.  1.
<scales pt_clust_5="13000.00000" pt_clust_6="13000.00000" pt_clust_7="13000.00000" pt_clust_8="13000.00000" pt_clust_9="127.09604"></scales>
<clustering>
<clus scale="   72.024">  7  8 -1 -1</clus>
<clus scale="   74.551">  2  7  1 -1</clus>
<clus scale="   94.394">  5  6 -1 -1</clus>
<clus scale="  127.096">  1  9  2 -1</clus>
<clus scale="  127.096">  1  5  2 -1</clus>
</clustering>
</event>
<event>
 9    1  0.1776010E-005  0.1006310E+03  0.7546771E-02  0.1279459E+00
         21   -1    0    0  501  502  0.00000000000E+00  0.00000000000E+00  0.60601137610E+03  0.60601137610E+03  0.00000000000E+00 0.  1.
         -1   -1    0    0    0  501 -0.00000000000E+00 -0.00000000000E+00 -0.63004969805E+02  0.63004969805E+02  0.00000000000E+00 0.  1.
         23    2    1    2    0    0  0.34221672779E+02  0.40638067564E+02  0.67156627258E+01  0.10577139857E+03  0.91213558236E+02 0.  0.
         23    2    1    2    0    0 -0.12396954336E+01  0.50077632560E+01  0.17783534844E+03  0.20039287969E+03  0.92224077858E+02 0.  0.
        -11    1    4    4    0    0  0.30395672151E+02  0.36568358974E+02  0.86350855828E+02  0.98577949187E+02  0.00000000000E+00 0.  1.
         11    1    4    4    0    0 -0.31635367585E+02 -0.31560595718E+02  0.91484492610E+02  0.10181493050E+03  0.00000000000E+00 0. -1.
        -13    1    3    3    0    0  0.47557178606E+02  0.18063729798E+02 -0.31196762328E+02  0.59675971303E+02  0.00000000000E+00 0.  1.
         13    1    3    3    0    0 -0.13335505827E+02  0.22574337766E+02  0.37912425054E+02  0.46095427265E+02  0.00000000000E+00 0. -1.
         -1    1    1    2    0  502 -0.32981977345E+02 -0.45645830820E+02  0.35845539513E+03  0.36285206765E+03  0.00000000000E+00 0.  1.
<scales pt_clust_5="13000.00000" pt_clust_6="13000.00000" pt_clust_7="13000.00000" pt_clust_8="13000.00000" pt_clust_9="56.31476"></scales>
<clustering>
<clus scale="   56.315">  1  9  2 -1</clus>
<clus scale="   91.214">  7  8 -1 -1</clus>
<clus scale="   92.224">  5  6 -1 -1</clus>
<clus scale="   99.706">  2  7  1 -1</clus>
<clus scale="   56.315">  1  5  2 -1</clus>
</clustering>
</event>
<event>
 9    1  0.1601012E-005  0.1038615E+03  0.7546771E-02  0.1273663E+00
         21   -1    0    0  501  502  0.00000000000E+00  0.00000000000E+00  0.18515364159E+03  0.18515364159E+03  0.00000000000E+00 0.  1.
          4   -1    0    0  502    0 -0.00000000000E+00 -0.00000000000E+00 -0.18293457039E+03  0.18293457039E+03  0.00000000000E+00 0.  1.
         23    2    1    2    0    0  0.32291750096E+02 -0.62963429773E+02 -0.76439284981E+02  0.13453373849E+03  0.85142303763E+02 0.  0.
         23    2    1    2    0    0 -0.28810204038E+02  0.38810256980E+02 -0.46556034865E+02  0.10598433341E+03  0.82030181284E+02 0.  0.
        -11    1    3    3    0    0 -0.21030068694E+02  0.60298847762E+00 -0.37236617016E+02  0.42769066289E+02  0.00000000000E+00 0. -1.
         11    1    3    3    0    0  0.53321818789E+02 -0.63566418251E+02 -0.39202667964E+02  0.91764672199E+02  0.00000000000E+00 0.  1.
        -13    1    4    4    0    0 -0.67533516511E+01  0.62457667395E+02 -0.32391447392E+02  0.70680788331E+02  0.00000000000E+00 0. -1.
         13    1    4    4    0    0 -0.22056852387E+02 -0.23647410415E+02 -0.14164587473E+02  0.35303545074E+02  0.00000000000E+00 0.  1.
          4    1    1    2  501    0 -0.34815460578E+01  0.24153172793E+02  0.12521439105E+03  0.12757014009E+03  0.00000000000E+00 0.  1.
<scales pt_clust_5="13000.00000" pt_clust_6="13000.00000" pt_clust_7="13000.00000" pt_clust_8="13000.00000" pt_clust_9="24.40281"></scales>
<clustering>
<clus scale="   24.403">  1  9  2 -1</clus>
<clus scale="   82.030">  7  8 -1 -1</clus>
<clus scale="   85.142">  5  6 -1 -1</clus>
<clus scale="  101.326">  1  7  2 -1</clus>
<clus scale="   24.403">  1  5  2 -1</clus>
</clustering>
</event>
<event>
 9    1  0.1601012E-005  0.1011311E+03  0.7546771E-02  0.1278223E+00
          4   -1    0    0  502    0 -0.00000000000E+00  0.00000000000E+00  0.32528101095E+03  0.32528101095E+03  0.00000000000E+00 0. -1.
         21   -1    0    0  501  502  0.00000000000E+00 -0.00000000000E+00 -0.63737388193E+02  0.63737388193E+02  0.00000000000E+00 0.  1.
         23    2    1    2    0    0 -0.37636617773E+02 -0.22461214783E+02  0.22784596566E+03  0.24828558744E+03  0.88379452897E+02 0.  0.
         23    2    1    2    0    0  0.59801883458E+02  0.30720408098E+02  0.19776161380E+02  0.11328611208E+03  0.89009201169E+02 0.  0.
        -13    1    4    4    0    0  0.80508760117E+02  0.20536285318E+02  0.29606118119E+02  0.88203864430E+02  0.00000000000E+00 0.  1.
         13    1    4    4    0    0 -0.20706876659E+02  0.10184122780E+02 -0.98299567392E+01  0.25082247651E+02  0.00000000000E+00 0. -1.
        -13    1    3    3    0    0  0.23911695035E+02  0.13375138642E+02  0.60528449652E+02  0.66440625452E+02  0.00000000000E+00 0.  1.
         13    1    3    3    0    0 -0.61548312808E+02 -0.35836353425E+02  0.16731751601E+03  0.18184496199E+03  0.00000000000E+00 0. -1.
          4    1    1    2  501    0 -0.22165265685E+02 -0.82591933142E+01  0.13921495711E+02  0.27446699618E+02  0.00000000000E+00 0. -1.
<scales pt_clust_5="13000.00000" pt_clust_6="13000.00000" pt_clust_7="13000.00000" pt_clust_8="13000.00000" pt_clust_9="23.65403"></scales>
<clustering>
<clus scale="   23.654">  2  9  1 -1</clus>
<clus scale="   88.379">  7  8 -1 -1</clus>
<clus scale="   89.009">  5  6 -1 -1</clus>
<clus scale="  100.577">  1  7  2 -1</clus>
<clus scale="   23.654">  2  5  1 -1</clus>
</clustering>
</event>
<event>
 9    1  0.1601012E-005  0.9893792E+02  0.7546771E-02  0.1283209E+00
         21   -1    0    0  501  502  0.00000000000E+00  0.00000000000E+00  0.26046215150E+03  0.26046215150E+03  0.00000000000E+00 0.  1.
         -1   -1    0    0    0  501 -0.00000000000E+00 -0.00000000000E+00 -0.11855724013E+03  0.11855724013E+03  0.00000000000E+00 0.  1.
         23    2    1    2    0    0  0.32369026807E+02 -0.50158674778E+01 -0.50926957580E+02  0.10911517106E+03  0.90772532872E+02 0.  0.
         23    2    1    2    0    0 -0.61785021905E+02 -0.38890239937E+02  0.18089894526E+03  0.21572450385E+03  0.92102081801E+02 0.  0.
        -13    1    3    3    0    0  0.60459814636E+02 -0.18300318545E+02 -0.44802195534E+02  0.77443705809E+02  0.00000000000E+00 0.  1.
         13    1    3    3    0    0 -0.28090787829E+02  0.13284451067E+02 -0.61247620457E+01  0.31671465251E+02  0.00000000000E+00 0. -1.
        -13    1    4    4    0    0 -0.28607500675E+02  0.20810123180E+02  0.19330265045E+02  0.40312646506E+02  0.00000000000E+00 0. -1.
         13    1    4    4    0    0 -0.33177521231E+02 -0.59700363117E+02  0.16156868022E+03  0.17541185735E+03  0.00000000000E+00 0.  1.
         -1    1    1    2    0  502  0.29415995098E+02  0.43906107415E+02  0.11932923681E+02  0.54179716717E+02  0.00000000000E+00 0.  1.
<scales pt_clust_5="13000.00000" pt_clust_6="13000.00000" pt_clust_7="13000.00000" pt_clust_8="13000.00000" pt_clust_9="52.84931"></scales>
<clustering>
<clus scale="   52.849">  1  9  2 -1</clus>
<clus scale="   90.773">  5  6 -1 -1</clus>
<clus scale="   92.102">  7  8 -1 -1</clus>
<clus scale="   97.701">  2  5  1 -1</clus>
<clus scale="   52.849">  1  5  2 -1</clus>
</clustering>
</event>
<event>
 9    1  0.3629631E-005  0.9963613E+02  0.7546771E-02  0.1282035E+00
         21   -1    0    0  501  502  0.00000000000E+00  0.00000000000E+00  0.12261173338E+03  0.12261173338E+03  0.00000000000E+00 0.  1.
          2   -1    0    0  502    0 -0.00000000000E+00 -0.00000000000E+00 -0.37765394579E+03  0.37765394579E+03  0.00000000000E+00 0. -1.
         23    2    1    2    0    0 -0.18978905261E+02  0.16205420633E+02 -0.33470810487E+03  0.34920192489E+03  0.96382853156E+02 0.  0.
         23    2    1    2    0    0  0.43663497790E+01 -0.37735814163E+02  0.58009126795E+02  0.11720965375E+03  0.94498610887E+02 0.  0.
        -11    1    3    3    0    0  0.37596603176E+02 -0.58128998428E+01 -0.10793523875E+03  0.11444348011E+03  0.00000000000E+00 0.  1.
         11    1    3    3    0    0 -0.56575508437E+02  0.22018320476E+02 -0.22677286612E+03  0.23475844478E+03  0.00000000000E+00 0. -1.
        -13    1    4    4    0    0 -0.23136386555E+02 -0.53600234030E+02  0.62057664273E+02  0.85202295544E+02  0.00000000000E+00 0.  1.
         13    1    4    4    0    0  0.27502736334E+02  0.15864419867E+02 -0.40485374784E+01  0.32007358206E+02  0.00000000000E+00 0. -1.
          2    1    1    2  501    0  0.14612555483E+02  0.21530393530E+02  0.21656765668E+02  0.33854100527E+02  0.00000000000E+00 0. -1.
<scales pt_clust_5="13000.00000" pt_clust_6="13000.00000" pt_clust_7="13000.00000" pt_clust_8="13000.00000" pt_clust_9="26.02085"></scales>
<clustering>
<clus scale="   26.021">  1  9  2 -1</clus>
<clus scale="   94.499">  7  8 -1 -1</clus>
<clus scale="   96.383">  5  6 -1 -1</clus>
<clus scale="   97.815">  1  7  2 -1</clus>
<clus scale="   26.021">  1  5  2 -1</clus>
</clustering>
</event>
<event>
 9    1  0.1601012E-005  0.2185361E+03  0.7546771E-02  0.1135003E+00
          2   -1    0    0  502    0 -0.00000000000E+00  0.00000000000E+00  0.68420677504E+03  0.68420677504E+03  0.00000000000E+00 0. -1.
         21   -1    0    0  501  502  0.00000000000E+00 -0.00000000000E+00 -0.15388668187E+03  0.15388668187E+03  0.00000000000E+00 0.  1.
         23    2    1    2    0    0 -0.73703509567E+02  0.16840034766E+03  0.35033103586E+03  0.40614260494E+03  0.91810110801E+02 0.  0.
         23    2    1    2    0    0  0.52237874704E+02 -0.22020237197E+03  0.24505496654E+03  0.34605675585E+03  0.92116564564E+02 0.  0.
        -11    1    3    3    0    0 -0.48272501151E+02  0.16025049843E+02  0.80668616093E+02  0.95364889830E+02  0.00000000000E+00 0.  1.
         11    1    3    3    0    0 -0.25431008415E+02  0.15237529781E+03  0.26966241976E+03  0.31077771511E+03  0.00000000000E+00 0. -1.
        -13    1    4    4    0    0 -0.48703903225E+01 -0.90821816333E+02  0.15078952874E+03  0.17609601075E+03  0.00000000000E+00 0. -1.
         13    1    4    4    0    0  0.57108265026E+02 -0.12938055564E+03  0.94265437805E+02  0.16996074510E+03  0.00000000000E+00 0.  1.
          2    1    1    2  501    0  0.21465634863E+02  0.51802024316E+02 -0.65065909233E+02  0.85894096116E+02  0.00000000000E+00 0. -1.
<scales pt_clust_5="13000.00000" pt_clust_6="13000.00000" pt_clust_7="13000.00000" pt_clust_8="13000.00000" pt_clust_9="56.07337"></scales>
<clustering>
<clus scale="   56.073">  2  9  1 -1</clus>
<clus scale="   91.810">  5  6 -1 -1</clus>
<clus scale="   92.117">  7  8 -1 -1</clus>
<clus scale="  218.407">  1  5  2 -1</clus>
<clus scale="   56.073">  2  5  1 -1</clus>
</clustering>
</event>
<event>
 9    1  0.1601012E-005  0.1029070E+03  0.7546771E-02  0.1275352E+00
          2   -1    0    0  502    0 -0.00000000000E+00  0.00000000000E+00  0.31091525267E+03  0.31091525267E+03  0.00000000000E+00 0. -1.
         21   -1    0    0  501  502  0.00000000000E+00 -0.00000000000E+00 -0.55541599677E+02  0.55541599677E+02  0.00000000000E+00 0. -1.
         23    2    1    2    0    0 -0.18603990089E+02 -0.37702401981E+02  0.16289241350E+03  0.19066370654E+03  0.89728095114E+02 0.  0.
         23    2    1    2    0    0  0.63896951908E+01  0.53743027970E+02  0.10683757124E+03  0.15104249039E+03  0.92034917369E+02 0.  0.
        -11    1    3    3    0    0  0.29398530223E+02  0.43639107147E+01  0.84496092234E+02  0.89570681022E+02  0.00000000000E+00 0.  1.
         11    1    3    3    0    0 -0.48002520311E+02 -0.42066312696E+02  0.78396321269E+02  0.10109302552E+03  0.00000000000E+00 0. -1.
        -13    1    4    4    0    0 -0.18146694068E+02  0.72074780763E+02  0.87565237995E+02  0.11485533263E+03  0.00000000000E+00 0. -1.
         13    1    4    4    0    0  0.24536389259E+02 -0.18331752794E+02  0.19272333243E+02  0.36187157763E+02  0.00000000000E+00 0.  1.
          2    1    1    2  501    0  0.12214294898E+02 -0.16040625989E+02 -0.14356331752E+02  0.24750655412E+02  0.00000000000E+00 0. -1.
<scales pt_clust_5="13000.00000" pt_clust_6="13000.00000" pt_clust_7="13000.00000" pt_clust_8="13000.00000" pt_clust_9="20.16161"></scales>
<clustering>
<clus scale="   20.162">  2  9  1 -1</clus>
<clus scale="   89.728">  5  6 -1 -1</clus>
<clus scale="   92.035">  7  8 -1 -1</clus>
<clus scale="  100.849">  1  5  2 -1</clus>
<clus scale="   20.162">  2  5  1 -1</clus>
</clustering>
</event>
<event>
 9    1  0.1601012E-005  0.1096845E+03  0.7546771E-02  0.1262749E+00
         -3   -1    0    0    0  501 -0.00000000000E+00  0.00000000000E+00  0.22122488073E+03  0.22122488073E+03  0.00000000000E+00 0.  1.
         21   -1    0    0  501  502  0.00000000000E+00 -0.00000000000E+00 -0.12217000753E+03  0.12217000753E+03  0.00000000000E+00 0.  1.
         23    2    1    2    0    0  0.71298301180E+02  0.16189920186E+02  0.10570244264E+03  0.15895967228E+03  0.93539348741E+02 0.  0.
         23    2    1    2    0    0 -0.39706832217E+02 -0.74390451507E+01  0.56463162153E+02  0.11331866961E+03  0.89560372288E+02 0.  0.
        -11    1    3    3    0    0  0.33649282360E+02 -0.39169187006E+02  0.42263866170E+02  0.66728807854E+02  0.00000000000E+00 0. -1.
         11    1    3    3    0    0  0.37649018819E+02  0.55359107192E+02  0.63438576471E+02  0.92230864421E+02  0.00000000000E+00 0.  1.
        -13    1    4    4    0    0  0.28120973941E+02  0.64410005829E+01  0.19659522793E+02  0.34910922365E+02  0.00000000000E+00 0.  1.
         13    1    4    4    0    0 -0.67827806159E+02 -0.13880045734E+02  0.36803639361E+02  0.78407747245E+02  0.00000000000E+00 0. -1.
         -3    1    1    2    0  502 -0.31591468962E+02 -0.87508750351E+01 -0.63110731597E+02  0.71116546371E+02  0.00000000000E+00 0.  1.
<scales pt_clust_5="13000.00000" pt_clust_6="13000.00000" pt_clust_7="13000.00000" pt_clust_8="13000.00000" pt_clust_9="32.78107"></scales>
<clustering>
<clus scale="   32.781">  2  9  1 -1</clus>
<clus scale="   89.560">  7  8 -1 -1</clus>
<clus scale="   93.539">  5  6 -1 -1</clus>
<clus scale="  106.312">  2  7  1 -1</clus>
<clus scale="   32.781">  2  5  1 -1</clus>
</clustering>
</event>
<event>
 9    1  0.1941474E-005  0.9168362E+02  0.7546771E-02  0.1299206E+00
         21   -1    0    0  501  502  0.00000000000E+00  0.00000000000E+00  0.11974828687E+03  0.11974828687E+03  0.00000000000E+00 0.  1.
         -1   -1    0    0    0  501 -0.00000000000E+00 -0.00000000000E+00 -0.28113233458E+03  0.28113233458E+03  0.00000000000E+00 0.  1.
         23    2    1    2    0    0 -0.79875387670E+01 -0.54069018250E+01 -0.23789840549E+03  0.25486133667E+03  0.90915423484E+02 0.  0.
         23    2    1    2    0    0  0.20413275108E+02  0.29582336833E+02  0.58567370897E+02  0.11344713533E+03  0.90267929679E+02 0.  0.
        -11    1    4    4    0    0 -0.35097499929E+02  0.21183758903E+02  0.23505925248E+02  0.47255842647E+02  0.00000000000E+00 0. -1.
         11    1    4    4    0    0  0.55510775037E+02  0.83985779306E+01  0.35061445649E+02  0.66191292686E+02  0.00000000000E+00 0.  1.
        -13    1    3    3    0    0  0.32245461767E+02  0.23778638047E+02 -0.13065036460E+03  0.13665544702E+03  0.00000000000E+00 0. -1.
         13    1    3    3    0    0 -0.40233000534E+02 -0.29185539872E+02 -0.10724804090E+03  0.11820588964E+03  0.00000000000E+00 0.  1.
         -1    1    1    2    0  502 -0.12425736341E+02 -0.24175435008E+02  0.17946986889E+02  0.32572149451E+02  0.00000000000E+00 0.  1.
<scales pt_clust_5="13000.00000" pt_clust_6="13000.00000" pt_clust_7="13000.00000" pt_clust_8="13000.00000" pt_clust_9="27.18181"></scales>
<clustering>
<clus scale="   27.182">  1  9  2 -1</clus>
<clus scale="   90.268">  5  6 -1 -1</clus>
<clus scale="   90.915">  7  8 -1 -1</clus>
<clus scale="   91.042">  1  5  2 -1</clus>
<clus scale="   27.182">  1  5  2 -1</clus>
</clustering>
</event>
<event>
 9    1  0.1601012E-005  0.3684131E+03  0.7546771E-02  0.1055374E+00
          2   -1    0    0  502    0 -0.00000000000E+00  0.00000000000E+00  0.79779640202E+03  0.79779640202E+03  0.00000000000E+00 0. -1.
         21   -1    0    0  501  502  0.00000000000E+00 -0.00000000000E+00 -0.59130834957E+03  0.59130834957E+03  0.00000000000E+00 0. -1.
         23    2    1    2    0    0  0.28891062658E+03  0.24981519277E+03  0.45853962928E+03  0.60384230675E+03  0.92140974118E+02 0.  0.
         23    2    1    2    0    0 -0.23108997133E+03 -0.22220613211E+03  0.15933239512E+03  0.36891852357E+03  0.89083808322E+02 0.  0.
        -11    1    4    4    0    0 -0.90589997056E+02 -0.48237408125E+02  0.85026175620E+02  0.13327732609E+03  0.00000000000E+00 0.  1.
         11    1    4    4    0    0 -0.14049997427E+03 -0.17396872398E+03  0.74306219503E+02  0.23564119748E+03  0.00000000000E+00 0. -1.
        -13    1    3    3    0    0  0.26278520023E+03  0.20507399107E+03  0.34868061557E+03  0.48237907805E+03  0.00000000000E+00 0.  1.
         13    1    3    3    0    0  0.26125426357E+02  0.44741201698E+02  0.10985901371E+03  0.12146322870E+03  0.00000000000E+00 0. -1.
          2    1    1    2  501    0 -0.57820655253E+02 -0.27609060662E+02 -0.41138397195E+03  0.41634392127E+03  0.00000000000E+00 0. -1.
<scales pt_clust_5="13000.00000" pt_clust_6="13000.00000" pt_clust_7="13000.00000" pt_clust_8="13000.00000" pt_clust_9="64.07409"></scales>
<clustering>
<clus scale="   64.074">  2  9  1 -1</clus>
<clus scale="   89.084">  5  6 -1 -1</clus>
<clus scale="   92.141">  7  8 -1 -1</clus>
<clus scale="  367.660">  2  5  1 -1</clus>
<clus scale="   64.074">  2  5  1 -1</clus>
</clustering>
</event>
<event>
 9    1  0.1601012E-005  0.9610432E+02  0.7546771E-02  0.1290921E+00
         21   -1    0    0  501  502  0.00000000000E+00  0.00000000000E+00  0.42232895811E+02  0.42232895811E+02  0.00000000000E+00 0. -1.
          2   -1    0    0  502    0 -0.00000000000E+00 -0.00000000000E+00 -0.45573853939E+03  0.45573853939E+03  0.00000000000E+00 0. -1.
         23    2    1    2    0    0 -0.15232969702E+02 -0.35268486171E+02 -0.21452412009E+03  0.23535215584E+03  0.88848914879E+02 0.  0.
         23    2    1    2    0    0 -0.42910625336E+02  0.18053798603E+01 -0.10031949410E+03  0.14331021361E+03  0.92893677206E+02 0.  0.
        -13    1    3    3    0    0  0.36502981593E+02 -0.90743159129E+01 -0.66936724426E+02  0.76781091106E+02  0.00000000000E+00 0.  1.
         13    1    3    3    0    0 -0.51735951295E+02 -0.26194170258E+02 -0.14758739566E+03  0.15857106473E+03  0.00000000000E+00 0. -1.
        -13    1    4    4    0    0 -0.29209536154E+02  0.46823377610E+02 -0.57261241565E+02  0.79526570897E+02  0.00000000000E+00 0.  1.
         13    1    4    4    0    0 -0.13701089182E+02 -0.45017997749E+02 -0.43058252539E+02  0.63783642714E+02  0.00000000000E+00 0. -1.
          2    1    1    2  501    0  0.58143595038E+02  0.33463106311E+02 -0.98662029387E+02  0.11930906575E+03  0.00000000000E+00 0. -1.
<scales pt_clust_5="13000.00000" pt_clust_6="13000.00000" pt_clust_7="13000.00000" pt_clust_8="13000.00000" pt_clust_9="67.08545"></scales>
<clustering>
<clus scale="   67.085">  1  9  2 -1</clus>
<clus scale="   88.849">  5  6 -1 -1</clus>
<clus scale="   92.201">  2  5  1 -1</clus>
<clus scale="   92.894">  7  8 -1 -1</clus>
<clus scale="   67.085">  1  5  2 -1</clus>
</clustering>
</event>
<event>
 9    1  0.1601012E-005  0.1048836E+03  0.7546771E-02  0.1276085E+00
         21   -1    0    0  501  502  0.00000000000E+00  0.00000000000E+00  0.32234429977E+02  0.32234429977E+02  0.00000000000E+00 0.  1.
          2   -1    0    0  502    0 -0.00000000000E+00 -0.00000000000E+00 -0.47872386310E+03  0.47872386310E+03  0.00000000000E+00 0. -1.
         23    2    1    2    0    0  0.23124957893E+02 -0.48472643618E+02 -0.19510882089E+03  0.21704300973E+03  0.78459258391E+02 0.  0.
         23    2    1    2    0    0 -0.48320840625E+02  0.26003528458E+02 -0.13072292949E+03  0.16862374314E+03  0.91292909499E+02 0.  0.
        -11    1    3    3    0    0 -0.16686344847E+02 -0.28842169653E+02 -0.26168217424E+02  0.42368389842E+02  0.00000000000E+00 0.  1.
         11    1    3    3    0    0  0.39811302740E+02 -0.19630473964E+02 -0.16894060347E+03  0.17467461989E+03  0.00000000000E+00 0. -1.
        -13    1    4    4    0    0 -0.32525657631E+02 -0.16675378153E+02 -0.75634693447E+01  0.37325496773E+02  0.00000000000E+00 0.  1.
         13    1    4    4    0    0 -0.15795182994E+02  0.42678906611E+02 -0.12315946015E+03  0.13129824637E+03  0.00000000000E+00 0. -1.
          2    1    1    2  501    0  0.25195882732E+02  0.22469115159E+02 -0.12065768274E+03  0.12529154021E+03  0.00000000000E+00 0. -1.
<scales pt_clust_5="13000.00000" pt_clust_6="13000.00000" pt_clust_7="13000.00000" pt_clust_8="13000.00000" pt_clust_9="33.75937"></scales>
<clustering>
<clus scale="   33.759">  1  9  2 -1</clus>
<clus scale="   78.459">  5  6 -1 -1</clus>
<clus scale="   91.293">  7  8 -1 -1</clus>
<clus scale="   93.926">  2  5  1 -1</clus>
<clus scale="   33.759">  1  5  2 -1</clus>
</clustering>
</event>
<event>
 9    1  0.1601012E-005  0.1410224E+03  0.7546771E-02  0.1215423E+00
         21   -1    0    0  501  502  0.00000000000E+00  0.00000000000E+00  0.15251455383E+03  0.15251455383E+03  0.00000000000E+00 0.  1.
          2   -1    0    0  502    0 -0.00000000000E+00 -0.00000000000E+00 -0.16089068637E+03  0.16089068637E+03  0.00000000000E+00 0. -1.
         23    2    1    2    0    0 -0.89660130526E+02  0.63640366734E+02 -0.36394505920E+02  0.15287861077E+03  0.99791153342E+02 0.  0.
         23    2    1    2    0    0  0.64782243131E+02 -0.54079015388E+02  0.46013775190E+02  0.12836822141E+03  0.85087330604E+02 0.  0.
        -11    1    3    3    0    0 -0.32471893474E+02  0.54162480230E+02  0.25475237263E+02  0.68095417203E+02  0.00000000000E+00 0. -1.
         11    1    3    3    0    0 -0.57188237052E+02  0.94778865043E+01 -0.61869743183E+02  0.84783193566E+02  0.00000000000E+00 0.  1.
        -11    1    4    4    0    0  0.43387429530E+02 -0.42187038553E+02  0.71067127162E+02  0.93342122465E+02  0.00000000000E+00 0.  1.
         11    1    4    4    0    0  0.21394813600E+02 -0.11891976835E+02 -0.25053351972E+02  0.35026098941E+02  0.00000000000E+00 0. -1.
          2    1    1    2  501    0  0.24877887396E+02 -0.95613513457E+01 -0.17995401808E+02  0.32158408030E+02  0.00000000000E+00 0. -1.
<scales pt_clust_5="13000.00000" pt_clust_6="13000.00000" pt_clust_7="13000.00000" pt_clust_8="13000.00000" pt_clust_9="26.65201"></scales>
<clustering>
<clus scale="   26.652">  1  9  2 -1</clus>
<clus scale="   85.087">  7  8 -1 -1</clus>
<clus scale="   99.791">  5  6 -1 -1</clus>
<clus scale="  131.030">  1  7  2 -1</clus>
<clus scale="   26.652">  1  5  2 -1</clus>
</clustering>
</event>
<event>
 9    1  0.1601012E-005  0.1061394E+03  0.7546771E-02  0.1269401E+00
          1   -1    0    0  502    0 -0.00000000000E+00  0.00000000000E+00  0.55949472205E+02  0.55949472205E+02  0.00000000000E+00 0. -1.
         21   -1    0    0  501  502  0.00000000000E+00 -0.00000000000E+00 -0.34455262616E+03  0.34455262616E+03  0.00000000000E+00 0.  1.
         23    2    1    2    0    0  0.33442414409E+01  0.39714940998E+02 -0.70469790602E+02  0.11935056038E+03  0.87693240251E+02 0.  0.
         23    2    1    2    0    0  0.10799774931E+02 -0.71703679107E+02 -0.87062782711E+02  0.14549450841E+03  0.91272510137E+02 0.  0.
        -11    1    3    3    0    0  0.36342920504E+02  0.48424273659E+02 -0.55313161868E+02  0.82007707113E+02  0.00000000000E+00 0. -1.
         11    1    3    3    0    0 -0.32998679063E+02 -0.87093326607E+01 -0.15156628734E+02  0.37342853264E+02  0.00000000000E+00 0.  1.
        -11    1    4    4    0    0  0.47139165004E+02 -0.59491381552E+02 -0.43577415261E+02  0.87523233927E+02  0.00000000000E+00 0.  1.
         11    1    4    4    0    0 -0.36339390073E+02 -0.12212297555E+02 -0.43485367450E+02  0.57971274479E+02  0.00000000000E+00 0. -1.
          1    1    1    2  501    0 -0.14144016372E+02  0.31988738109E+02 -0.13107058064E+03  0.13565702958E+03  0.00000000000E+00 0. -1.
<scales pt_clust_5="13000.00000" pt_clust_6="13000.00000" pt_clust_7="13000.00000" pt_clust_8="13000.00000" pt_clust_9="34.97617"></scales>
<clustering>
<clus scale="   34.976">  2  9  1 -1</clus>
<clus scale="   87.693">  5  6 -1 -1</clus>
<clus scale="   91.273">  7  8 -1 -1</clus>
<clus scale="  103.078">  1  5  2 -1</clus>
<clus scale="   34.976">  2  5  1 -1</clus>
</clustering>
</event>
<event>
 9    1  0.1601012E-005  0.3489839E+03  0.7546771E-02  0.1074610E+00
         21   -1    0    0  501  502  0.00000000000E+00  0.00000000000E+00  0.38922468855E+03  0.38922468855E+03  0.00000000000E+00 0. -1.
          1   -1    0    0  502    0 -0.00000000000E+00 -0.00000000000E+00 -0.85768810844E+03  0.85768810844E+03  0.00000000000E+00 0. -1.
         23    2    1    2    0    0  0.82374074525E+02  0.22054613969E+03 -0.33609970227E+03  0.42115020623E+03  0.94754411246E+02 0.  0.
         23    2    1    2    0    0  0.85223817472E+02 -0.46775124985E+03 -0.19285323665E+03  0.52103582495E+03  0.90728326331E+02 0.  0.
        -11    1    3    3    0    0  0.81806065206E+02  0.11598730289E+03 -0.24163660652E+03  0.28023835630E+03  0.00000000000E+00 0. -1.
         11    1    3    3    0    0  0.56800931893E+00  0.10455883681E+03 -0.94463095758E+02  0.14091184993E+03  0.00000000000E+00 0.  1.
        -13    1    4    4    0    0  0.39984419933E+02 -0.84154753550E+02 -0.10062841923E+02  0.93712524083E+02  0.00000000000E+00 0.  1.
         13    1    4    4    0    0  0.45239397539E+02 -0.38359649630E+03 -0.18279039472E+03  0.42732330087E+03  0.00000000000E+00 0. -1.
          1    1    1    2  501    0 -0.16759789200E+03  0.24720511015E+03  0.60489519030E+02  0.30472676581E+03  0.00000000000E+00 0. -1.
<scales pt_clust_5="13000.00000" pt_clust_6="13000.00000" pt_clust_7="13000.00000" pt_clust_8="13000.00000" pt_clust_9="336.98386"></scales>
<clustering>
<clus scale="   90.728">  7  8 -1 -1</clus>
<clus scale="   94.754">  5  6 -1 -1</clus>
<clus scale="  253.780">  2  5  1 -1</clus>
<clus scale="  336.984">  1  9  2 -1</clus>
<clus scale="  336.984">  1  5  2 -1</clus>
</clustering>
</event>
<event>
 9    1  0.1601012E-005  0.1601446E+03  0.7546771E-02  0.1197504E+00
          1   -1    0    0  502    0 -0.00000000000E+00  0.00000000000E+00  0.55447740381E+03  0.55447740381E+03  0.00000000000E+00 0. -1.
         21   -1    0    0  501  502  0.00000000000E+00 -0.00000000000E+00 -0.73497812717E+02  0.73497812717E+02  0.00000000000E+00 0. -1.
         23    2    1    2    0    0  0.71267946091E+02 -0.90008572717E+01  0.15676803130E+03  0.19387418098E+03  0.88605004607E+02 0.  0.
         23    2    1    2    0    0 -0.13800669494E+03 -0.43933278537E+02  0.27453948405E+03  0.33549374150E+03  0.12731119931E+03 0.  0.
        -11    1    4    4    0    0 -0.62437699681E+02 -0.84934521298E+02  0.17137187193E+03  0.20119805600E+03  0.00000000000E+00 0. -1.
         11    1    4    4    0    0 -0.75568995257E+02  0.41001242761E+02  0.10316761213E+03  0.13429568550E+03  0.00000000000E+00 0.  1.
        -11    1    3    3    0    0  0.42033468147E+02 -0.48976562672E+02  0.88764950151E+02  0.10974849662E+03  0.00000000000E+00 0.  1.
         11    1    3    3    0    0  0.29234477943E+02  0.39975705400E+02  0.68003081145E+02  0.84125684354E+02  0.00000000000E+00 0. -1.
          1    1    1    2  501    0  0.66738748848E+02  0.52934135809E+02  0.49672075746E+02  0.98607294053E+02  0.00000000000E+00 0. -1.
<scales pt_clust_5="13000.00000" pt_clust_6="13000.00000" pt_clust_7="13000.00000" pt_clust_8="13000.00000" pt_clust_9="85.18265"></scales>
<clustering>
<clus scale="   85.183">  2  9  1 -1</clus>
<clus scale="   88.605">  7  8 -1 -1</clus>
<clus scale="  127.311">  5  6 -1 -1</clus>
<clus scale="  131.488">  1  7  2 -1</clus>
<clus scale="   85.183">  2  5  1 -1</clus>
</clustering>
</event>
<event>
 9    1  0.1601012E-005  0.1745539E+03  0.7546771E-02  0.1173695E+00
          2   -1    0    0  502    0 -0.00000000000E+00  0.00000000000E+00  0.36088336829E+03  0.36088336829E+03  0.00000000000E+00 0. -1.
         21   -1    0    0  501  502  0.00000000000E+00 -0.00000000000E+00 -0.22875692905E+03  0.22875692905E+03  0.00000000000E+00 0. -1.
         23    2    1    2    0    0  0.93541202365E+02  0.14285023328E+03  0.23427481989E+03  0.30459757161E+03  0.93481782743E+02 0.  0.
         23    2    1    2    0    0 -0.57810082200E+02 -0.91736545404E+02  0.25497112390E+02  0.14297691728E+03  0.89636470074E+02 0.  0.
        -11    1    3    3    0    0  0.32256675187E+02 -0.64872168221E+01  0.46700701711E+02  0.57127336858E+02  0.00000000000E+00 0.  1.
         11    1    3    3    0    0  0.61284527178E+02  0.14933745011E+03  0.18757411818E+03  0.24747023475E+03  0.00000000000E+00 0. -1.
        -13    1    4    4    0    0  0.11837686494E+02 -0.46329736551E+02  0.35049761982E+02  0.59287950929E+02  0.00000000000E+00 0. -1.
         13    1    4    4    0    0 -0.69647768694E+02 -0.45406808852E+02 -0.95526495916E+01  0.83688966348E+02  0.00000000000E+00 0.  1.
          2    1    1    2  501    0 -0.35731120165E+02 -0.51113687881E+02 -0.12764549304E+03  0.14206580845E+03  0.00000000000E+00 0. -1.
<scales pt_clust_5="13000.00000" pt_clust_6="13000.00000" pt_clust_7="13000.00000" pt_clust_8="13000.00000" pt_clust_9="62.36443"></scales>
<clustering>
<clus scale="   62.364">  2  9  1 -1</clus>
<clus scale="   89.636">  7  8 -1 -1</clus>
<clus scale="   93.482">  5  6 -1 -1</clus>
<clus scale="  172.525">  2  7  1 -1</clus>
<clus scale="   62.364">  2  5  1 -1</clus>
</clustering>
</event>
<event>
 9    1  0.1601012E-005  0.9606713E+02  0.7546771E-02  0.1289634E+00
         21   -1    0    0  501  502  0.00000000000E+00  0.00000000000E+00  0.28311053629E+02  0.28311053629E+02  0.00000000000E+00 0. -1.
          1   -1    0    0  502    0 -0.00000000000E+00 -0.00000000000E+00 -0.76416322142E+03  0.76416322142E+03  0.00000000000E+00 0. -1.
         23    2    1    2    0    0  0.19821170347E+02  0.26591401028E+02 -0.48317963324E+03  0.49302869848E+03  0.92275447091E+02 0.  0.
         23    2    1    2    0    0 -0.35368732997E+02  0.27858805248E+02 -0.18758794953E+03  0.21317533330E+03  0.90705146571E+02 0.  0.
        -11    1    3    3    0    0  0.52889241038E+02  0.34635864719E+02 -0.28289628497E+03  0.28987449525E+03  0.00000000000E+00 0. -1.
         11    1    3    3    0    0 -0.33068070690E+02 -0.80444636903E+01 -0.20028334827E+03  0.20315420323E+03  0.00000000000E+00 0.  1.
        -13    1    4    4    0    0 -0.19693188340E+02 -0.27957034634E+02 -0.30838717128E+02  0.46048278216E+02  0.00000000000E+00 0.  1.
         13    1    4    4    0    0 -0.15675544657E+02  0.55815839882E+02 -0.15674923241E+03  0.16712705509E+03  0.00000000000E+00 0. -1.
          1    1    1    2  501    0  0.15547562650E+02 -0.54450206276E+02 -0.65084585011E+02  0.86270243270E+02  0.00000000000E+00 0. -1.
<scales pt_clust_5="13000.00000" pt_clust_6="13000.00000" pt_clust_7="13000.00000" pt_clust_8="13000.00000" pt_clust_9="56.62642"></scales>
<clustering>
<clus scale="   56.626">  1  9  2 -1</clus>
<clus scale="   90.705">  7  8 -1 -1</clus>
<clus scale="   92.275">  5  6 -1 -1</clus>
<clus scale="   94.560">  1  7  2 -1</clus>
<clus scale="   56.626">  1  5  2 -1</clus>
</clustering>
</event>
<event>
 9    1  0.1601012E-005  0.1107485E+03  0.7546771E-02  0.1261849E+00
         21   -1    0    0  501  502  0.00000000000E+00  0.00000000000E+00  0.42555309174E+02  0.42555309174E+02  0.00000000000E+00 0.  1.
          2   -1    0    0  502    0 -0.00000000000E+00 -0.00000000000E+00 -0.65590109045E+03  0.65590109045E+03  0.00000000000E+00 0. -1.
         23    2    1    2    0    0 -0.21155778007E+02 -0.47781136867E+02 -0.46404186204E+03  0.47747933323E+03  0.99604517734E+02 0.  0.
         23    2    1    2    0    0  0.55966644862E+02  0.69401997773E+01 -0.94518587485E+02  0.14428801132E+03  0.93299705892E+02 0.  0.
        -11    1    4    4    0    0 -0.20674089968E+02  0.21580545749E+02 -0.35805874781E+02  0.46639024642E+02  0.00000000000E+00 0.  1.
         11    1    4    4    0    0  0.76640734830E+02 -0.14640345971E+02 -0.58712712705E+02  0.97648986675E+02  0.00000000000E+00 0. -1.
        -13    1    3    3    0    0 -0.26307685781E+02 -0.77707192219E+02 -0.33086681899E+03  0.34088613049E+03  0.00000000000E+00 0.  1.
         13    1    3    3    0    0  0.51519077735E+01  0.29926055353E+02 -0.13317504305E+03  0.13659320274E+03  0.00000000000E+00 0. -1.
          2    1    1    2  501    0 -0.34810866855E+02  0.40840937089E+02 -0.54785331749E+02  0.76689055076E+02  0.00000000000E+00 0. -1.
<scales pt_clust_5="13000.00000" pt_clust_6="13000.00000" pt_clust_7="13000.00000" pt_clust_8="13000.00000" pt_clust_9="53.66357"></scales>
<clustering>
<clus scale="   53.664">  1  9  2 -1</clus>
<clus scale="   93.300">  5  6 -1 -1</clus>
<clus scale="   99.605">  7  8 -1 -1</clus>
<clus scale="  105.114">  1  5  2 -1</clus>
<clus scale="   53.664">  1  5  2 -1</clus>
</clustering>
</event>
<event>
 9    1  0.1601012E-005  0.1003693E+03  0.7546771E-02  0.1279866E+00
          4   -1    0    0  502    0 -0.00000000000E+00  0.00000000000E+00  0.48929156190E+03  0.48929156190E+03  0.00000000000E+00 0. -1.
         21   -1    0    0  501  502  0.00000000000E+00 -0.00000000000E+00 -0.33634152156E+02  0.33634152156E+02  0.00000000000E+00 0.  1.
         23    2    1    2    0    0  0.33426090944E+02 -0.23346189503E+02  0.29357238109E+03  0.30983074816E+03  0.90266280767E+02 0.  0.
         23    2    1    2    0    0 -0.22437538813E+02  0.52896115431E+02  0.11772930476E+03  0.15867643375E+03  0.89535351957E+02 0.  0.
        -11    1    4    4    0    0 -0.43879240333E+02  0.19505463852E+02  0.10743887447E+03  0.11768161538E+03  0.00000000000E+00 0. -1.
         11    1    4    4    0    0  0.21441701520E+02  0.33390651579E+02  0.10290430298E+02  0.40994818364E+02  0.00000000000E+00 0.  1.
        -11    1    3    3    0    0 -0.15049193371E+02  0.20336966530E+02  0.15008453796E+03  0.15220196767E+03  0.00000000000E+00 0.  1.
         11    1    3    3    0    0  0.48475284315E+02 -0.43683156033E+02  0.14348784313E+03  0.15762878049E+03  0.00000000000E+00 0. -1.
          4    1    1    2  501    0 -0.10988552131E+02 -0.29549925928E+02  0.44355723891E+02  0.54418532157E+02  0.00000000000E+00 0. -1.
<scales pt_clust_5="13000.00000" pt_clust_6="13000.00000" pt_clust_7="13000.00000" pt_clust_8="13000.00000" pt_clust_9="31.52692"></scales>
<clustering>
<clus scale="   31.527">  2  9  1 -1</clus>
<clus scale="   89.535">  5  6 -1 -1</clus>
<clus scale="   90.266">  7  8 -1 -1</clus>
<clus scale="   99.712">  2  5  1 -1</clus>
<clus scale="   31.527">  2  5  1 -1</clus>
</clustering>
</event>
<event>
 9    1  0.1601012E-005  0.1526019E+03  0.7546771E-02  0.1198725E+00
         -3   -1    0    0    0  501 -0.00000000000E+00  0.00000000000E+00  0.14124513750E+03  0.14124513750E+03  0.00000000000E+00 0.  1.
         21   -1    0    0  501  502  0.00000000000E+00 -0.00000000000E+00 -0.27260576641E+03  0.27260576641E+03  0.00000000000E+00 0.  1.
         23    2    1    2    0    0  0.91697911621E+02  0.98170805158E+02  0.27236640114E+02  0.16903874931E+03  0.98925478120E+02 0.  0.
         23    2    1    2    0    0 -0.75034155215E+02 -0.38726817332E+02 -0.11076282966E+03  0.16671348590E+03  0.91624729821E+02 0.  0.
        -11    1    3    3    0    0  0.65214674549E+02  0.34428633112E+01  0.27029763078E+02  0.70678251084E+02  0.00000000000E+00 0. -1.
         11    1    3    3    0    0  0.26483237072E+02  0.94727941846E+02  0.20687703605E+00  0.98360498222E+02  0.00000000000E+00 0.  1.
        -13    1    4    4    0    0 -0.23608483848E+02  0.10969989530E+02 -0.87837373982E+02  0.91613893313E+02  0.00000000000E+00 0. -1.
         13    1    4    4    0    0 -0.51425671366E+02 -0.49696806863E+02 -0.22925455682E+02  0.75099592582E+02  0.00000000000E+00 0.  1.
         -3    1    1    2    0  502 -0.16663756406E+02 -0.59443987825E+02 -0.47834439353E+02  0.78098668711E+02  0.00000000000E+00 0.  1.
<scales pt_clust_5="13000.00000" pt_clust_6="13000.00000" pt_clust_7="13000.00000" pt_clust_8="13000.00000" pt_clust_9="61.73547"></scales>
<clustering>
<clus scale="   61.735">  2  9  1 -1</clus>
<clus scale="   91.625">  7  8 -1 -1</clus>
<clus scale="   98.925">  5  6 -1 -1</clus>
<clus scale="  147.974">  2  7  1 -1</clus>
<clus scale="   61.735">  2  5  1 -1</clus>
</clustering>
</event>
<event>
 9    1  0.1601012E-005  0.1219600E+03  0.7546771E-02  0.1240304E+00
          2   -1    0    0  502    0 -0.00000000000E+00  0.00000000000E+00  0.33080189425E+03  0.33080189425E+03  0.00000000000E+00 0. -1.
         21   -1    0    0  501  502  0.00000000000E+00 -0.00000000000E+00 -0.11865122651E+03  0.11865122651E+03  0.00000000000E+00 0.  1.
         23    2    1    2    0    0 -0.74492086550E+02  0.23302821817E+02  0.22071132636E+03  0.25115744068E+03  0.90964157568E+02 0.  0.
         23    2    1    2    0    0  0.97959112165E+02 -0.29374348101E+02 -0.54387799350E+02  0.14645272926E+03  0.89618799409E+02 0.  0.
        -11    1    4    4    0    0  0.54064242012E+02 -0.30336638890E+02 -0.75536638727E+02  0.97719177819E+02  0.00000000000E+00 0.  1.
         11    1    4    4    0    0  0.43894870153E+02  0.96229078847E+00  0.21148839376E+02  0.48733551443E+02  0.00000000000E+00 0. -1.
        -13    1    3    3    0    0 -0.49981935535E+02  0.48803128184E+02  0.19581969841E+03  0.20790693468E+03  0.00000000000E+00 0. -1.
         13    1    3    3    0    0 -0.24510151015E+02 -0.25500306366E+02  0.24891627945E+02  0.43250506000E+02  0.00000000000E+00 0.  1.
          2    1    1    2  501    0 -0.23467025615E+02  0.60715262841E+01  0.45827140729E+02  0.51842950823E+02  0.00000000000E+00 0. -1.
<scales pt_clust_5="13000.00000" pt_clust_6="13000.00000" pt_clust_7="13000.00000" pt_clust_8="13000.00000" pt_clust_9="24.23975"></scales>
<clustering>
<clus scale="   24.240">  2  9  1 -1</clus>
<clus scale="   89.619">  5  6 -1 -1</clus>
<clus scale="   90.964">  7  8 -1 -1</clus>
<clus scale="  120.960">  2  5  1 -1</clus>
<clus scale="   24.240">  2  5  1 -1</clus>
</clustering>
</event>
<event>
 9    1  0.1601012E-005  0.1057802E+03  0.7546771E-02  0.1268794E+00
         21   -1    0    0  501  502  0.00000000000E+00  0.00000000000E+00  0.31927514715E+03  0.31927514715E+03  0.00000000000E+00 0. -1.
          1   -1    0    0  502    0 -0.00000000000E+00 -0.00000000000E+00 -0.57390412480E+02  0.57390412480E+02  0.00000000000E+00 0. -1.
         23    2    1    2    0    0  0.45016929203E+02  0.41240272973E+02  0.45960407234E+02  0.11858845218E+03  0.90683945252E+02 0.  0.
         23    2    1    2    0    0 -0.17768462371E+02 -0.43276107348E+02  0.11471403509E+03  0.15324320625E+03  0.90197731077E+02 0.  0.
        -13    1    3    3    0    0  0.63005553882E+02  0.33955342702E+01  0.43451211096E+02  0.76610947121E+02  0.00000000000E+00 0. -1.
         13    1    3    3    0    0 -0.17988624679E+02  0.37844738703E+02  0.25091961379E+01  0.41977505055E+02  0.00000000000E+00 0.  1.
        -13    1    4    4    0    0 -0.38532319849E+02 -0.91286522556E+01  0.10485079951E+03  0.11207926714E+03  0.00000000000E+00 0.  1.
         13    1    4    4    0    0  0.20763857478E+02 -0.34147455092E+02  0.98632355835E+01  0.41163939107E+02  0.00000000000E+00 0. -1.
          1    1    1    2  501    0 -0.27248466832E+02  0.20358343747E+01  0.10121029235E+03  0.10483390121E+03  0.00000000000E+00 0. -1.
<scales pt_clust_5="13000.00000" pt_clust_6="13000.00000" pt_clust_7="13000.00000" pt_clust_8="13000.00000" pt_clust_9="27.32441"></scales>
<clustering>
<clus scale="   27.324">  1  9  2 -1</clus>
<clus scale="   90.198">  7  8 -1 -1</clus>
<clus scale="   90.684">  5  6 -1 -1</clus>
<clus scale="  105.364">  1  7  2 -1</clus>
<clus scale="   27.324">  1  5  2 -1</clus>
</clustering>
</event>
<event>
 9    1  0.1601012E-005  0.1041990E+03  0.7546771E-02  0.1271833E+00
         -4   -1    0    0    0  501 -0.00000000000E+00  0.00000000000E+00  0.34247902498E+02  0.34247902498E+02  0.00000000000E+00 0.  1.
         21   -1    0    0  501  502  0.00000000000E+00 -0.00000000000E+00 -0.47144453011E+03  0.47144453011E+03  0.00000000000E+00 0. -1.
         23    2    1    2    0    0 -0.13282056042E+02 -0.32177964251E+02 -0.14745329873E+03  0.17661742416E+03  0.90771167303E+02 0.  0.
         23    2    1    2    0    0  0.39452576385E+02  0.61121648612E+02 -0.20601648750E+03  0.23670176033E+03  0.91063541068E+02 0.  0.
        -13    1    3    3    0    0 -0.12026167545E+02  0.24464457556E+02 -0.96982346524E+02  0.10074082552E+03  0.00000000000E+00 0. -1.
         13    1    3    3    0    0 -0.12558884971E+01 -0.56642421808E+02 -0.50470952208E+02  0.75876598639E+02  0.00000000000E+00 0.  1.
        -13    1    4    4    0    0 -0.50011716931E+01 -0.21663758410E+02 -0.47082461514E+02  0.52068112400E+02  0.00000000000E+00 0.  1.
         13    1    4    4    0    0  0.44453748078E+02  0.82785407021E+02 -0.15893402598E+03  0.18463364793E+03  0.00000000000E+00 0. -1.
         -4    1    1    2    0  502 -0.26170520343E+02 -0.28943684360E+02 -0.83726841384E+02  0.92373248116E+02  0.00000000000E+00 0.  1.
<scales pt_clust_5="13000.00000" pt_clust_6="13000.00000" pt_clust_7="13000.00000" pt_clust_8="13000.00000" pt_clust_9="39.02093"></scales>
<clustering>
<clus scale="   39.021">  2  9  1 -1</clus>
<clus scale="   90.771">  5  6 -1 -1</clus>
<clus scale="   91.064">  7  8 -1 -1</clus>
<clus scale="  103.944">  1  5  2 -1</clus>
<clus scale="   39.021">  2  5  1 -1</clus>
</clustering>
</event>
<event>
 9    1  0.1601012E-005  0.1231671E+03  0.7546771E-02  0.1246852E+00
          1   -1    0    0  502    0 -0.00000000000E+00  0.00000000000E+00  0.56746686431E+03  0.56746686431E+03  0.00000000000E+00 0. -1.
         21   -1    0    0  501  502  0.00000000000E+00 -0.00000000000E+00 -0.48675917810E+02  0.48675917810E+02  0.00000000000E+00 0.  1.
         23    2    1    2    0    0  0.20014286762E+02 -0.43813120185E+02  0.41220037237E+03  0.42472245781E+03  0.90331932417E+02 0.  0.
         23    2    1    2    0    0 -0.70517371060E+00  0.58402967844E+02  0.10854345217E+03  0.16714030713E+03  0.11288399946E+03 0.  0.
        -11    1    3    3    0    0 -0.55102888156E+01 -0.67258552281E+02  0.25856649030E+03  0.26722781674E+03  0.00000000000E+00 0.  1.
         11    1    3    3    0    0  0.25524575578E+02  0.23445432095E+02  0.15363388207E+03  0.15749464107E+03  0.00000000000E+00 0. -1.
        -13    1    4    4    0    0 -0.36414370389E+02  0.64159215442E+01  0.95946768303E+02  0.10282486454E+03  0.00000000000E+00 0. -1.
         13    1    4    4    0    0  0.35709196679E+02  0.51987046300E+02  0.12596683869E+02  0.64315442585E+02  0.00000000000E+00 0.  1.
          1    1    1    2  501    0 -0.19309113051E+02 -0.14589847659E+02 -0.19528780423E+01  0.24280017179E+02  0.00000000000E+00 0. -1.
<scales pt_clust_5="13000.00000" pt_clust_6="13000.00000" pt_clust_7="13000.00000" pt_clust_8="13000.00000" pt_clust_9="24.20135"></scales>
<clustering>
<clus scale="   24.201">  2  9  1 -1</clus>
<clus scale="   90.332">  5  6 -1 -1</clus>
<clus scale="  102.894">  1  5  2 -1</clus>
<clus scale="  112.884">  7  8 -1 -1</clus>
<clus scale="   24.201">  2  5  1 -1</clus>
</clustering>
</event>
<event>
 9    1  0.1601012E-005  0.9814881E+02  0.7546771E-02  0.1285353E+00
         21   -1    0    0  501  502  0.00000000000E+00  0.00000000000E+00  0.22486044811E+03  0.22486044811E+03  0.00000000000E+00 0. -1.
         -1   -1    0    0    0  501 -0.00000000000E+00 -0.00000000000E+00 -0.94430779068E+02  0.94430779068E+02  0.00000000000E+00 0.  1.
         23    2    1    2    0    0 -0.33390478245E+02 -0.14000372482E+02 -0.69142248829E+01  0.10014641238E+03  0.93115857619E+02 0.  0.
         23    2    1    2    0    0 -0.15383365651E+02  0.26898980077E+02  0.36863330695E+02  0.10670992024E+03  0.95225515806E+02 0.  0.
        -11    1    4    4    0    0  0.27935914036E+02  0.17546876305E+02 -0.16874862273E+02  0.37054947549E+02  0.00000000000E+00 0. -1.
         11    1    4    4    0    0 -0.43319279687E+02  0.93521037716E+01  0.53738192968E+02  0.69654972694E+02  0.00000000000E+00 0.  1.
        -13    1    3    3    0    0  0.20283688290E+02 -0.21298878511E+02 -0.29317588567E+02  0.41528198081E+02  0.00000000000E+00 0.  1.
         13    1    3    3    0    0 -0.53674166535E+02  0.72985060290E+01  0.22403363684E+02  0.58618214301E+02  0.00000000000E+00 0. -1.
         -1    1    1    2    0  502  0.48773843897E+02 -0.12898607595E+02  0.10048056323E+03  0.11243489455E+03  0.00000000000E+00 0.  1.
<scales pt_clust_5="13000.00000" pt_clust_6="13000.00000" pt_clust_7="13000.00000" pt_clust_8="13000.00000" pt_clust_9="50.45059"></scales>
<clustering>
<clus scale="   50.451">  1  9  2 -1</clus>
<clus scale="   93.116">  7  8 -1 -1</clus>
<clus scale="   95.226">  5  6 -1 -1</clus>
<clus scale="   96.103">  2  7  1 -1</clus>
<clus scale="   50.451">  1  5  2 -1</clus>
</clustering>
</event>
<event>
 9    1  0.1601012E-005  0.9284750E+02  0.7546771E-02  0.1298671E+00
         21   -1    0    0  501  502  0.00000000000E+00  0.00000000000E+00  0.35913854656E+02  0.35913854656E+02  0.00000000000E+00 0. -1.
          2   -1    0    0  502    0 -0.00000000000E+00 -0.00000000000E+00 -0.72127069120E+03  0.72127069120E+03  0.00000000000E+00 0. -1.
         23    2    1    2    0    0  0.15223702730E+02 -0.37566481602E+02 -0.32659334051E+03  0.34185521944E+03  0.92513671052E+02 0.  0.
         23    2    1    2    0    0  0.17186385450E+00 -0.42462124431E+02 -0.29803916858E+03  0.31369741608E+03  0.88179710229E+02 0.  0.
        -11    1    3    3    0    0  0.51275986758E+02 -0.23500898557E+02 -0.13357845212E+03  0.14499904111E+03  0.00000000000E+00 0.  1.
         11    1    3    3    0    0 -0.36052284027E+02 -0.14065583045E+02 -0.19301488839E+03  0.19685617834E+03  0.00000000000E+00 0. -1.
        -11    1    4    4    0    0 -0.31647390857E+02 -0.51075381483E+02 -0.14156260296E+03  0.15378628839E+03  0.00000000000E+00 0. -1.
         11    1    4    4    0    0  0.31819254712E+02  0.86132570520E+01 -0.15647656563E+03  0.15991112769E+03  0.00000000000E+00 0.  1.
          2    1    1    2  501    0 -0.15395566585E+02  0.80028606033E+02 -0.60724327455E+02  0.10163191034E+03  0.00000000000E+00 0. -1.
<scales pt_clust_5="13000.00000" pt_clust_6="13000.00000" pt_clust_7="13000.00000" pt_clust_8="13000.00000" pt_clust_9="81.49602"></scales>
<clustering>
<clus scale="   81.496">  1  9  2 -1</clus>
<clus scale="   88.180">  7  8 -1 -1</clus>
<clus scale="   88.530">  1  7  2 -1</clus>
<clus scale="   92.514">  5  6 -1 -1</clus>
<clus scale="   81.496">  1  5  2 -1</clus>
</clustering>
</event>
<event>
 9    1  0.1715675E-005  0.9521551E+02  0.7546771E-02  0.1292448E+00
         21   -1    0    0  501  502  0.00000000000E+00  0.00000000000E+00  0.11499827617E+03  0.11499827617E+03  0.00000000000E+00 0.  1.
          1   -1    0    0  502    0 -0.00000000000E+00 -0.00000000000E+00 -0.22460047060E+03  0.22460047060E+03  0.00000000000E+00 0. -1.
         23    2    1    2    0    0  0.11830835549E+02 -0.61161475683E+01 -0.16575626263E+03  0.19136781182E+03  0.94705463773E+02 0.  0.
         23    2    1    2    0    0  0.26816114150E+02  0.17143428131E+02  0.40397170753E+02  0.10506303652E+03  0.91615004951E+02 0.  0.
        -13    1    4    4    0    0  0.59976111477E+02  0.16043607412E+02  0.35521772319E+02  0.71528508969E+02  0.00000000000E+00 0.  1.
         13    1    4    4    0    0 -0.33159997327E+02  0.10998207192E+01  0.48753984344E+01  0.33534527553E+02  0.00000000000E+00 0. -1.
        -13    1    3    3    0    0  0.32778696139E+02  0.24632781662E+02 -0.30540901134E+02  0.51126935123E+02  0.00000000000E+00 0.  1.
         13    1    3    3    0    0 -0.20947860590E+02 -0.30748929230E+02 -0.13521536149E+03  0.14024087670E+03  0.00000000000E+00 0. -1.
          1    1    1    2  501    0 -0.38646949700E+02 -0.11027280563E+02  0.15756897453E+02  0.43167898432E+02  0.00000000000E+00 0. -1.
<scales pt_clust_5="13000.00000" pt_clust_6="13000.00000" pt_clust_7="13000.00000" pt_clust_8="13000.00000" pt_clust_9="40.18940"></scales>
<clustering>
<clus scale="   40.189">  1  9  2 -1</clus>
<clus scale="   91.615">  5  6 -1 -1</clus>
<clus scale="   92.142">  1  5  2 -1</clus>
<clus scale="   94.705">  7  8 -1 -1</clus>
<clus scale="   40.189">  1  5  2 -1</clus>
</clustering>
</event>
<event>
 9    1  0.1601012E-005  0.1241360E+03  0.7546771E-02  0.1239533E+00
          1   -1    0    0  502    0 -0.00000000000E+00  0.00000000000E+00  0.91002434809E+02  0.91002434809E+02  0.00000000000E+00 0. -1.
         21   -1    0    0  501  502  0.00000000000E+00 -0.00000000000E+00 -0.65022315596E+03  0.65022315596E+03  0.00000000000E+00 0. -1.
         23    2    1    2    0    0 -0.50135825104E+02 -0.46499134776E+02  0.22561268534E+02  0.12311461588E+03  0.99862041395E+02 0.  0.
         23    2    1    2    0    0  0.59328188396E+02  0.91186722295E+02 -0.28802081266E+03  0.32082809757E+03  0.90220992024E+02 0.  0.
        -11    1    4    4    0    0  0.24559814065E+02  0.10185586404E+03 -0.20637752093E+03  0.23145082124E+03  0.00000000000E+00 0. -1.
         11    1    4    4    0    0  0.34768374331E+02 -0.10669141749E+02 -0.81643291726E+02  0.89377276324E+02  0.00000000000E+00 0.  1.
        -13    1    3    3    0    0  0.20374715632E+02 -0.34107166287E+02  0.31854400641E+02  0.50922791257E+02  0.00000000000E+00 0.  1.
         13    1    3    3    0    0 -0.70510540736E+02 -0.12391968490E+02 -0.92931321069E+01  0.72191824622E+02  0.00000000000E+00 0. -1.
          1    1    1    2  501    0 -0.91923632929E+01 -0.44687587518E+02 -0.29376117703E+03  0.29728287732E+03  0.00000000000E+00 0. -1.
<scales pt_clust_5="13000.00000" pt_clust_6="13000.00000" pt_clust_7="13000.00000" pt_clust_8="13000.00000" pt_clust_9="45.62324"></scales>
<clustering>
<clus scale="   45.623">  2  9  1 -1</clus>
<clus scale="   90.221">  5  6 -1 -1</clus>
<clus scale="   99.862">  7  8 -1 -1</clus>
<clus scale="  116.521">  2  5  1 -1</clus>
<clus scale="   45.623">  2  5  1 -1</clus>
</clustering>
</event>
<event>
 9    1  0.1601012E-005  0.9570875E+02  0.7546771E-02  0.1296066E+00
         21   -1    0    0  501  502  0.00000000000E+00  0.00000000000E+00  0.50402794508E+02  0.50402794508E+02  0.00000000000E+00 0.  1.
         -1   -1    0    0    0  501 -0.00000000000E+00 -0.00000000000E+00 -0.40410154624E+03  0.40410154624E+03  0.00000000000E+00 0.  1.
         23    2    1    2    0    0  0.66887299471E+01  0.34493617993E+02 -0.31987939452E+03  0.33450838181E+03  0.91315287175E+02 0.  0.
         23    2    1    2    0    0 -0.44283250719E+01  0.21483765072E+00 -0.18932017456E+02  0.82161857808E+02  0.79827898478E+02 0.  0.
        -11    1    3    3    0    0 -0.45328978754E+01 -0.30761476958E+02 -0.11915209321E+03  0.12314234423E+03  0.00000000000E+00 0. -1.
         11    1    3    3    0    0  0.11221627822E+02  0.65255094952E+02 -0.20072730131E+03  0.21136603758E+03  0.00000000000E+00 0.  1.
        -11    1    4    4    0    0  0.29514545732E+02  0.24347243906E+02 -0.77226279998E+01  0.39032495165E+02  0.00000000000E+00 0. -1.
         11    1    4    4    0    0 -0.33942870804E+02 -0.24132406255E+02 -0.11209389456E+02  0.43129362643E+02  0.00000000000E+00 0.  1.
         -1    1    1    2    0  502 -0.22604048752E+01 -0.34708455644E+02 -0.14887339758E+02  0.37834101132E+02  0.00000000000E+00 0.  1.
<scales pt_clust_5="13000.00000" pt_clust_6="13000.00000" pt_clust_7="13000.00000" pt_clust_8="13000.00000" pt_clust_9="34.78198"></scales>
<clustering>
<clus scale="   34.782">  1  9  2 -1</clus>
<clus scale="   79.828">  7  8 -1 -1</clus>
<clus scale="   84.818">  1  7  2 -1</clus>
<clus scale="   91.315">  5  6 -1 -1</clus>
<clus scale="   34.782">  1  5  2 -1</clus>
</clustering>
</event>
<event>
 9    1  0.1601012E-005  0.1003864E+03  0.7546771E-02  0.1282092E+00
          2   -1    0    0  502    0 -0.00000000000E+00  0.00000000000E+00  0.38898076969E+03  0.38898076969E+03  0.00000000000E+00 0. -1.
         21   -1    0    0  501  502  0.00000000000E+00 -0.00000000000E+00 -0.37519640234E+02  0.37519640234E+02  0.00000000000E+00 0. -1.
         23    2    1    2    0    0 -0.26252251175E+00  0.17186837187E+02  0.20197453286E+03  0.22279835108E+03  0.92465869538E+02 0.  0.
         23    2    1    2    0    0  0.14948667321E+02 -0.32737713974E+02  0.14980420137E+03  0.18231015638E+03  0.97470373957E+02 0.  0.
        -11    1    3    3    0    0 -0.43450701922E+02 -0.45622984840E+01  0.11893546147E+03  0.12670604587E+03  0.00000000000E+00 0.  1.
         11    1    3    3    0    0  0.43188179411E+02  0.21749135671E+02  0.83039071391E+02  0.96092305211E+02  0.00000000000E+00 0. -1.
        -13    1    4    4    0    0 -0.30958194989E+02 -0.40284006323E+02  0.10967568685E+03  0.12087169763E+03  0.00000000000E+00 0. -1.
         13    1    4    4    0    0  0.45906862311E+02  0.75462923497E+01  0.40128514523E+02  0.61438458748E+02  0.00000000000E+00 0.  1.
          2    1    1    2  501    0 -0.14686144810E+02  0.15550876786E+02 -0.31760477749E+00  0.21391902463E+02  0.00000000000E+00 0. -1.
<scales pt_clust_5="13000.00000" pt_clust_6="13000.00000" pt_clust_7="13000.00000" pt_clust_8="13000.00000" pt_clust_9="21.38954"></scales>
<clustering>
<clus scale="   21.390">  2  9  1 -1</clus>
<clus scale="   92.466">  5  6 -1 -1</clus>
<clus scale="   95.535">  1  5  2 -1</clus>
<clus scale="   97.470">  7  8 -1 -1</clus>
<clus scale="   21.390">  2  5  1 -1</clus>
</clustering>
</event>
<event>
 9    1  0.1601012E-005  0.9951053E+02  0.7546771E-02  0.1282311E+00
         21   -1    0    0  501  502  0.00000000000E+00  0.00000000000E+00  0.88198521577E+02  0.88198521577E+02  0.00000000000E+00 0. -1.
          1   -1    0    0  502    0 -0.00000000000E+00 -0.00000000000E+00 -0.20972831143E+03  0.20972831143E+03  0.00000000000E+00 0. -1.
         23    2    1    2    0    0 -0.13477241965E+01  0.49475139700E+02 -0.12926433632E+03  0.16479407251E+03  0.89432722643E+02 0.  0.
         23    2    1    2    0    0  0.72773908880E+01 -0.15066838649E+02 -0.10838121763E+02  0.93584863804E+02  0.91436818650E+02 0.  0.
        -11    1    4    4    0    0 -0.11178884987E+02  0.30220343576E+02  0.17902553757E+02  0.36861064369E+02  0.00000000000E+00 0. -1.
         11    1    4    4    0    0  0.18456275875E+02 -0.45287182225E+02 -0.28740675520E+02  0.56723799435E+02  0.00000000000E+00 0.  1.
        -11    1    3    3    0    0 -0.36938748201E+02 -0.22294337025E+01 -0.31416661773E+02  0.48543260400E+02  0.00000000000E+00 0.  1.
         11    1    3    3    0    0  0.35591024005E+02  0.51704573403E+02 -0.97847674550E+02  0.11625081211E+03  0.00000000000E+00 0. -1.
          1    1    1    2  501    0 -0.59296666915E+01 -0.34408301051E+02  0.18572668229E+02  0.39547896700E+02  0.00000000000E+00 0. -1.
<scales pt_clust_5="13000.00000" pt_clust_6="13000.00000" pt_clust_7="13000.00000" pt_clust_8="13000.00000" pt_clust_9="34.91550"></scales>
<clustering>
<clus scale="   34.915">  1  9  2 -1</clus>
<clus scale="   89.433">  7  8 -1 -1</clus>
<clus scale="   91.437">  5  6 -1 -1</clus>
<clus scale="   97.672">  2  7  1 -1</clus>
<clus scale="   34.915">  1  5  2 -1</clus>
</clustering>
</event>
<event>
 9    1  0.1601012E-005  0.1851635E+03  0.7546771E-02  0.1163161E+00
         21   -1    0    0  501  502  0.00000000000E+00  0.00000000000E+00  0.41680726160E+02  0.41680726160E+02  0.00000000000E+00 0. -1.
          2   -1    0    0  502    0 -0.00000000000E+00 -0.00000000000E+00 -0.12388863169E+04  0.12388863169E+04  0.00000000000E+00 0. -1.
         23    2    1    2    0    0  0.15253026909E+03 -0.22682780453E+02 -0.63081158780E+03  0.65618758981E+03  0.94227926861E+02 0.  0.
         23    2    1    2    0    0 -0.15271637152E+03  0.86982880586E+02 -0.42037588905E+03  0.46483062971E+03  0.91996274763E+02 0.  0.
        -13    1    3    3    0    0  0.28625783159E+02 -0.82583381936E+01 -0.28974682565E+02  0.41559208859E+02  0.00000000000E+00 0.  1.
         13    1    3    3    0    0  0.12390448593E+03 -0.14424442260E+02 -0.60183690523E+03  0.61462838095E+03  0.00000000000E+00 0. -1.
        -13    1    4    4    0    0 -0.30059550649E+02  0.24372304300E+02 -0.24785944821E+02  0.45955727203E+02  0.00000000000E+00 0.  1.
         13    1    4    4    0    0 -0.12265682087E+03  0.62610576286E+02 -0.39558994423E+03  0.41887490250E+03  0.00000000000E+00 0. -1.
          2    1    1    2  501    0  0.18610243120E+00 -0.64300100132E+02 -0.14601811387E+03  0.15954882353E+03  0.00000000000E+00 0. -1.
<scales pt_clust_5="13000.00000" pt_clust_6="13000.00000" pt_clust_7="13000.00000" pt_clust_8="13000.00000" pt_clust_9="64.30037"></scales>
<clustering>
<clus scale="   64.300">  1  9  2 -1</clus>
<clus scale="   91.996">  7  8 -1 -1</clus>
<clus scale="   94.228">  5  6 -1 -1</clus>
<clus scale="  184.038">  1  7  2 -1</clus>
<clus scale="   64.300">  1  5  2 -1</clus>
</clustering>
</event>
<event>
 9    1  0.1601012E-005  0.1704908E+03  0.7546771E-02  0.1201704E+00
         21   -1    0    0  501  502  0.00000000000E+00  0.00000000000E+00  0.18953696520E+03  0.18953696520E+03  0.00000000000E+00 0. -1.
         -3   -1    0    0    0  501 -0.00000000000E+00 -0.00000000000E+00 -0.53352383402E+03  0.53352383402E+03  0.00000000000E+00 0.  1.
         23    2    1    2    0    0  0.48231532237E+02  0.34943834228E+01  0.53251686295E+02  0.11282413986E+03  0.86919808012E+02 0.  0.
         23    2    1    2    0    0 -0.18602495741E+03  0.23299290847E+02 -0.41972743050E+03  0.46807239339E+03  0.88161827367E+02 0.  0.
        -13    1    3    3    0    0  0.52442741007E+02  0.36518460820E+02  0.23232516384E+02  0.67996977010E+02  0.00000000000E+00 0. -1.
         13    1    3    3    0    0 -0.42112087691E+01 -0.33024077397E+02  0.30019169911E+02  0.44827162852E+02  0.00000000000E+00 0.  1.
        -13    1    4    4    0    0 -0.87926112679E+02 -0.30713781939E+02 -0.22367363805E+03  0.24228956653E+03  0.00000000000E+00 0.  1.
         13    1    4    4    0    0 -0.98098844728E+02  0.54013072785E+02 -0.19605379246E+03  0.22578282686E+03  0.00000000000E+00 0. -1.
         -3    1    1    2    0  502  0.13779342517E+03 -0.26793674269E+02  0.22488875386E+02  0.14216426596E+03  0.00000000000E+00 0.  1.
<scales pt_clust_5="13000.00000" pt_clust_6="13000.00000" pt_clust_7="13000.00000" pt_clust_8="13000.00000" pt_clust_9="145.92670"></scales>
<clustering>
<clus scale="   86.920">  5  6 -1 -1</clus>
<clus scale="   88.162">  7  8 -1 -1</clus>
<clus scale="   99.466">  2  5  1 -1</clus>
<clus scale="  145.927">  1  9  2 -1</clus>
<clus scale="  145.927">  1  5  2 -1</clus>
</clustering>
</event>
<event>
 9    1  0.1601012E-005  0.9247829E+02  0.7546771E-02  0.1297070E+00
         -1   -1    0    0    0  501 -0.00000000000E+00  0.00000000000E+00  0.43345533972E+03  0.43345533972E+03  0.00000000000E+00 0.  1.
         21   -1    0    0  501  502  0.00000000000E+00 -0.00000000000E+00 -0.24897652677E+02  0.24897652677E+02  0.00000000000E+00 0. -1.
         23    2    1    2    0    0  0.16694014757E+02 -0.27658011970E+02  0.21328294632E+03  0.23354459139E+03  0.89497515167E+02 0.  0.
         23    2    1    2    0    0 -0.82065902113E+01  0.90359602891E+01  0.14784935494E+03  0.17315586573E+03  0.89300198089E+02 0.  0.
        -11    1    4    4    0    0 -0.42703370738E+02 -0.17811370959E+02  0.71047324751E+02  0.84785288594E+02  0.00000000000E+00 0. -1.
         11    1    4    4    0    0  0.34496780526E+02  0.26847331248E+02  0.76802030193E+02  0.88370577137E+02  0.00000000000E+00 0.  1.
        -13    1    3    3    0    0  0.32760206974E+02 -0.52016434864E+02  0.10775588209E+03  0.12405753013E+03  0.00000000000E+00 0. -1.
         13    1    3    3    0    0 -0.16066192217E+02  0.24358422894E+02  0.10552706422E+03  0.10948706125E+03  0.00000000000E+00 0.  1.
         -1    1    1    2    0  502 -0.84874245453E+01  0.18622051681E+02  0.47425385784E+02  0.51652535281E+02  0.00000000000E+00 0.  1.
<scales pt_clust_5="13000.00000" pt_clust_6="13000.00000" pt_clust_7="13000.00000" pt_clust_8="13000.00000" pt_clust_9="20.46503"></scales>
<clustering>
<clus scale="   20.465">  2  9  1 -1</clus>
<clus scale="   89.300">  5  6 -1 -1</clus>
<clus scale="   89.498">  7  8 -1 -1</clus>
<clus scale="   92.287">  2  5  1 -1</clus>
<clus scale="   20.465">  2  5  1 -1</clus>
</clustering>
</event>
<event>
 9    1  0.1601012E-005  0.1919583E+03  0.7546771E-02  0.1156943E+00
         21   -1    0    0  501  502  0.00000000000E+00  0.00000000000E+00  0.39653580373E+03  0.39653580373E+03  0.00000000000E+00 0.  1.
         -1   -1    0    0    0  501 -0.00000000000E+00 -0.00000000000E+00 -0.18035382207E+03  0.18035382207E+03  0.00000000000E+00 0.  1.
         23    2    1    2    0    0 -0.93139637967E+02  0.16099741156E+03  0.12978382723E+02  0.20749322668E+03  0.91048569514E+02 0.  0.
         23    2    1    2    0    0 -0.30732237250E+00 -0.15992119855E+03  0.53117190487E+02  0.19259305460E+03  0.93251083431E+02 0.  0.
        -11    1    4    4    0    0 -0.74260944181E+01 -0.36498799583E+02  0.57931170949E+02  0.68871836166E+02  0.00000000000E+00 0. -1.
         11    1    4    4    0    0  0.71187720456E+01 -0.12342239897E+03 -0.48139804625E+01  0.12372121843E+03  0.00000000000E+00 0.  1.
        -11    1    3    3    0    0 -0.10465591290E+03  0.10515953782E+03  0.21273707176E+02  0.14987981557E+03  0.00000000000E+00 0.  1.
         11    1    3    3    0    0  0.11516274928E+02  0.55837873739E+02 -0.82953244531E+01  0.57613411109E+02  0.00000000000E+00 0. -1.
         -1    1    1    2    0  502  0.93446960340E+02 -0.10762130142E+01  0.15008640845E+03  0.17680334452E+03  0.00000000000E+00 0.  1.
<scales pt_clust_5="13000.00000" pt_clust_6="13000.00000" pt_clust_7="13000.00000" pt_clust_8="13000.00000" pt_clust_9="93.45316"></scales>
<clustering>
<clus scale="   91.049">  7  8 -1 -1</clus>
<clus scale="   93.251">  5  6 -1 -1</clus>
<clus scale="   93.453">  1  9  2 -1</clus>
<clus scale="  190.898">  2  7  1 -1</clus>
<clus scale="   93.453">  1  5  2 -1</clus>
</clustering>
</event>
<event>
 9    1  0.1601012E-005  0.1301917E+03  0.7546771E-02  0.1241008E+00
         21   -1    0    0  501  502  0.00000000000E+00  0.00000000000E+00  0.54951257215E+02  0.54951257215E+02  0.00000000000E+00 0. -1.
          1   -1    0    0  502    0 -0.00000000000E+00 -0.00000000000E+00 -0.51437729032E+03  0.51437729032E+03  0.00000000000E+00 0. -1.
         23    2    1    2    0    0 -0.18406583278E+02 -0.30323007151E+02 -0.20773263167E+03  0.22969931615E+03  0.91381849997E+02 0.  0.
         23    2    1    2    0    0 -0.83194066151E+02  0.17061056204E+02 -0.16049160920E+03  0.20245657298E+03  0.89547613241E+02 0.  0.
        -11    1    3    3    0    0  0.19327565383E+02 -0.43833473153E+02 -0.16177917159E+03  0.16872293417E+03  0.00000000000E+00 0.  1.
         11    1    3    3    0    0 -0.37734148661E+02  0.13510466001E+02 -0.45953460071E+02  0.60976381979E+02  0.00000000000E+00 0. -1.
        -13    1    4    4    0    0  0.58869254245E+01  0.23610177099E+02 -0.74872302373E+02  0.78727111063E+02  0.00000000000E+00 0.  1.
         13    1    4    4    0    0 -0.89080991575E+02 -0.65491208957E+01 -0.85619306831E+02  0.12372946192E+03  0.00000000000E+00 0. -1.
          1    1    1    2  501    0  0.10160064943E+03  0.13261950948E+02 -0.91201792235E+02  0.13717265841E+03  0.00000000000E+00 0. -1.
<scales pt_clust_5="13000.00000" pt_clust_6="13000.00000" pt_clust_7="13000.00000" pt_clust_8="13000.00000" pt_clust_9="94.50458"></scales>
<clustering>
<clus scale="   89.548">  7  8 -1 -1</clus>
<clus scale="   91.382">  5  6 -1 -1</clus>
<clus scale="   98.025">  2  5  1 -1</clus>
<clus scale="   94.505">  1  9  2 -1</clus>
<clus scale="   94.505">  1  5  2 -1</clus>
</clustering>
</event>
<event>
 9    1  0.1601012E-005  0.9176846E+02  0.7546771E-02  0.1299711E+00
         -1   -1    0    0    0  501 -0.00000000000E+00  0.00000000000E+00  0.54618081301E+02  0.54618081301E+02  0.00000000000E+00 0.  1.
         21   -1    0    0  501  502  0.00000000000E+00 -0.00000000000E+00 -0.32078993731E+03  0.32078993731E+03  0.00000000000E+00 0.  1.
         23    2    1    2    0    0  0.35741549929E+01 -0.14510853087E+02 -0.44555068602E+02  0.10146640319E+03  0.89927400701E+02 0.  0.
         23    2    1    2    0    0  0.56060999427E+01 -0.23043813984E+02 -0.70917041189E+02  0.11836191363E+03  0.91748951753E+02 0.  0.
        -11    1    4    4    0    0  0.85940747263E+01 -0.58024220081E+02 -0.35873284868E+02  0.68757260007E+02  0.00000000000E+00 0.  1.
         11    1    4    4    0    0 -0.29879747836E+01  0.34980406097E+02 -0.35043756322E+02  0.49604653624E+02  0.00000000000E+00 0. -1.
        -13    1    3    3    0    0  0.30076377505E+02  0.22671837206E+02 -0.40989725139E+02  0.55666491295E+02  0.00000000000E+00 0. -1.
         13    1    3    3    0    0 -0.26502222513E+02 -0.37182690292E+02 -0.35653434631E+01  0.45799911894E+02  0.00000000000E+00 0.  1.
         -1    1    1    2    0  502 -0.91802549356E+01  0.37554667071E+02 -0.15069974622E+03  0.15557970179E+03  0.00000000000E+00 0.  1.
<scales pt_clust_5="13000.00000" pt_clust_6="13000.00000" pt_clust_7="13000.00000" pt_clust_8="13000.00000" pt_clust_9="38.66045"></scales>
<clustering>
<clus scale="   38.660">  2  9  1 -1</clus>
<clus scale="   89.927">  7  8 -1 -1</clus>
<clus scale="   89.947">  1  7  2 -1</clus>
<clus scale="   91.749">  5  6 -1 -1</clus>
<clus scale="   38.660">  2  5  1 -1</clus>
</clustering>
</event>
<event>
 9    1  0.1601012E-005  0.1279967E+03  0.7546771E-02  0.1230992E+00
         21   -1    0    0  501  502  0.00000000000E+00  0.00000000000E+00  0.20105843193E+03  0.20105843193E+03  0.00000000000E+00 0. -1.
          2   -1    0    0  502    0 -0.00000000000E+00 -0.00000000000E+00 -0.70520808506E+03  0.70520808506E+03  0.00000000000E+00 0. -1.
         23    2    1    2    0    0 -0.96094496849E+02  0.40048485178E+02 -0.47872527180E+03  0.49778646105E+03  0.88178463619E+02 0.  0.
         23    2    1    2    0    0  0.62447446190E+02 -0.31432808101E+02 -0.20012091478E+03  0.23036427138E+03  0.90175451400E+02 0.  0.
        -11    1    3    3    0    0 -0.95381645521E+02  0.18024134721E+02 -0.45566828143E+03  0.46589281003E+03  0.00000000000E+00 0. -1.
         11    1    3    3    0    0 -0.71285132858E+00  0.22024350457E+02 -0.23056990373E+02  0.31893651016E+02  0.00000000000E+00 0.  1.
        -13    1    4    4    0    0 -0.23188406407E+02 -0.52848822651E+01 -0.31801124066E+02  0.39710749982E+02  0.00000000000E+00 0. -1.
         13    1    4    4    0    0  0.85635852597E+02 -0.26147925836E+02 -0.16831979072E+03  0.19065352140E+03  0.00000000000E+00 0.  1.
          2    1    1    2  501    0  0.33647050659E+02 -0.86156770775E+01  0.17469653346E+03  0.17811578457E+03  0.00000000000E+00 0. -1.
<scales pt_clust_5="13000.00000" pt_clust_6="13000.00000" pt_clust_7="13000.00000" pt_clust_8="13000.00000" pt_clust_9="34.73261"></scales>
<clustering>
<clus scale="   34.733">  1  9  2 -1</clus>
<clus scale="   88.178">  5  6 -1 -1</clus>
<clus scale="   90.175">  7  8 -1 -1</clus>
<clus scale="  126.598">  2  5  1 -1</clus>
<clus scale="   34.733">  1  5  2 -1</clus>
</clustering>
</event>
<event>
 9    1  0.1601012E-005  0.1034286E+03  0.7546771E-02  0.1281621E+00
         21   -1    0    0  501  502  0.00000000000E+00  0.00000000000E+00  0.37187392877E+03  0.37187392877E+03  0.00000000000E+00 0.  1.
          1   -1    0    0  502    0 -0.00000000000E+00 -0.00000000000E+00 -0.24881124513E+03  0.24881124513E+03  0.00000000000E+00 0. -1.
         23    2    1    2    0    0  0.11088896295E+02 -0.63887064308E+01 -0.22022645112E+03  0.24336668686E+03  0.10278071467E+03 0.  0.
         23    2    1    2    0    0 -0.98065831519E+01 -0.48111995411E+02  0.19347049395E+03  0.21788951865E+03  0.87373206021E+02 0.  0.
        -11    1    4    4    0    0  0.57120648325E+01 -0.67711400411E+02  0.17199796771E+03  0.18493448118E+03  0.00000000000E+00 0.  1.
         11    1    4    4    0    0 -0.15518647984E+02  0.19599405000E+02  0.21472526237E+02  0.32955037470E+02  0.00000000000E+00 0. -1.
        -13    1    3    3    0    0  0.37995277983E+02  0.36567994808E+02 -0.11889465189E+03  0.13006459026E+03  0.00000000000E+00 0. -1.
         13    1    3    3    0    0 -0.26906381688E+02 -0.42956701239E+02 -0.10133179923E+03  0.11330209659E+03  0.00000000000E+00 0.  1.
          1    1    1    2  501    0 -0.12823131433E+01  0.54500701842E+02  0.14981864081E+03  0.15942896839E+03  0.00000000000E+00 0. -1.
<scales pt_clust_5="13000.00000" pt_clust_6="13000.00000" pt_clust_7="13000.00000" pt_clust_8="13000.00000" pt_clust_9="54.51579"></scales>
<clustering>
<clus scale="   54.516">  1  9  2 -1</clus>
<clus scale="   87.373">  5  6 -1 -1</clus>
<clus scale="   88.134">  1  5  2 -1</clus>
<clus scale="  102.781">  7  8 -1 -1</clus>
<clus scale="   54.516">  1  5  2 -1</clus>
</clustering>
</event>
<event>
 9    1  0.1601012E-005  0.9454125E+02  0.7546771E-02  0.1295984E+00
          1   -1    0    0  502    0 -0.00000000000E+00  0.00000000000E+00  0.31768174085E+03  0.31768174085E+03  0.00000000000E+00 0. -1.
         21   -1    0    0  501  502  0.00000000000E+00 -0.00000000000E+00 -0.15247716468E+03  0.15247716468E+03  0.00000000000E+00 0. -1.
         23    2    1    2    0    0 -0.59371321980E+01  0.52100522367E+01  0.27071903606E+03  0.28665525522E+03  0.93915092900E+02 0.  0.
         23    2    1    2    0    0  0.21493162761E+02 -0.24944628490E+02 -0.21614117339E+02  0.95921054619E+02  0.87461352121E+02 0.  0.
        -11    1    3    3    0    0  0.82762136912E+01  0.46417298976E+02  0.10157079991E+03  0.11198075171E+03  0.00000000000E+00 0. -1.
         11    1    3    3    0    0 -0.14213345889E+02 -0.41207246740E+02  0.16914823615E+03  0.17467450351E+03  0.00000000000E+00 0.  1.
        -11    1    4    4    0    0 -0.31198281658E+00  0.31032688715E+02 -0.17682333746E+02  0.35718203047E+02  0.00000000000E+00 0.  1.
         11    1    4    4    0    0  0.21805145577E+02 -0.55977317205E+02 -0.39317835934E+01  0.60202851572E+02  0.00000000000E+00 0. -1.
          1    1    1    2  501    0 -0.15556030563E+02  0.19734576254E+02 -0.83900342557E+02  0.87582595691E+02  0.00000000000E+00 0. -1.
<scales pt_clust_5="13000.00000" pt_clust_6="13000.00000" pt_clust_7="13000.00000" pt_clust_8="13000.00000" pt_clust_9="25.12854"></scales>
<clustering>
<clus scale="   25.129">  2  9  1 -1</clus>
<clus scale="   87.461">  7  8 -1 -1</clus>
<clus scale="   88.133">  2  7  1 -1</clus>
<clus scale="   93.915">  5  6 -1 -1</clus>
<clus scale="   25.129">  2  5  1 -1</clus>
</clustering>
</event>
<event>
 9    1  0.1601012E-005  0.1234175E+03  0.7546771E-02  0.1254225E+00
         -1   -1    0    0    0  501 -0.00000000000E+00  0.00000000000E+00  0.14799207741E+03  0.14799207741E+03  0.00000000000E+00 0.  1.
         21   -1    0    0  501  502  0.00000000000E+00 -0.00000000000E+00 -0.11893307632E+03  0.11893307632E+03  0.00000000000E+00 0. -1.
         23    2    1    2    0    0 -0.25465389111E+01  0.28600652907E+02  0.16921909354E+02  0.83531985585E+02  0.76594773924E+02 0.  0.
         23    2    1    2    0    0 -0.12393735127E+02 -0.72254460110E+02  0.12540762144E+02  0.13725175918E+03  0.11535364323E+03 0.  0.
        -11    1    3    3    0    0 -0.29176009074E+02  0.35131564529E+02  0.28433031748E+02  0.53795014882E+02  0.00000000000E+00 0.  1.
         11    1    3    3    0    0  0.26629470163E+02 -0.65309116223E+01 -0.11511122395E+02  0.29736970703E+02  0.00000000000E+00 0. -1.
        -11    1    4    4    0    0 -0.25557547834E+02  0.26525582619E+02  0.18307113654E+00  0.36835150327E+02  0.00000000000E+00 0.  1.
         11    1    4    4    0    0  0.13163812707E+02 -0.98780042729E+02  0.12357691008E+02  0.10041660885E+03  0.00000000000E+00 0. -1.
         -1    1    1    2    0  502  0.14940274038E+02  0.43653807203E+02 -0.40367040476E+00  0.46141408967E+02  0.00000000000E+00 0.  1.
<scales pt_clust_5="13000.00000" pt_clust_6="13000.00000" pt_clust_7="13000.00000" pt_clust_8="13000.00000" pt_clust_9="46.13964"></scales>
<clustering>
<clus scale="   46.140">  2  9  1 -1</clus>
<clus scale="   76.595">  5  6 -1 -1</clus>
<clus scale="   88.273">  1  5  2 -1</clus>
<clus scale="  115.354">  7  8 -1 -1</clus>
<clus scale="   46.140">  2  5  1 -1</clus>
</clustering>
</event>
<event>
 9    1  0.1601012E-005  0.1118990E+03  0.7546771E-02  0.1264750E+00
          2   -1    0    0  502    0 -0.00000000000E+00  0.00000000000E+00  0.20368143011E+03  0.20368143011E+03  0.00000000000E+00 0. -1.
         21   -1    0    0  501  502  0.00000000000E+00 -0.00000000000E+00 -0.92325815025E+02  0.92325815025E+02  0.00000000000E+00 0.  1.
         23    2    1    2    0    0 -0.94695227735E+01  0.33757084493E+02  0.13502799214E+03  0.17631950224E+03  0.10782761981E+03 0.  0.
         23    2    1    2    0    0  0.15986270408E+02 -0.10914388914E+02 -0.19820704989E+02  0.95623409986E+02  0.91522081839E+02 0.  0.
        -13    1    4    4    0    0 -0.31007789997E+02  0.14441322616E+02 -0.24419120043E+02  0.42027708278E+02  0.00000000000E+00 0.  1.
         13    1    4    4    0    0  0.46994060405E+02 -0.25355711530E+02  0.45984150545E+01  0.53595701708E+02  0.00000000000E+00 0. -1.
        -13    1    3    3    0    0  0.19006993575E+02  0.54470365490E+02  0.12801620519E+03  0.14041522465E+03  0.00000000000E+00 0. -1.
         13    1    3    3    0    0 -0.28476516349E+02 -0.20713280997E+02  0.70117869443E+01  0.35904277589E+02  0.00000000000E+00 0.  1.
          2    1    1    2  501    0 -0.65167476341E+01 -0.22842695579E+02 -0.38516720584E+01  0.24064332916E+02  0.00000000000E+00 0. -1.
<scales pt_clust_5="13000.00000" pt_clust_6="13000.00000" pt_clust_7="13000.00000" pt_clust_8="13000.00000" pt_clust_9="23.75409"></scales>
<clustering>
<clus scale="   23.754">  2  9  1 -1</clus>
<clus scale="   91.522">  5  6 -1 -1</clus>
<clus scale="   96.285">  2  5  1 -1</clus>
<clus scale="  107.828">  7  8 -1 -1</clus>
<clus scale="   23.754">  2  5  1 -1</clus>
</clustering>
</event>
<event>
 9    1  0.1601012E-005  0.1077448E+03  0.7546771E-02  0.1266019E+00
         21   -1    0    0  501  502  0.00000000000E+00  0.00000000000E+00  0.73639316702E+02  0.73639316702E+02  0.00000000000E+00 0. -1.
          2   -1    0    0  502    0 -0.00000000000E+00 -0.00000000000E+00 -0.36112784314E+03  0.36112784314E+03  0.00000000000E+00 0. -1.
         23    2    1    2    0    0 -0.55314221296E+02  0.52213414146E+02 -0.20550837491E+03  0.23785373403E+03  0.92492177723E+02 0.  0.
         23    2    1    2    0    0  0.13060566014E+02 -0.31227420133E+02 -0.10695061500E+03  0.14353452196E+03  0.89543256552E+02 0.  0.
        -13    1    4    4    0    0  0.18177150109E+02 -0.59637578556E+02 -0.91698260531E+02  0.11088561921E+03  0.00000000000E+00 0.  1.
         13    1    4    4    0    0 -0.51165840954E+01  0.28410158424E+02 -0.15252354466E+02  0.32648902756E+02  0.00000000000E+00 0. -1.
        -13    1    3    3    0    0 -0.77098104416E+02  0.58830458773E+02 -0.16735509008E+03  0.19342405941E+03  0.00000000000E+00 0. -1.
         13    1    3    3    0    0  0.21783883120E+02 -0.66170446269E+01 -0.38153284832E+02  0.44429674620E+02  0.00000000000E+00 0.  1.
          2    1    1    2  501    0  0.42253655283E+02 -0.20985994014E+02  0.24970463474E+02  0.53378903844E+02  0.00000000000E+00 0. -1.
<scales pt_clust_5="13000.00000" pt_clust_6="13000.00000" pt_clust_7="13000.00000" pt_clust_8="13000.00000" pt_clust_9="47.17821"></scales>
<clustering>
<clus scale="   47.178">  1  9  2 -1</clus>
<clus scale="   89.543">  5  6 -1 -1</clus>
<clus scale="   92.492">  7  8 -1 -1</clus>
<clus scale="  105.224">  1  5  2 -1</clus>
<clus scale="   47.178">  1  5  2 -1</clus>
</clustering>
</event>
<event>
 9    1  0.1601012E-005  0.2449043E+03  0.7546771E-02  0.1116668E+00
         21   -1    0    0  501  502  0.00000000000E+00  0.00000000000E+00  0.94771954440E+02  0.94771954440E+02  0.00000000000E+00 0. -1.
          1   -1    0    0  502    0 -0.00000000000E+00 -0.00000000000E+00 -0.11533290537E+04  0.11533290537E+04  0.00000000000E+00 0. -1.
         23    2    1    2    0    0  0.24736749392E+03 -0.53019134992E+01 -0.57153988900E+03  0.62924024252E+03  0.89814535305E+02 0.  0.
         23    2    1    2    0    0 -0.18410076131E+03 -0.11745750488E+03 -0.24838872465E+03  0.34315057647E+03  0.91465861554E+02 0.  0.
        -11    1    4    4    0    0 -0.44344079145E+02 -0.77794676147E-02 -0.14929070316E+02  0.46789684293E+02  0.00000000000E+00 0.  1.
         11    1    4    4    0    0 -0.13975668217E+03 -0.11744972541E+03 -0.23345965434E+03  0.29636089218E+03  0.00000000000E+00 0. -1.
        -13    1    3    3    0    0  0.23186105493E+03 -0.28990522672E+02 -0.52676287311E+03  0.57626306813E+03  0.00000000000E+00 0. -1.
         13    1    3    3    0    0  0.15506438989E+02  0.23688609173E+02 -0.44777015890E+02  0.52977174393E+02  0.00000000000E+00 0.  1.
          1    1    1    2  501    0 -0.63266732604E+02  0.12275941838E+03 -0.23862848556E+03  0.27571018911E+03  0.00000000000E+00 0. -1.
<scales pt_clust_5="13000.00000" pt_clust_6="13000.00000" pt_clust_7="13000.00000" pt_clust_8="13000.00000" pt_clust_9="138.10349"></scales>
<clustering>
<clus scale="   89.815">  7  8 -1 -1</clus>
<clus scale="   91.466">  5  6 -1 -1</clus>
<clus scale="  138.103">  1  9  2 -1</clus>
<clus scale="  244.292">  2  7  1 -1</clus>
<clus scale="  138.103">  1  5  2 -1</clus>
</clustering>
</event>
<event>
 9    1  0.1601012E-005  0.1210790E+03  0.7546771E-02  0.1243628E+00
         21   -1    0    0  501  502  0.00000000000E+00  0.00000000000E+00  0.40465839651E+02  0.40465839651E+02  0.00000000000E+00 0. -1.
          1   -1    0    0  502    0 -0.00000000000E+00 -0.00000000000E+00 -0.50144081943E+03  0.50144081943E+03  0.00000000000E+00 0. -1.
         23    2    1    2    0    0  0.83086676221E+02  0.21857648670E+02 -0.30458384069E+03  0.32866230338E+03  0.88692959618E+02 0.  0.
         23    2    1    2    0    0 -0.52319271938E+02 -0.48143920357E+01 -0.10985891298E+03  0.15491465631E+03  0.95755341334E+02 0.  0.
        -11    1    3    3    0    0  0.94397138327E+02  0.39614028755E+02 -0.25626831379E+03  0.27595930796E+03  0.00000000000E+00 0. -1.
         11    1    3    3    0    0 -0.11310462106E+02 -0.17756380085E+02 -0.48315526902E+02  0.52702995423E+02  0.00000000000E+00 0.  1.
        -13    1    4    4    0    0 -0.74523112410E+02  0.16459794668E+02 -0.63487568157E+02  0.99273815452E+02  0.00000000000E+00 0. -1.
         13    1    4    4    0    0  0.22203840472E+02 -0.21274186704E+02 -0.46371344818E+02  0.55640840862E+02  0.00000000000E+00 0.  1.
          1    1    1    2  501    0 -0.30767404283E+02 -0.17043256634E+02 -0.46532226117E+02  0.58329699385E+02  0.00000000000E+00 0. -1.
<scales pt_clust_5="13000.00000" pt_clust_6="13000.00000" pt_clust_7="13000.00000" pt_clust_8="13000.00000" pt_clust_9="35.17251"></scales>
<clustering>
<clus scale="   35.173">  1  9  2 -1</clus>
<clus scale="   88.693">  5  6 -1 -1</clus>
<clus scale="   95.755">  7  8 -1 -1</clus>
<clus scale="  115.575">  2  5  1 -1</clus>
<clus scale="   35.173">  1  5  2 -1</clus>
</clustering>
</event>
<event>
 9    1  0.1601012E-005  0.1081639E+03  0.7546771E-02  0.1269183E+00
         21   -1    0    0  501  502  0.00000000000E+00  0.00000000000E+00  0.15282701839E+03  0.15282701839E+03  0.00000000000E+00 0.  1.
          2   -1    0    0  502    0 -0.00000000000E+00 -0.00000000000E+00 -0.11380589774E+03  0.11380589774E+03  0.00000000000E+00 0. -1.
         23    2    1    2    0    0  0.61164008697E+02  0.13636920936E+02 -0.40471046125E+02  0.11783316845E+03  0.91212655044E+02 0.  0.
         23    2    1    2    0    0 -0.51663882673E+02  0.10934465536E+02  0.43635906249E+02  0.10430618808E+03  0.78657289860E+02 0.  0.
        -13    1    3    3    0    0  0.60883448799E+02  0.45522804873E+02 -0.16118765895E+02  0.77710583031E+02  0.00000000000E+00 0.  1.
         13    1    3    3    0    0  0.28055989890E+00 -0.31885883937E+02 -0.24352280230E+02  0.40122585419E+02  0.00000000000E+00 0. -1.
        -13    1    4    4    0    0 -0.18635392145E+02  0.42959620690E+02  0.32415360720E+02  0.56952282315E+02  0.00000000000E+00 0.  1.
         13    1    4    4    0    0 -0.33028490528E+02 -0.32025155154E+02  0.11220545529E+02  0.47353905765E+02  0.00000000000E+00 0. -1.
          2    1    1    2  501    0 -0.95001260247E+01 -0.24571386472E+02  0.35856260519E+02  0.44493559601E+02  0.00000000000E+00 0. -1.
<scales pt_clust_5="13000.00000" pt_clust_6="13000.00000" pt_clust_7="13000.00000" pt_clust_8="13000.00000" pt_clust_9="26.34398"></scales>
<clustering>
<clus scale="   26.344">  1  9  2 -1</clus>
<clus scale="   78.657">  7  8 -1 -1</clus>
<clus scale="   91.213">  5  6 -1 -1</clus>
<clus scale="   97.809">  1  7  2 -1</clus>
<clus scale="   26.344">  1  5  2 -1</clus>
</clustering>
</event>
<event>
 9    1  0.1601012E-005  0.9363717E+02  0.7546771E-02  0.1294827E+00
         21   -1    0    0  501  502  0.00000000000E+00  0.00000000000E+00  0.34127603369E+03  0.34127603369E+03  0.00000000000E+00 0.  1.
          1   -1    0    0  502    0 -0.00000000000E+00 -0.00000000000E+00 -0.36293920396E+03  0.36293920396E+03  0.00000000000E+00 0. -1.
         23    2    1    2    0    0 -0.16658693376E+02  0.24219350066E+01 -0.33529473359E+03  0.34779245816E+03  0.90849643596E+02 0.  0.
         23    2    1    2    0    0  0.53417988203E+02 -0.26275557239E+02  0.14194108124E+03  0.17922835892E+03  0.91824004073E+02 0.  0.
        -11    1    3    3    0    0  0.34478951238E+02  0.17243254990E+02 -0.12157240860E+03  0.12753814509E+03  0.00000000000E+00 0.  1.
         11    1    3    3    0    0 -0.51137644613E+02 -0.14821319983E+02 -0.21372232499E+03  0.22025431306E+03  0.00000000000E+00 0. -1.
        -13    1    4    4    0    0 -0.22783943280E+02 -0.24055208280E+02  0.45895621001E+02  0.56605380874E+02  0.00000000000E+00 0.  1.
         13    1    4    4    0    0  0.76201931483E+02 -0.22203489584E+01  0.96045460242E+02  0.12262297804E+03  0.00000000000E+00 0. -1.
          1    1    1    2  501    0 -0.36759294827E+02  0.23853622232E+02  0.17169048207E+03  0.17719442058E+03  0.00000000000E+00 0. -1.
<scales pt_clust_5="13000.00000" pt_clust_6="13000.00000" pt_clust_7="13000.00000" pt_clust_8="13000.00000" pt_clust_9="43.82056"></scales>
<clustering>
<clus scale="   43.821">  1  9  2 -1</clus>
<clus scale="   90.850">  5  6 -1 -1</clus>
<clus scale="   91.824">  7  8 -1 -1</clus>
<clus scale="   92.682">  2  5  1 -1</clus>
<clus scale="   43.821">  1  5  2 -1</clus>
</clustering>
</event>
<event>
 9    1  0.1601012E-005  0.9476730E+02  0.7546771E-02  0.1293578E+00
          3   -1    0    0  502    0 -0.00000000000E+00  0.00000000000E+00  0.16751196177E+03  0.16751196177E+03  0.00000000000E+00 0. -1.
         21   -1    0    0  501  502  0.00000000000E+00 -0.00000000000E+00 -0.15369252404E+03  0.15369252404E+03  0.00000000000E+00 0.  1.
         23    2    1    2    0    0 -0.43074378299E+01 -0.15183900416E+02  0.11495760785E+03  0.14743334078E+03  0.90951819756E+02 0.  0.
         23    2    1    2    0    0  0.16353984290E+01 -0.27421944738E+02 -0.76820052717E+02  0.12464102525E+03  0.94230712059E+02 0.  0.
        -11    1    4    4    0    0  0.24389244472E+02 -0.55300189599E+02 -0.36534305017E+02  0.70623662172E+02  0.00000000000E+00 0.  1.
         11    1    4    4    0    0 -0.22753846043E+02  0.27878244861E+02 -0.40285747700E+02  0.54017363079E+02  0.00000000000E+00 0. -1.
        -13    1    3    3    0    0  0.38210740766E+02  0.11627491249E+02  0.66749531039E+02  0.77786625821E+02  0.00000000000E+00 0.  1.
         13    1    3    3    0    0 -0.42518178596E+02 -0.26811391665E+02  0.48208076815E+02  0.69646714958E+02  0.00000000000E+00 0. -1.
          3    1    1    2  501    0  0.26720394009E+01  0.42605845154E+02 -0.24318117406E+02  0.49130119785E+02  0.00000000000E+00 0. -1.
<scales pt_clust_5="13000.00000" pt_clust_6="13000.00000" pt_clust_7="13000.00000" pt_clust_8="13000.00000" pt_clust_9="42.68955"></scales>
<clustering>
<clus scale="   42.690">  2  9  1 -1</clus>
<clus scale="   90.952">  7  8 -1 -1</clus>
<clus scale="   91.508">  1  7  2 -1</clus>
<clus scale="   94.231">  5  6 -1 -1</clus>
<clus scale="   42.690">  2  5  1 -1</clus>
</clustering>
</event>
<event>
 9    1  0.1601012E-005  0.9883012E+02  0.7546771E-02  0.1282968E+00
          1   -1    0    0  502    0 -0.00000000000E+00  0.00000000000E+00  0.23827114129E+03  0.23827114129E+03  0.00000000000E+00 0. -1.
         21   -1    0    0  501  502  0.00000000000E+00 -0.00000000000E+00 -0.35507400679E+03  0.35507400679E+03  0.00000000000E+00 0. -1.
         23    2    1    2    0    0  0.47959305736E+02  0.34761526244E+02  0.11228308093E+03  0.15649119130E+03  0.91507070649E+02 0.  0.
         23    2    1    2    0    0 -0.23213685541E+02  0.12226554428E+02  0.79496324656E+02  0.12373537945E+03  0.91117587016E+02 0.  0.
        -13    1    3    3    0    0 -0.25866944755E+02  0.86794703943E-01  0.16481893314E+02  0.30671797657E+02  0.00000000000E+00 0.  1.
         13    1    3    3    0    0  0.73826250491E+02  0.34674731540E+02  0.95801187616E+02  0.12581939365E+03  0.00000000000E+00 0. -1.
        -13    1    4    4    0    0  0.29198464368E+02 -0.17052478418E+02  0.37353682418E+02  0.50384868084E+02  0.00000000000E+00 0.  1.
         13    1    4    4    0    0 -0.52412149909E+02  0.29279032847E+02  0.42142642237E+02  0.73350511363E+02  0.00000000000E+00 0. -1.
          1    1    1    2  501    0 -0.24745620194E+02 -0.46988080672E+02 -0.30858227108E+03  0.31311857733E+03  0.00000000000E+00 0. -1.
<scales pt_clust_5="13000.00000" pt_clust_6="13000.00000" pt_clust_7="13000.00000" pt_clust_8="13000.00000" pt_clust_9="53.10579"></scales>
<clustering>
<clus scale="   53.106">  2  9  1 -1</clus>
<clus scale="   91.118">  7  8 -1 -1</clus>
<clus scale="   91.507">  5  6 -1 -1</clus>
<clus scale="   98.470">  2  7  1 -1</clus>
<clus scale="   53.106">  2  5  1 -1</clus>
</clustering>
</event>
<event>
 9    1  0.1601012E-005  0.1205281E+03  0.7546771E-02  0.1246738E+00
         -3   -1    0    0    0  501 -0.00000000000E+00  0.00000000000E+00  0.70803971871E+03  0.70803971871E+03  0.00000000000E+00 0.  1.
         21   -1    0    0  501  502  0.00000000000E+00 -0.00000000000E+00 -0.28477882527E+02  0.28477882527E+02  0.00000000000E+00 0.  1.
         23    2    1    2    0    0  0.12059257134E+02  0.64375320537E+02  0.51205173154E+03  0.52671116087E+03  0.10458519794E+03 0.  0.
         23    2    1    2    0    0 -0.30683881639E+00 -0.46325113656E+02  0.12502987389E+03  0.16217767480E+03  0.92320195702E+02 0.  0.
        -11    1    3    3    0    0  0.57263952702E+02  0.38259360809E+02  0.23952976747E+03  0.24923372259E+03  0.00000000000E+00 0. -1.
         11    1    3    3    0    0 -0.45204695568E+02  0.26115959728E+02  0.27252196407E+03  0.27747743828E+03  0.00000000000E+00 0.  1.
        -13    1    4    4    0    0  0.36431345292E+01  0.28314172551E+02  0.34681731412E+02  0.44919787290E+02  0.00000000000E+00 0.  1.
         13    1    4    4    0    0 -0.39499733456E+01 -0.74639286207E+02  0.90348142475E+02  0.11725788751E+03  0.00000000000E+00 0. -1.
         -3    1    1    2    0  502 -0.11752418318E+02 -0.18050206881E+02  0.42480230748E+02  0.47628765564E+02  0.00000000000E+00 0.  1.
<scales pt_clust_5="13000.00000" pt_clust_6="13000.00000" pt_clust_7="13000.00000" pt_clust_8="13000.00000" pt_clust_9="21.53902"></scales>
<clustering>
<clus scale="   21.539">  2  9  1 -1</clus>
<clus scale="   92.320">  7  8 -1 -1</clus>
<clus scale="  104.585">  5  6 -1 -1</clus>
<clus scale="  110.054">  2  7  1 -1</clus>
<clus scale="   21.539">  2  5  1 -1</clus>
</clustering>
</event>
<event>
 9    1  0.1601012E-005  0.1269909E+03  0.7546771E-02  0.1232087E+00
         21   -1    0    0  501  502  0.00000000000E+00  0.00000000000E+00  0.12634381376E+03  0.12634381376E+03  0.00000000000E+00 0.  1.
          3   -1    0    0  502    0 -0.00000000000E+00 -0.00000000000E+00 -0.41486125439E+03  0.41486125439E+03  0.00000000000E+00 0. -1.
         23    2    1    2    0    0  0.69017810247E+02  0.46286952697E+02 -0.31445287842E+03  0.33771152303E+03  0.90898404403E+02 0.  0.
         23    2    1    2    0    0 -0.10975881777E+03 -0.55308505814E+02 -0.23288564026E+01  0.15309425504E+03  0.91249101153E+02 0.  0.
        -11    1    3    3    0    0  0.31190791409E+02  0.46645866480E+02 -0.28301630956E+03  0.28852544741E+03  0.00000000000E+00 0. -1.
         11    1    3    3    0    0  0.37827018838E+02 -0.35891378336E+00 -0.31436568857E+02  0.49186075618E+02  0.00000000000E+00 0.  1.
        -13    1    4    4    0    0 -0.74803763797E+02 -0.20040583842E+01  0.31195546373E+02  0.81072692331E+02  0.00000000000E+00 0.  1.
         13    1    4    4    0    0 -0.34955053975E+02 -0.53304447430E+02 -0.33524402776E+02  0.72021562714E+02  0.00000000000E+00 0. -1.
          3    1    1    2  501    0  0.40741007526E+02  0.90215531173E+01  0.28264294187E+02  0.50399290082E+02  0.00000000000E+00 0. -1.
<scales pt_clust_5="13000.00000" pt_clust_6="13000.00000" pt_clust_7="13000.00000" pt_clust_8="13000.00000" pt_clust_9="41.72791"></scales>
<clustering>
<clus scale="   41.728">  1  9  2 -1</clus>
<clus scale="   90.898">  5  6 -1 -1</clus>
<clus scale="   91.249">  7  8 -1 -1</clus>
<clus scale="  126.739">  2  5  1 -1</clus>
<clus scale="   41.728">  1  5  2 -1</clus>
</clustering>
</event>
<event>
 9    1  0.1601012E-005  0.1844560E+03  0.7546771E-02  0.1163657E+00
         21   -1    0    0  501  502  0.00000000000E+00  0.00000000000E+00  0.21921800873E+03  0.21921800873E+03  0.00000000000E+00 0.  1.
          1   -1    0    0  502    0 -0.00000000000E+00 -0.00000000000E+00 -0.58371457337E+03  0.58371457337E+03  0.00000000000E+00 0. -1.
         23    2    1    2    0    0  0.11775128283E+03  0.11413188590E+03 -0.49119448337E+03  0.52515481628E+03  0.87316141585E+02 0.  0.
         23    2    1    2    0    0 -0.96069660596E+02 -0.11627905885E+03  0.28305118259E+02  0.17700154701E+03  0.88193926728E+02 0.  0.
        -11    1    3    3    0    0  0.58493979170E+02  0.72821071240E+02 -0.38868578078E+03  0.39975128542E+03  0.00000000000E+00 0. -1.
         11    1    3    3    0    0  0.59257303663E+02  0.41310814658E+02 -0.10250870259E+03  0.12540353086E+03  0.00000000000E+00 0.  1.
        -13    1    4    4    0    0 -0.22571823469E+02 -0.14976029274E+01  0.33711465700E+02  0.40597942668E+02  0.00000000000E+00 0. -1.
         13    1    4    4    0    0 -0.73497837127E+02 -0.11478145592E+03 -0.54063474416E+01  0.13640360434E+03  0.00000000000E+00 0.  1.
          1    1    1    2  501    0 -0.21681622237E+02  0.21471729506E+01  0.98392800469E+02  0.10077621881E+03  0.00000000000E+00 0. -1.
<scales pt_clust_5="13000.00000" pt_clust_6="13000.00000" pt_clust_7="13000.00000" pt_clust_8="13000.00000" pt_clust_9="21.78768"></scales>
<clustering>
<clus scale="   21.788">  1  9  2 -1</clus>
<clus scale="   87.316">  5  6 -1 -1</clus>
<clus scale="   88.194">  7  8 -1 -1</clus>
<clus scale="  184.038">  2  5  1 -1</clus>
<clus scale="   21.788">  1  5  2 -1</clus>
</clustering>
</event>
<event>
 9    1  0.1601012E-005  0.1428788E+03  0.7546771E-02  0.1228898E+00
          2   -1    0    0  502    0 -0.00000000000E+00  0.00000000000E+00  0.61536207454E+03  0.61536207454E+03  0.00000000000E+00 0. -1.
         21   -1    0    0  501  502  0.00000000000E+00 -0.00000000000E+00 -0.62882379795E+02  0.62882379795E+02  0.00000000000E+00 0.  1.
         23    2    1    2    0    0 -0.25699418577E+00 -0.26831643835E+02  0.19949966156E+03  0.22098046361E+03  0.91171526127E+02 0.  0.
         23    2    1    2    0    0 -0.59928282117E+02 -0.85691958314E+02  0.88258863360E+02  0.16339135458E+03  0.89289400672E+02 0.  0.
        -11    1    4    4    0    0  0.13076738497E+02 -0.50118740517E+02  0.14758177216E+02  0.53858082360E+02  0.00000000000E+00 0.  1.
         11    1    4    4    0    0 -0.73005020614E+02 -0.35573217797E+02  0.73500686144E+02  0.10953327222E+03  0.00000000000E+00 0. -1.
        -13    1    3    3    0    0 -0.15950064805E+02 -0.52642167856E+02  0.75854921541E+02  0.93699367798E+02  0.00000000000E+00 0.  1.
         13    1    3    3    0    0  0.15693070619E+02  0.25810524021E+02  0.12364474002E+03  0.12728109581E+03  0.00000000000E+00 0. -1.
          2    1    1    2  501    0  0.60185276303E+02  0.11252360215E+03  0.26472116982E+03  0.29387263615E+03  0.00000000000E+00 0. -1.
<scales pt_clust_5="13000.00000" pt_clust_6="13000.00000" pt_clust_7="13000.00000" pt_clust_8="13000.00000" pt_clust_9="111.54271"></scales>
<clustering>
<clus scale="   89.289">  5  6 -1 -1</clus>
<clus scale="   91.172">  7  8 -1 -1</clus>
<clus scale="   95.038">  1  7  2 -1</clus>
<clus scale="  111.543">  2  9  1 -1</clus>
<clus scale="  111.543">  2  5  1 -1</clus>
</clustering>
</event>
<event>
 9    1  0.1601012E-005  0.9078121E+02  0.7546771E-02  0.1301048E+00
         21   -1    0    0  501  502  0.00000000000E+00  0.00000000000E+00  0.16042680691E+03  0.16042680691E+03  0.00000000000E+00 0. -1.
          1   -1    0    0  502    0 -0.00000000000E+00 -0.00000000000E+00 -0.94140171966E+02  0.94140171966E+02  0.00000000000E+00 0. -1.
         23    2    1    2    0    0  0.15525647083E+02 -0.16268839971E+01 -0.22910251377E+02  0.94830649895E+02  0.90687816561E+02 0.  0.
         23    2    1    2    0    0  0.20403532625E+02 -0.58388584876E+01  0.48355415378E+02  0.10483032736E+03  0.90558019666E+02 0.  0.
        -13    1    3    3    0    0 -0.25197150568E+02 -0.31318214567E+02 -0.18473921867E+02  0.44238136823E+02  0.00000000000E+00 0.  1.
         13    1    3    3    0    0  0.40722797650E+02  0.29691330570E+02 -0.44363295097E+01  0.50592513073E+02  0.00000000000E+00 0. -1.
        -13    1    4    4    0    0 -0.97583346763E+01  0.22584656130E+02  0.57364783827E+02  0.62418027938E+02  0.00000000000E+00 0. -1.
         13    1    4    4    0    0  0.30161867302E+02 -0.28423514617E+02 -0.90093684489E+01  0.42412299421E+02  0.00000000000E+00 0.  1.
          1    1    1    2  501    0 -0.35929179708E+02  0.74657424847E+01  0.40841470942E+02  0.54906001621E+02  0.00000000000E+00 0. -1.
<scales pt_clust_5="13000.00000" pt_clust_6="13000.00000" pt_clust_7="13000.00000" pt_clust_8="13000.00000" pt_clust_9="36.69664"></scales>
<clustering>
<clus scale="   36.697">  1  9  2 -1</clus>
<clus scale="   90.558">  7  8 -1 -1</clus>
<clus scale="   90.652">  1  7  2 -1</clus>
<clus scale="   90.688">  5  6 -1 -1</clus>
<clus scale="   36.697">  1  5  2 -1</clus>
</clustering>
</event>
<event>
 9    1  0.1655009E-005  0.9403819E+02  0.7546771E-02  0.1294045E+00
         21   -1    0    0  501  502  0.00000000000E+00  0.00000000000E+00  0.71875334645E+02  0.71875334645E+02  0.00000000000E+00 0.  1.
          1   -1    0    0  502    0 -0.00000000000E+00 -0.00000000000E+00 -0.42922497061E+03  0.42922497061E+03  0.00000000000E+00 0. -1.
         23    2    1    2    0    0 -0.14127994536E+02  0.34670022027E+01 -0.34549288503E+03  0.35800322997E+03  0.92678793300E+02 0.  0.
         23    2    1    2    0    0  0.28118764481E+02  0.34160382651E+02 -0.15538990025E+02  0.10278429048E+03  0.91463399777E+02 0.  0.
        -11    1    3    3    0    0  0.18571943714E+02  0.33938454484E+02 -0.81055193342E+02  0.89814698985E+02  0.00000000000E+00 0.  1.
         11    1    3    3    0    0 -0.32699938250E+02 -0.30471452281E+02 -0.26443769169E+03  0.26818853098E+03  0.00000000000E+00 0. -1.
        -13    1    4    4    0    0  0.61651501774E+02  0.23619160286E+02 -0.14627003652E+02  0.67621902069E+02  0.00000000000E+00 0.  1.
         13    1    4    4    0    0 -0.33532737293E+02  0.10541222365E+02 -0.91198637315E+00  0.35162388406E+02  0.00000000000E+00 0. -1.
          1    1    1    2  501    0 -0.13990769944E+02 -0.37627384853E+02  0.36822390909E+01  0.40312784812E+02  0.00000000000E+00 0. -1.
<scales pt_clust_5="13000.00000" pt_clust_6="13000.00000" pt_clust_7="13000.00000" pt_clust_8="13000.00000" pt_clust_9="40.14426"></scales>
<clustering>
<clus scale="   40.144">  1  9  2 -1</clus>
<clus scale="   91.463">  7  8 -1 -1</clus>
<clus scale="   92.679">  5  6 -1 -1</clus>
<clus scale="   92.841">  1  7  2 -1</clus>
<clus scale="   40.144">  1  5  2 -1</clus>
</clustering>
</event>
<event>
 9    1  0.1601012E-005  0.2502175E+03  0.7546771E-02  0.1113441E+00
          2   -1    0    0  502    0 -0.00000000000E+00  0.00000000000E+00  0.32782692665E+03  0.32782692665E+03  0.00000000000E+00 0. -1.
         21   -1    0    0  501  502  0.00000000000E+00 -0.00000000000E+00 -0.70570818592E+03  0.70570818592E+03  0.00000000000E+00 0.  1.
         23    2    1    2    0    0  0.22787268525E+03 -0.22810874833E+02  0.22761522506E+03  0.33603779615E+03  0.93093571575E+02 0.  0.
         23    2    1    2    0    0 -0.25946638118E+03 -0.59553424512E+01 -0.38345184717E+03  0.47137903372E+03  0.88343677023E+02 0.  0.
        -11    1    3    3    0    0  0.16225785743E+03 -0.80585381836E+01  0.97233253320E+02  0.18933266461E+03  0.00000000000E+00 0. -1.
         11    1    3    3    0    0  0.65614827817E+02 -0.14752336649E+02  0.13038197174E+03  0.14670513154E+03  0.00000000000E+00 0.  1.
        -11    1    4    4    0    0 -0.22888414780E+03  0.11125782328E+02 -0.27805842437E+03  0.36031683767E+03  0.00000000000E+00 0.  1.
         11    1    4    4    0    0 -0.30582233377E+02 -0.17081124779E+02 -0.10539342280E+03  0.11106219605E+03  0.00000000000E+00 0. -1.
          2    1    1    2  501    0  0.31593695930E+02  0.28766217284E+02 -0.22204463717E+03  0.22611828271E+03  0.00000000000E+00 0. -1.
<scales pt_clust_5="13000.00000" pt_clust_6="13000.00000" pt_clust_7="13000.00000" pt_clust_8="13000.00000" pt_clust_9="42.72771"></scales>
<clustering>
<clus scale="   42.728">  2  9  1 -1</clus>
<clus scale="   88.344">  7  8 -1 -1</clus>
<clus scale="   93.094">  5  6 -1 -1</clus>
<clus scale="  248.489">  2  7  1 -1</clus>
<clus scale="   42.728">  2  5  1 -1</clus>
</clustering>
</event>
<event>
 9    1  0.1601012E-005  0.9417482E+02  0.7546771E-02  0.1294166E+00
         21   -1    0    0  501  502  0.00000000000E+00  0.00000000000E+00  0.13194370689E+03  0.13194370689E+03  0.00000000000E+00 0.  1.
         -2   -1    0    0    0  501 -0.00000000000E+00 -0.00000000000E+00 -0.12672408627E+03  0.12672408627E+03  0.00000000000E+00 0.  1.
         23    2    1    2    0    0  0.26312221495E+02  0.94028451417E+01 -0.64312091645E+02  0.11416944879E+03  0.90099230896E+02 0.  0.
         23    2    1    2    0    0  0.73157295783E+01 -0.34604198746E+01  0.48516622147E+02  0.10440114341E+03  0.92088227893E+02 0.  0.
        -11    1    3    3    0    0  0.41073016240E+02  0.39380162999E+02 -0.55782458696E+02  0.79683577976E+02  0.00000000000E+00 0.  1.
         11    1    3    3    0    0 -0.14760794745E+02 -0.29977317857E+02 -0.85296329487E+01  0.34485870812E+02  0.00000000000E+00 0. -1.
        -13    1    4    4    0    0 -0.37830079579E+02 -0.68512806323E+01  0.44712959854E+02  0.58968667496E+02  0.00000000000E+00 0. -1.
         13    1    4    4    0    0  0.45145809158E+02  0.33908607577E+01  0.38036622930E+01  0.45432475918E+02  0.00000000000E+00 0.  1.
         -2    1    1    2    0  502 -0.33627951074E+02 -0.59424252671E+01  0.21015090118E+02  0.40097200952E+02  0.00000000000E+00 0.  1.
<scales pt_clust_5="13000.00000" pt_clust_6="13000.00000" pt_clust_7="13000.00000" pt_clust_8="13000.00000" pt_clust_9="34.14896"></scales>
<clustering>
<clus scale="   34.149">  1  9  2 -1</clus>
<clus scale="   90.099">  5  6 -1 -1</clus>
<clus scale="   92.088">  7  8 -1 -1</clus>
<clus scale="   92.231">  2  5  1 -1</clus>
<clus scale="   34.149">  1  5  2 -1</clus>
</clustering>
</event>
<event>
 9    1  0.1601012E-005  0.9548766E+02  0.7546771E-02  0.1299149E+00
         21   -1    0    0  501  502  0.00000000000E+00  0.00000000000E+00  0.91146605698E+02  0.91146605698E+02  0.00000000000E+00 0. -1.
         -1   -1    0    0    0  501 -0.00000000000E+00 -0.00000000000E+00 -0.13031619628E+03  0.13031619628E+03  0.00000000000E+00 0.  1.
         23    2    1    2    0    0  0.13407751609E+02 -0.29716828441E+02 -0.33094266907E+02  0.10245760828E+03  0.91320716690E+02 0.  0.
         23    2    1    2    0    0  0.22030672617E+02  0.25445236790E+02 -0.82122005978E+01  0.83246353530E+02  0.75694811751E+02 0.  0.
        -11    1    3    3    0    0 -0.67732054949E+01 -0.41428808425E+02 -0.55848573929E+02  0.69866198480E+02  0.00000000000E+00 0.  1.
         11    1    3    3    0    0  0.20180957104E+02  0.11711979984E+02  0.22754307022E+02  0.32591409801E+02  0.00000000000E+00 0. -1.
        -13    1    4    4    0    0  0.35836778398E+02  0.45855959873E+02 -0.56465833143E+01  0.58471596908E+02  0.00000000000E+00 0. -1.
         13    1    4    4    0    0 -0.13806105781E+02 -0.20410723083E+02 -0.25656172834E+01  0.24774756622E+02  0.00000000000E+00 0.  1.
         -1    1    1    2    0  502 -0.35438424226E+02  0.42715916511E+01  0.21368769243E+01  0.35758840164E+02  0.00000000000E+00 0.  1.
<scales pt_clust_5="13000.00000" pt_clust_6="13000.00000" pt_clust_7="13000.00000" pt_clust_8="13000.00000" pt_clust_9="35.69494"></scales>
<clustering>
<clus scale="   35.695">  1  9  2 -1</clus>
<clus scale="   75.695">  7  8 -1 -1</clus>
<clus scale="   80.673">  1  7  2 -1</clus>
<clus scale="   91.321">  5  6 -1 -1</clus>
<clus scale="   35.695">  1  5  2 -1</clus>
</clustering>
</event>
<event>
 9    1  0.1601012E-005  0.1486956E+03  0.7546771E-02  0.1202665E+00
          1   -1    0    0  502    0 -0.00000000000E+00  0.00000000000E+00  0.42430256906E+03  0.42430256906E+03  0.00000000000E+00 0. -1.
         21   -1    0    0  501  502  0.00000000000E+00 -0.00000000000E+00 -0.87301474855E+02  0.87301474855E+02  0.00000000000E+00 0. -1.
         23    2    1    2    0    0 -0.77687837060E+02  0.91572675016E+02  0.26475226571E+03  0.30411528607E+03  0.89282642131E+02 0.  0.
         23    2    1    2    0    0  0.47887335315E+02 -0.10129446127E+03  0.90646025832E+02  0.17114264522E+03  0.92300261350E+02 0.  0.
        -13    1    4    4    0    0  0.86334816397E+01 -0.93249803794E+02  0.29777057080E+02  0.98268693088E+02  0.00000000000E+00 0.  1.
         13    1    4    4    0    0  0.39253853675E+02 -0.80446574792E+01  0.60868968752E+02  0.72873952131E+02  0.00000000000E+00 0. -1.
        -13    1    3    3    0    0 -0.37307776931E+01  0.44319521351E+02  0.30412259066E+02  0.53879905127E+02  0.00000000000E+00 0.  1.
         13    1    3    3    0    0 -0.73957059367E+02  0.47253153665E+02  0.23434000665E+03  0.25023538095E+03  0.00000000000E+00 0. -1.
          1    1    1    2  501    0  0.29800501745E+02  0.97217862569E+01 -0.18397197346E+02  0.36346112619E+02  0.00000000000E+00 0. -1.
<scales pt_clust_5="13000.00000" pt_clust_6="13000.00000" pt_clust_7="13000.00000" pt_clust_8="13000.00000" pt_clust_9="31.34618"></scales>
<clustering>
<clus scale="   31.346">  2  9  1 -1</clus>
<clus scale="   89.283">  7  8 -1 -1</clus>
<clus scale="   92.300">  5  6 -1 -1</clus>
<clus scale="  146.842">  1  7  2 -1</clus>
<clus scale="   31.346">  2  5  1 -1</clus>
</clustering>
</event>
<event>
 9    1  0.1601012E-005  0.2063003E+03  0.7546771E-02  0.1172097E+00
         21   -1    0    0  501  502  0.00000000000E+00  0.00000000000E+00  0.48288020348E+02  0.48288020348E+02  0.00000000000E+00 0. -1.
          1   -1    0    0  502    0 -0.00000000000E+00 -0.00000000000E+00 -0.13534792106E+04  0.13534792106E+04  0.00000000000E+00 0. -1.
         23    2    1    2    0    0 -0.52805914205E+02  0.37145697357E+02 -0.35555354809E+03  0.37170349793E+03  0.87045375550E+02 0.  0.
         23    2    1    2    0    0 -0.25251122763E+02  0.15389755988E+03 -0.56805739814E+03  0.59625051310E+03  0.92213820260E+02 0.  0.
        -11    1    4    4    0    0 -0.31843950408E+02  0.21450638584E+02 -0.60496531699E+02  0.71651918473E+02  0.00000000000E+00 0.  1.
         11    1    4    4    0    0  0.65928276447E+01  0.13244692130E+03 -0.50756086644E+03  0.52459859463E+03  0.00000000000E+00 0. -1.
        -13    1    3    3    0    0 -0.64187038540E+01 -0.25382430828E+02 -0.50647151486E+02  0.57014046581E+02  0.00000000000E+00 0.  1.
         13    1    3    3    0    0 -0.46387210351E+02  0.62528128185E+02 -0.30490639660E+03  0.31468945134E+03  0.00000000000E+00 0. -1.
          1    1    1    2  501    0  0.78057036968E+02 -0.19104325724E+03 -0.38158024404E+03  0.43381321994E+03  0.00000000000E+00 0. -1.
<scales pt_clust_5="13000.00000" pt_clust_6="13000.00000" pt_clust_7="13000.00000" pt_clust_8="13000.00000" pt_clust_9="184.54381"></scales>
<clustering>
<clus scale="   87.045">  7  8 -1 -1</clus>
<clus scale="   92.214">  5  6 -1 -1</clus>
<clus scale="  108.375">  2  7  1 -1</clus>
<clus scale="  184.544">  1  9  2 -1</clus>
<clus scale="  184.544">  1  5  2 -1</clus>
</clustering>
</event>
<event>
 9    1  0.1601012E-005  0.1940962E+03  0.7546771E-02  0.1154956E+00
          1   -1    0    0  502    0 -0.00000000000E+00  0.00000000000E+00  0.12792641016E+04  0.12792641016E+04  0.00000000000E+00 0. -1.
         21   -1    0    0  501  502  0.00000000000E+00 -0.00000000000E+00 -0.58641427257E+02  0.58641427257E+02  0.00000000000E+00 0. -1.
         23    2    1    2    0    0 -0.24645847987E+02  0.20556809849E+03  0.91396862421E+03  0.94241548785E+03  0.99712811410E+02 0.  0.
         23    2    1    2    0    0  0.22710648334E+02 -0.99782211100E+02  0.19961482454E+03  0.24498490891E+03  0.98484842569E+02 0.  0.
        -11    1    3    3    0    0 -0.68973794483E+01  0.12917968818E+03  0.74482619089E+03  0.75597686493E+03  0.00000000000E+00 0. -1.
         11    1    3    3    0    0 -0.17748468538E+02  0.76388410309E+02  0.16914243332E+03  0.18643862292E+03  0.00000000000E+00 0.  1.
        -13    1    4    4    0    0  0.43565734216E+02 -0.11016251738E+03  0.16099024299E+03  0.19987899283E+03  0.00000000000E+00 0.  1.
         13    1    4    4    0    0 -0.20855085882E+02  0.10380306285E+02  0.38624581549E+02  0.45105916082E+02  0.00000000000E+00 0. -1.
          1    1    1    2  501    0  0.19351996526E+01 -0.10578588739E+03  0.10703922555E+03  0.15050513206E+03  0.00000000000E+00 0. -1.
<scales pt_clust_5="13000.00000" pt_clust_6="13000.00000" pt_clust_7="13000.00000" pt_clust_8="13000.00000" pt_clust_9="105.80359"></scales>
<clustering>
<clus scale="   98.485">  7  8 -1 -1</clus>
<clus scale="   99.713">  5  6 -1 -1</clus>
<clus scale="  105.804">  2  9  1 -1</clus>
<clus scale="  193.468">  2  7  1 -1</clus>
<clus scale="  105.804">  2  5  1 -1</clus>
</clustering>
</event>
<event>
 9    1  0.1601012E-005  0.2303239E+03  0.7546771E-02  0.1126546E+00
          2   -1    0    0  502    0 -0.00000000000E+00  0.00000000000E+00  0.86108285067E+03  0.86108285067E+03  0.00000000000E+00 0. -1.
         21   -1    0    0  501  502  0.00000000000E+00 -0.00000000000E+00 -0.10436312399E+03  0.10436312399E+03  0.00000000000E+00 0. -1.
         23    2    1    2    0    0 -0.11083180364E+03  0.20189626525E+03  0.63639635221E+03  0.68295098579E+03  0.91520168578E+02 0.  0.
         23    2    1    2    0    0  0.89257972469E+02 -0.13973890887E+03  0.10151481787E+03  0.21406452093E+03  0.89579085565E+02 0.  0.
        -13    1    3    3    0    0 -0.26927221920E+02  0.86585192994E+02  0.36816668621E+03  0.37916853741E+03  0.00000000000E+00 0.  1.
         13    1    3    3    0    0 -0.83904581716E+02  0.11531107225E+03  0.26822966600E+03  0.30378244838E+03  0.00000000000E+00 0. -1.
        -13    1    4    4    0    0  0.17250617751E+02 -0.89091592492E+02  0.85310568188E+02  0.12455034609E+03  0.00000000000E+00 0. -1.
         13    1    4    4    0    0  0.72007354718E+02 -0.50647316375E+02  0.16204249686E+02  0.89514174840E+02  0.00000000000E+00 0.  1.
          2    1    1    2  501    0  0.21573831167E+02 -0.62157356381E+02  0.18808556588E+02  0.68430467955E+02  0.00000000000E+00 0. -1.
<scales pt_clust_5="13000.00000" pt_clust_6="13000.00000" pt_clust_7="13000.00000" pt_clust_8="13000.00000" pt_clust_9="65.79489"></scales>
<clustering>
<clus scale="   65.795">  2  9  1 -1</clus>
<clus scale="   89.579">  7  8 -1 -1</clus>
<clus scale="   91.520">  5  6 -1 -1</clus>
<clus scale="  229.560">  2  7  1 -1</clus>
<clus scale="   65.795">  2  5  1 -1</clus>
</clustering>
</event>
<event>
 9    1  0.1601012E-005  0.9892575E+02  0.7546771E-02  0.1282788E+00
          1   -1    0    0  502    0 -0.00000000000E+00  0.00000000000E+00  0.48119305890E+03  0.48119305890E+03  0.00000000000E+00 0. -1.
         21   -1    0    0  501  502  0.00000000000E+00 -0.00000000000E+00 -0.31639256653E+02  0.31639256653E+02  0.00000000000E+00 0.  1.
         23    2    1    2    0    0  0.42692064497E+02 -0.21459927145E+02  0.24950157994E+03  0.26991298906E+03  0.91207688446E+02 0.  0.
         23    2    1    2    0    0 -0.77985694295E+01  0.33623908996E+02  0.16778756942E+03  0.19386296830E+03  0.90767819660E+02 0.  0.
        -13    1    4    4    0    0  0.22045928660E+02  0.55727214824E+02  0.10632485930E+03  0.12205130539E+03  0.00000000000E+00 0.  1.
         13    1    4    4    0    0 -0.29844498089E+02 -0.22103305828E+02  0.61462710116E+02  0.71811662907E+02  0.00000000000E+00 0. -1.
        -13    1    3    3    0    0  0.61868814975E+02  0.76265198683E+01  0.11319718567E+03  0.12922661071E+03  0.00000000000E+00 0.  1.
         13    1    3    3    0    0 -0.19176750478E+02 -0.29086447014E+02  0.13630439427E+03  0.14068637836E+03  0.00000000000E+00 0. -1.
          1    1    1    2  501    0 -0.34893495067E+02 -0.12163981851E+02  0.32264652896E+02  0.49056358191E+02  0.00000000000E+00 0. -1.
<scales pt_clust_5="13000.00000" pt_clust_6="13000.00000" pt_clust_7="13000.00000" pt_clust_8="13000.00000" pt_clust_9="36.95292"></scales>
<clustering>
<clus scale="   36.953">  2  9  1 -1</clus>
<clus scale="   90.768">  5  6 -1 -1</clus>
<clus scale="   91.208">  7  8 -1 -1</clus>
<clus scale="   98.520">  2  5  1 -1</clus>
<clus scale="   36.953">  2  5  1 -1</clus>
</clustering>
</event>
<event>
 9    1  0.1601012E-005  0.1575754E+03  0.7546771E-02  0.1191526E+00
          1   -1    0    0  502    0 -0.00000000000E+00  0.00000000000E+00  0.29654489784E+03  0.29654489784E+03  0.00000000000E+00 0. -1.
         21   -1    0    0  501  502  0.00000000000E+00 -0.00000000000E+00 -0.19111249451E+03  0.19111249451E+03  0.00000000000E+00 0. -1.
         23    2    1    2    0    0 -0.10602041624E+03 -0.51323562242E+02  0.14232685245E+03  0.20596947935E+03  0.91060731367E+02 0.  0.
         23    2    1    2    0    0  0.13416677148E+03  0.68332966680E+02  0.54936490808E+02  0.18414582627E+03  0.90672765523E+02 0.  0.
        -11    1    3    3    0    0 -0.38518561864E+02 -0.17166982239E+01 -0.25248687178E+01  0.38639379174E+02  0.00000000000E+00 0.  1.
         11    1    3    3    0    0 -0.67501854371E+02 -0.49606864018E+02  0.14485172117E+03  0.16733010018E+03  0.00000000000E+00 0. -1.
        -13    1    4    4    0    0  0.78074014713E+02  0.81567313416E+02  0.14714408162E+02  0.11386523701E+03  0.00000000000E+00 0.  1.
         13    1    4    4    0    0  0.56092756767E+02 -0.13234346737E+02  0.40222082647E+02  0.70280589267E+02  0.00000000000E+00 0. -1.
          1    1    1    2  501    0 -0.28146355245E+02 -0.17009404437E+02 -0.91830939926E+02  0.97542086714E+02  0.00000000000E+00 0. -1.
<scales pt_clust_5="13000.00000" pt_clust_6="13000.00000" pt_clust_7="13000.00000" pt_clust_8="13000.00000" pt_clust_9="32.88673"></scales>
<clustering>
<clus scale="   32.887">  2  9  1 -1</clus>
<clus scale="   90.673">  7  8 -1 -1</clus>
<clus scale="   91.061">  5  6 -1 -1</clus>
<clus scale="  157.352">  2  7  1 -1</clus>
<clus scale="   32.887">  2  5  1 -1</clus>
</clustering>
</event>
<event>
 9    1  0.1601012E-005  0.1863674E+03  0.7546771E-02  0.1165359E+00
         -1   -1    0    0    0  501 -0.00000000000E+00  0.00000000000E+00  0.10074464753E+03  0.10074464753E+03  0.00000000000E+00 0.  1.
         21   -1    0    0  501  502  0.00000000000E+00 -0.00000000000E+00 -0.45928016279E+03  0.45928016279E+03  0.00000000000E+00 0. -1.
         23    2    1    2    0    0  0.14230524083E+03  0.65250113277E+02 -0.90888730482E+02  0.21588375509E+03  0.11762939909E+03 0.  0.
         23    2    1    2    0    0 -0.12702264728E+03 -0.34169763569E+02 -0.14425098027E+03  0.21597682320E+03  0.92386780371E+02 0.  0.
        -11    1    3    3    0    0  0.40011045365E+02  0.79715811452E+02 -0.22502032484E+02  0.91988237360E+02  0.00000000000E+00 0.  1.
         11    1    3    3    0    0  0.10229419546E+03 -0.14465698175E+02 -0.68386697999E+02  0.12389551773E+03  0.00000000000E+00 0. -1.
        -13    1    4    4    0    0 -0.75167657569E+02 -0.57450203504E+02 -0.12326237158E+03  0.15538441001E+03  0.00000000000E+00 0. -1.
         13    1    4    4    0    0 -0.51854989711E+02  0.23280439935E+02 -0.20988608689E+02  0.60592413190E+02  0.00000000000E+00 0.  1.
         -1    1    1    2    0  502 -0.15282593549E+02 -0.31080349708E+02 -0.12339580451E+03  0.12816423204E+03  0.00000000000E+00 0.  1.
<scales pt_clust_5="13000.00000" pt_clust_6="13000.00000" pt_clust_7="13000.00000" pt_clust_8="13000.00000" pt_clust_9="34.63446"></scales>
<clustering>
<clus scale="   34.634">  2  9  1 -1</clus>
<clus scale="   92.387">  7  8 -1 -1</clus>
<clus scale="  117.629">  5  6 -1 -1</clus>
<clus scale="  171.556">  2  7  1 -1</clus>
<clus scale="   34.634">  2  5  1 -1</clus>
</clustering>
</event>
<event>
 9    1  0.1601012E-005  0.1656886E+03  0.7546771E-02  0.1203388E+00
         21   -1    0    0  501  502  0.00000000000E+00  0.00000000000E+00  0.71324967565E+02  0.71324967565E+02  0.00000000000E+00 0. -1.
          1   -1    0    0  502    0 -0.00000000000E+00 -0.00000000000E+00 -0.76127230306E+03  0.76127230306E+03  0.00000000000E+00 0. -1.
         23    2    1    2    0    0 -0.46169894667E+02 -0.23275764241E+02 -0.29950994833E+03  0.31721415495E+03  0.90803031753E+02 0.  0.
         23    2    1    2    0    0 -0.10486831977E+03  0.30474080620E+02 -0.31752191381E+03  0.34751106847E+03  0.89541849868E+02 0.  0.
        -11    1    3    3    0    0 -0.41375326007E+00  0.32406123062E+02 -0.90578907893E+02  0.96202217016E+02  0.00000000000E+00 0.  1.
         11    1    3    3    0    0 -0.45756141407E+02 -0.55681887303E+02 -0.20893104044E+03  0.22101193793E+03  0.00000000000E+00 0. -1.
        -13    1    4    4    0    0 -0.12261986977E+02  0.19938224848E+02 -0.87667744585E+01  0.24994908864E+02  0.00000000000E+00 0.  1.
         13    1    4    4    0    0 -0.92606332791E+02  0.10535855772E+02 -0.30875513936E+03  0.32251615961E+03  0.00000000000E+00 0. -1.
          1    1    1    2  501    0  0.15103821444E+03 -0.71983163785E+01 -0.72915473349E+02  0.16787204720E+03  0.00000000000E+00 0. -1.
<scales pt_clust_5="13000.00000" pt_clust_6="13000.00000" pt_clust_7="13000.00000" pt_clust_8="13000.00000" pt_clust_9="139.40932"></scales>
<clustering>
<clus scale="   89.542">  7  8 -1 -1</clus>
<clus scale="   90.803">  5  6 -1 -1</clus>
<clus scale="  104.492">  2  5  1 -1</clus>
<clus scale="  139.409">  1  9  2 -1</clus>
<clus scale="  139.409">  1  5  2 -1</clus>
</clustering>
</event>
<event>
 9    1  0.1601012E-005  0.1011545E+03  0.7546771E-02  0.1278931E+00
         21   -1    0    0  501  502  0.00000000000E+00  0.00000000000E+00  0.25353515314E+02  0.25353515314E+02  0.00000000000E+00 0. -1.
          1   -1    0    0  502    0 -0.00000000000E+00 -0.00000000000E+00 -0.63624187239E+03  0.63624187239E+03  0.00000000000E+00 0. -1.
         23    2    1    2    0    0  0.29788366975E+01 -0.38241099478E+02 -0.36528809055E+03  0.37790658245E+03  0.88919856075E+02 0.  0.
         23    2    1    2    0    0  0.17712303081E+02  0.58354283734E+02 -0.16535569030E+03  0.19841363032E+03  0.91140091460E+02 0.  0.
        -11    1    3    3    0    0 -0.12546076868E+02  0.26527574477E+02 -0.13663694139E+03  0.13975253130E+03  0.00000000000E+00 0.  1.
         11    1    3    3    0    0  0.15524913566E+02 -0.64768673955E+02 -0.22865114916E+03  0.23815405115E+03  0.00000000000E+00 0. -1.
        -13    1    4    4    0    0 -0.31877889730E+02  0.12202699623E+02 -0.24193897955E+02  0.41838384648E+02  0.00000000000E+00 0.  1.
         13    1    4    4    0    0  0.49590192811E+02  0.46151584111E+02 -0.14116179234E+03  0.15657524567E+03  0.00000000000E+00 0. -1.
          1    1    1    2  501    0 -0.20691139779E+02 -0.20113184256E+02 -0.80244576227E+02  0.85275174935E+02  0.00000000000E+00 0. -1.
<scales pt_clust_5="13000.00000" pt_clust_6="13000.00000" pt_clust_7="13000.00000" pt_clust_8="13000.00000" pt_clust_9="28.85592"></scales>
<clustering>
<clus scale="   28.856">  1  9  2 -1</clus>
<clus scale="   88.920">  5  6 -1 -1</clus>
<clus scale="   91.140">  7  8 -1 -1</clus>
<clus scale="   99.159">  2  5  1 -1</clus>
<clus scale="   28.856">  1  5  2 -1</clus>
</clustering>
</event>
<event>
 9    1  0.1601012E-005  0.1075112E+03  0.7546771E-02  0.1265258E+00
         21   -1    0    0  501  502  0.00000000000E+00  0.00000000000E+00  0.85923853133E+02  0.85923853133E+02  0.00000000000E+00 0.  1.
         -3   -1    0    0    0  501 -0.00000000000E+00 -0.00000000000E+00 -0.22821353027E+03  0.22821353027E+03  0.00000000000E+00 0.  1.
         23    2    1    2    0    0  0.34295806122E+02 -0.63456063279E+02 -0.12656462071E+03  0.17207750782E+03  0.91592528074E+02 0.  0.
         23    2    1    2    0    0 -0.14106108732E+02  0.22256968321E+02 -0.95239499348E+01  0.95762542742E+02  0.91571851721E+02 0.  0.
        -11    1    4    4    0    0 -0.14473258333E+02 -0.34870575679E+02 -0.81111257520E+01  0.38616351665E+02  0.00000000000E+00 0. -1.
         11    1    4    4    0    0  0.36714960078E+00  0.57127544001E+02 -0.14128241828E+01  0.57146191077E+02  0.00000000000E+00 0.  1.
        -11    1    3    3    0    0  0.65376924629E+02 -0.49713251197E+02 -0.82283261268E+02  0.11625869732E+03  0.00000000000E+00 0.  1.
         11    1    3    3    0    0 -0.31081118508E+02 -0.13742812082E+02 -0.44281359442E+02  0.55818810500E+02  0.00000000000E+00 0. -1.
         -3    1    1    2    0  502 -0.20189697389E+02  0.41199094957E+02 -0.62011064915E+01  0.46297332836E+02  0.00000000000E+00 0.  1.
<scales pt_clust_5="13000.00000" pt_clust_6="13000.00000" pt_clust_7="13000.00000" pt_clust_8="13000.00000" pt_clust_9="45.88016"></scales>
<clustering>
<clus scale="   45.880">  1  9  2 -1</clus>
<clus scale="   91.572">  5  6 -1 -1</clus>
<clus scale="   91.593">  7  8 -1 -1</clus>
<clus scale="  107.494">  1  5  2 -1</clus>
<clus scale="   45.880">  1  5  2 -1</clus>
</clustering>
</event>
<event>
 9    1  0.1601012E-005  0.1092557E+03  0.7546771E-02  0.1261974E+00
         21   -1    0    0  501  502  0.00000000000E+00  0.00000000000E+00  0.33813404846E+02  0.33813404846E+02  0.00000000000E+00 0.  1.
          2   -1    0    0  502    0 -0.00000000000E+00 -0.00000000000E+00 -0.59156476758E+03  0.59156476758E+03  0.00000000000E+00 0. -1.
         23    2    1    2    0    0 -0.72009241256E+02 -0.17693057569E+02 -0.26903025195E+03  0.29368134808E+03  0.91504549818E+02 0.  0.
         23    2    1    2    0    0  0.25148482318E+02  0.49168234580E+02 -0.18814069911E+03  0.21635803334E+03  0.91454439345E+02 0.  0.
        -11    1    3    3    0    0 -0.30538919563E+02  0.12291496753E+02 -0.18062965728E+02  0.37549663532E+02  0.00000000000E+00 0.  1.
         11    1    3    3    0    0 -0.41470321693E+02 -0.29984554322E+02 -0.25096728622E+03  0.25613168455E+03  0.00000000000E+00 0. -1.
        -11    1    4    4    0    0  0.23645637369E+01  0.71442963743E+02 -0.15328571373E+03  0.16913366981E+03  0.00000000000E+00 0.  1.
         11    1    4    4    0    0  0.22783918581E+02 -0.22274729163E+02 -0.34854985384E+02  0.47224363535E+02  0.00000000000E+00 0. -1.
          2    1    1    2  501    0  0.46860758938E+02 -0.31475177011E+02 -0.10058041167E+03  0.11533879100E+03  0.00000000000E+00 0. -1.
<scales pt_clust_5="13000.00000" pt_clust_6="13000.00000" pt_clust_7="13000.00000" pt_clust_8="13000.00000" pt_clust_9="56.45013"></scales>
<clustering>
<clus scale="   56.450">  1  9  2 -1</clus>
<clus scale="   91.454">  7  8 -1 -1</clus>
<clus scale="   91.505">  5  6 -1 -1</clus>
<clus scale="  109.214">  1  7  2 -1</clus>
<clus scale="   56.450">  1  5  2 -1</clus>
</clustering>
</event>
<event>
 9    1  0.1601012E-005  0.1445551E+03  0.7546771E-02  0.1209227E+00
          3   -1    0    0  502    0 -0.00000000000E+00  0.00000000000E+00  0.40781219830E+02  0.40781219830E+02  0.00000000000E+00 0. -1.
         21   -1    0    0  501  502  0.00000000000E+00 -0.00000000000E+00 -0.64451565160E+03  0.64451565160E+03  0.00000000000E+00 0.  1.
         23    2    1    2    0    0 -0.22921434327E+02 -0.99778441093E+02 -0.19793468340E+03  0.23967780209E+03  0.88239336273E+02 0.  0.
         23    2    1    2    0    0  0.50800847424E+02  0.10563998187E+03 -0.36847482185E+03  0.39866409650E+03  0.97050685863E+02 0.  0.
        -11    1    4    4    0    0  0.38423904746E+02  0.32463473232E+02 -0.27372370109E+03  0.27830727279E+03  0.00000000000E+00 0. -1.
         11    1    4    4    0    0  0.12376942678E+02  0.73176508635E+02 -0.94751120763E+02  0.12035682370E+03  0.00000000000E+00 0.  1.
        -13    1    3    3    0    0 -0.47361058135E+02 -0.26113211772E+02 -0.10870956469E+03  0.12141968174E+03  0.00000000000E+00 0.  1.
         13    1    3    3    0    0  0.24439623808E+02 -0.73665229321E+02 -0.89225118701E+02  0.11825812036E+03  0.00000000000E+00 0. -1.
          3    1    1    2  501    0 -0.27879413097E+02 -0.58615407748E+01 -0.37324926518E+02  0.46954972841E+02  0.00000000000E+00 0. -1.
<scales pt_clust_5="13000.00000" pt_clust_6="13000.00000" pt_clust_7="13000.00000" pt_clust_8="13000.00000" pt_clust_9="28.48895"></scales>
<clustering>
<clus scale="   28.489">  2  9  1 -1</clus>
<clus scale="   88.239">  7  8 -1 -1</clus>
<clus scale="   97.051">  5  6 -1 -1</clus>
<clus scale="  138.793">  1  7  2 -1</clus>
<clus scale="   28.489">  2  5  1 -1</clus>
</clustering>
</event>
<event>
 9    1  0.1601012E-005  0.9488420E+02  0.7546771E-02  0.1291967E+00
          4   -1    0    0  502    0 -0.00000000000E+00  0.00000000000E+00  0.29719799419E+03  0.29719799419E+03  0.00000000000E+00 0. -1.
         21   -1    0    0  501  502  0.00000000000E+00 -0.00000000000E+00 -0.54517645934E+02  0.54517645934E+02  0.00000000000E+00 0. -1.
         23    2    1    2    0    0  0.13701638486E+02 -0.16892467962E+01  0.16059404941E+03  0.18551859247E+03  0.91848304246E+02 0.  0.
         23    2    1    2    0    0 -0.40637334276E+02  0.68860194369E+01  0.93250833176E+02  0.13657973886E+03  0.90881774739E+02 0.  0.
        -11    1    4    4    0    0 -0.95332738935E+01  0.47574482843E+02  0.47647448303E+02  0.68003632687E+02  0.00000000000E+00 0. -1.
         11    1    4    4    0    0 -0.31104060382E+02 -0.40688463406E+02  0.45603384873E+02  0.68576106178E+02  0.00000000000E+00 0.  1.
        -13    1    3    3    0    0  0.10527089598E+02  0.34849310449E+02  0.22864272606E+02  0.42989173241E+02  0.00000000000E+00 0.  1.
         13    1    3    3    0    0  0.31745488880E+01 -0.36538557245E+02  0.13772977680E+03  0.14252941922E+03  0.00000000000E+00 0. -1.
          4    1    1    2  501    0  0.26935695789E+02 -0.51967726406E+01 -0.11164534327E+02  0.29617308795E+02  0.00000000000E+00 0. -1.
<scales pt_clust_5="13000.00000" pt_clust_6="13000.00000" pt_clust_7="13000.00000" pt_clust_8="13000.00000" pt_clust_9="27.43243"></scales>
<clustering>
<clus scale="   27.432">  2  9  1 -1</clus>
<clus scale="   90.882">  5  6 -1 -1</clus>
<clus scale="   91.848">  7  8 -1 -1</clus>
<clus scale="   93.949">  2  5  1 -1</clus>
<clus scale="   27.432">  2  5  1 -1</clus>
</clustering>
</event>
<event>
 9    1  0.1601012E-005  0.9791486E+02  0.7546771E-02  0.1285345E+00
          1   -1    0    0  502    0 -0.00000000000E+00  0.00000000000E+00  0.51842233949E+03  0.51842233949E+03  0.00000000000E+00 0. -1.
         21   -1    0    0  501  502  0.00000000000E+00 -0.00000000000E+00 -0.29028467550E+02  0.29028467550E+02  0.00000000000E+00 0.  1.
         23    2    1    2    0    0 -0.13421414945E+02 -0.23376738973E+02  0.27212172040E+03  0.28866609522E+03  0.92473117788E+02 0.  0.
         23    2    1    2    0    0 -0.20721500055E+02  0.38345703328E+02  0.15772095931E+03  0.18852695043E+03  0.93630852318E+02 0.  0.
        -13    1    3    3    0    0 -0.39570294505E+02  0.16159420505E+02  0.18070128857E+03  0.18568761609E+03  0.00000000000E+00 0.  1.
         13    1    3    3    0    0  0.26148879559E+02 -0.39536159478E+02  0.91420431828E+02  0.10297847913E+03  0.00000000000E+00 0. -1.
        -13    1    4    4    0    0 -0.35316525054E+02  0.63772988353E+02  0.12401706834E+03  0.14385577578E+03  0.00000000000E+00 0.  1.
         13    1    4    4    0    0  0.14595024999E+02 -0.25427285025E+02  0.33703890963E+02  0.44671174649E+02  0.00000000000E+00 0. -1.
          1    1    1    2  501    0  0.34142915000E+02 -0.14968964355E+02  0.59551192237E+02  0.70257761389E+02  0.00000000000E+00 0. -1.
<scales pt_clust_5="13000.00000" pt_clust_6="13000.00000" pt_clust_7="13000.00000" pt_clust_8="13000.00000" pt_clust_9="37.28014"></scales>
<clustering>
<clus scale="   37.280">  2  9  1 -1</clus>
<clus scale="   92.473">  5  6 -1 -1</clus>
<clus scale="   93.631">  7  8 -1 -1</clus>
<clus scale="   96.808">  1  5  2 -1</clus>
<clus scale="   37.280">  2  5  1 -1</clus>
</clustering>
</event>
<event>
 9    1  0.1601012E-005  0.1075493E+03  0.7546771E-02  0.1267356E+00
         21   -1    0    0  501  502  0.00000000000E+00  0.00000000000E+00  0.38168747145E+02  0.38168747145E+02  0.00000000000E+00 0. -1.
          2   -1    0    0  502    0 -0.00000000000E+00 -0.00000000000E+00 -0.59426923352E+03  0.59426923352E+03  0.00000000000E+00 0. -1.
         23    2    1    2    0    0 -0.18796506386E+02  0.37327963201E+02 -0.36190199510E+03  0.37526950638E+03  0.90041450874E+02 0.  0.
         23    2    1    2    0    0  0.55426635142E+02 -0.54158813538E+02 -0.17161535549E+03  0.21096196091E+03  0.95120080671E+02 0.  0.
        -13    1    3    3    0    0  0.73167789485E+01 -0.24092429736E+02 -0.46459342834E+02  0.52843646367E+02  0.00000000000E+00 0.  1.
         13    1    3    3    0    0 -0.26113285334E+02  0.61420392937E+02 -0.31544265226E+03  0.32242586002E+03  0.00000000000E+00 0. -1.
        -13    1    4    4    0    0 -0.23158634921E+02  0.47651172325E+01 -0.43694895375E+02  0.49681712888E+02  0.00000000000E+00 0.  1.
         13    1    4    4    0    0  0.78585270063E+02 -0.58923930771E+02 -0.12792046011E+03  0.16128024803E+03  0.00000000000E+00 0. -1.
          2    1    1    2  501    0 -0.36630128757E+02  0.16830850337E+02 -0.22583135794E+02  0.46206513373E+02  0.00000000000E+00 0. -1.
<scales pt_clust_5="13000.00000" pt_clust_6="13000.00000" pt_clust_7="13000.00000" pt_clust_8="13000.00000" pt_clust_9="40.31183"></scales>
<clustering>
<clus scale="   40.312">  1  9  2 -1</clus>
<clus scale="   90.041">  5  6 -1 -1</clus>
<clus scale="   95.120">  7  8 -1 -1</clus>
<clus scale="  103.085">  2  5  1 -1</clus>
<clus scale="   40.312">  1  5  2 -1</clus>
</clustering>
</event>
<event>
 9    1  0.1601012E-005  0.9449022E+02  0.7546771E-02  0.1294830E+00
          1   -1    0    0  502    0 -0.00000000000E+00  0.00000000000E+00  0.75320969972E+02  0.75320969972E+02  0.00000000000E+00 0. -1.
         21   -1    0    0  501  502  0.00000000000E+00 -0.00000000000E+00 -0.19274218588E+03  0.19274218588E+03  0.00000000000E+00 0. -1.
         23    2    1    2    0    0  0.76913738907E+01  0.56119164380E+01 -0.49893238794E+00  0.93417644137E+02  0.92929847003E+02 0.  0.
         23    2    1    2    0    0 -0.21414772297E+02 -0.21315334836E+02 -0.53278613269E+02  0.10767204102E+03  0.88553496910E+02 0.  0.
        -11    1    4    4    0    0  0.22015597842E+02  0.51694629535E+01 -0.52092417442E+02  0.56789346277E+02  0.00000000000E+00 0.  1.
         11    1    4    4    0    0 -0.43430370138E+02 -0.26484797789E+02 -0.11861958263E+01  0.50882694748E+02  0.00000000000E+00 0. -1.
        -13    1    3    3    0    0 -0.39407002819E+02 -0.10510790288E+02  0.11170393020E+02  0.42286714981E+02  0.00000000000E+00 0.  1.
         13    1    3    3    0    0  0.47098376710E+02  0.16122706726E+02 -0.11669325408E+02  0.51130929156E+02  0.00000000000E+00 0. -1.
          1    1    1    2  501    0  0.13723398406E+02  0.15703418398E+02 -0.63643670254E+02  0.66973470693E+02  0.00000000000E+00 0. -1.
<scales pt_clust_5="13000.00000" pt_clust_6="13000.00000" pt_clust_7="13000.00000" pt_clust_8="13000.00000" pt_clust_9="20.85495"></scales>
<clustering>
<clus scale="   20.855">  2  9  1 -1</clus>
<clus scale="   88.553">  5  6 -1 -1</clus>
<clus scale="   90.190">  2  5  1 -1</clus>
<clus scale="   92.930">  7  8 -1 -1</clus>
<clus scale="   20.855">  2  5  1 -1</clus>
</clustering>
</event>
<event>
 9    1  0.1601012E-005  0.1063715E+03  0.7546771E-02  0.1268465E+00
         21   -1    0    0  501  502  0.00000000000E+00  0.00000000000E+00  0.74364302266E+02  0.74364302266E+02  0.00000000000E+00 0.  1.
          1   -1    0    0  502    0 -0.00000000000E+00 -0.00000000000E+00 -0.24074926066E+03  0.24074926066E+03  0.00000000000E+00 0. -1.
         23    2    1    2    0    0 -0.26976444913E+02  0.55340515192E+02 -0.13702741315E+03  0.17528701888E+03  0.90325665409E+02 0.  0.
         23    2    1    2    0    0  0.32129017710E+02 -0.20072753529E+02 -0.28599229192E+02  0.10417631176E+03  0.92734021845E+02 0.  0.
        -11    1    3    3    0    0 -0.49741098421E+02  0.23320986186E+02 -0.32995377596E+02  0.64083852971E+02  0.00000000000E+00 0.  1.
         11    1    3    3    0    0  0.22764653508E+02  0.32019529006E+02 -0.10403203555E+03  0.11120316591E+03  0.00000000000E+00 0. -1.
        -13    1    4    4    0    0  0.15729182001E+02 -0.50900305350E+02  0.76763873961E+01  0.53825413836E+02  0.00000000000E+00 0.  1.
         13    1    4    4    0    0  0.16399835710E+02  0.30827551821E+02 -0.36275616588E+02  0.50350897921E+02  0.00000000000E+00 0. -1.
          1    1    1    2  501    0 -0.51525727977E+01 -0.35267761663E+02 -0.75831605455E+00  0.35650232291E+02  0.00000000000E+00 0. -1.
<scales pt_clust_5="13000.00000" pt_clust_6="13000.00000" pt_clust_7="13000.00000" pt_clust_8="13000.00000" pt_clust_9="35.64217"></scales>
<clustering>
<clus scale="   35.642">  1  9  2 -1</clus>
<clus scale="   90.326">  5  6 -1 -1</clus>
<clus scale="   92.734">  7  8 -1 -1</clus>
<clus scale="  104.279">  2  5  1 -1</clus>
<clus scale="   35.642">  1  5  2 -1</clus>
</clustering>
</event>
<event>
 9    1  0.1601012E-005  0.1210964E+03  0.7546771E-02  0.1241310E+00
          2   -1    0    0  502    0 -0.00000000000E+00  0.00000000000E+00  0.38510392872E+03  0.38510392872E+03  0.00000000000E+00 0. -1.
         21   -1    0    0  501  502  0.00000000000E+00 -0.00000000000E+00 -0.16000273433E+03  0.16000273433E+03  0.00000000000E+00 0. -1.
         23    2    1    2    0    0  0.24208942151E+02  0.48339598071E+02  0.14555785681E+03  0.18038588090E+03  0.91810602485E+02 0.  0.
         23    2    1    2    0    0 -0.11458613562E+03 -0.70584153562E+02  0.16961800660E+03  0.23519741226E+03  0.91844702406E+02 0.  0.
        -11    1    4    4    0    0 -0.46896840202E+02 -0.54798310563E+02  0.27866001249E+02  0.77321940529E+02  0.00000000000E+00 0.  1.
         11    1    4    4    0    0 -0.67689295421E+02 -0.15785842999E+02  0.14175200535E+03  0.15787547173E+03  0.00000000000E+00 0. -1.
        -11    1    3    3    0    0 -0.32775478339E+02  0.42134067983E+01  0.32780742294E+02  0.46546340807E+02  0.00000000000E+00 0.  1.
         11    1    3    3    0    0  0.56984420490E+02  0.44126191273E+02  0.11277711452E+03  0.13383954010E+03  0.00000000000E+00 0. -1.
          2    1    1    2  501    0  0.90377193472E+02  0.22244555491E+02 -0.90074669017E+02  0.12952336989E+03  0.00000000000E+00 0. -1.
<scales pt_clust_5="13000.00000" pt_clust_6="13000.00000" pt_clust_7="13000.00000" pt_clust_8="13000.00000" pt_clust_9="93.07447"></scales>
<clustering>
<clus scale="   91.811">  7  8 -1 -1</clus>
<clus scale="   91.845">  5  6 -1 -1</clus>
<clus scale="   93.074">  2  9  1 -1</clus>
<clus scale="  121.071">  1  7  2 -1</clus>
<clus scale="   93.074">  2  5  1 -1</clus>
</clustering>
</event>
<event>
 9    1  0.1601012E-005  0.1171309E+03  0.7546771E-02  0.1248372E+00
          1   -1    0    0  502    0 -0.00000000000E+00  0.00000000000E+00  0.18516520762E+03  0.18516520762E+03  0.00000000000E+00 0. -1.
         21   -1    0    0  501  502  0.00000000000E+00 -0.00000000000E+00 -0.15801638702E+03  0.15801638702E+03  0.00000000000E+00 0.  1.
         23    2    1    2    0    0 -0.37657633863E+02 -0.60307900965E+02  0.86004205624E+02  0.14452289559E+03  0.91842275987E+02 0.  0.
         23    2    1    2    0    0  0.55969892523E+02  0.47020782870E+02 -0.97804223163E+02  0.15361540523E+03  0.93211822028E+02 0.  0.
        -13    1    4    4    0    0  0.24776787204E+02  0.49185277642E+02 -0.45527306541E+01  0.55261271043E+02  0.00000000000E+00 0. -1.
         13    1    4    4    0    0  0.31193105318E+02 -0.21644947724E+01 -0.93251492509E+02  0.98354134190E+02  0.00000000000E+00 0.  1.
        -13    1    3    3    0    0  0.10455557233E+02 -0.66737015296E+02  0.52233990292E+02  0.85390500815E+02  0.00000000000E+00 0.  1.
         13    1    3    3    0    0 -0.48113191096E+02  0.64291143311E+01  0.33770215332E+02  0.59132394777E+02  0.00000000000E+00 0. -1.
          1    1    1    2  501    0 -0.18312258659E+02  0.13287118095E+02  0.38948838148E+02  0.45043293813E+02  0.00000000000E+00 0. -1.
<scales pt_clust_5="13000.00000" pt_clust_6="13000.00000" pt_clust_7="13000.00000" pt_clust_8="13000.00000" pt_clust_9="22.62492"></scales>
<clustering>
<clus scale="   22.625">  2  9  1 -1</clus>
<clus scale="   91.842">  7  8 -1 -1</clus>
<clus scale="   93.212">  5  6 -1 -1</clus>
<clus scale="  116.044">  1  7  2 -1</clus>
<clus scale="   22.625">  2  5  1 -1</clus>
</clustering>
</event>
<event>
 9    1  0.1601012E-005  0.9619911E+02  0.7546771E-02  0.1289036E+00
         -1   -1    0    0    0  501 -0.00000000000E+00  0.00000000000E+00  0.36567727294E+03  0.36567727294E+03  0.00000000000E+00 0.  1.
         21   -1    0    0  501  502  0.00000000000E+00 -0.00000000000E+00 -0.55250255655E+02  0.55250255655E+02  0.00000000000E+00 0.  1.
         23    2    1    2    0    0 -0.25628531711E+02  0.70265130835E+01  0.22858049275E+03  0.24753779304E+03  0.91212519931E+02 0.  0.
         23    2    1    2    0    0  0.33840478120E+02  0.36094497862E+02  0.37985027053E+02  0.11133581860E+03  0.92221534833E+02 0.  0.
        -11    1    4    4    0    0  0.14607913910E+02 -0.29086169137E+02 -0.17815021961E+01  0.32597087814E+02  0.00000000000E+00 0.  1.
         11    1    4    4    0    0  0.19232564210E+02  0.65180667000E+02  0.39766529249E+02  0.78738730782E+02  0.00000000000E+00 0. -1.
        -13    1    3    3    0    0 -0.43053159166E+02  0.30788675958E+02  0.79063471398E+02  0.95144887361E+02  0.00000000000E+00 0.  1.
         13    1    3    3    0    0  0.17424627455E+02 -0.23762162874E+02  0.14951702136E+03  0.15239290568E+03  0.00000000000E+00 0. -1.
         -1    1    1    2    0  502 -0.82119464086E+01 -0.43121010946E+02  0.43861497477E+02  0.62053916957E+02  0.00000000000E+00 0.  1.
<scales pt_clust_5="13000.00000" pt_clust_6="13000.00000" pt_clust_7="13000.00000" pt_clust_8="13000.00000" pt_clust_9="43.89599"></scales>
<clustering>
<clus scale="   43.896">  2  9  1 -1</clus>
<clus scale="   91.213">  7  8 -1 -1</clus>
<clus scale="   92.222">  5  6 -1 -1</clus>
<clus scale="   95.232">  1  7  2 -1</clus>
<clus scale="   43.896">  2  5  1 -1</clus>
</clustering>
</event>
<event>
 9    1  0.1601012E-005  0.1538998E+03  0.7546771E-02  0.1195785E+00
         21   -1    0    0  501  502  0.00000000000E+00  0.00000000000E+00  0.27714095447E+03  0.27714095447E+03  0.00000000000E+00 0.  1.
          1   -1    0    0  502    0 -0.00000000000E+00 -0.00000000000E+00 -0.13602517772E+03  0.13602517772E+03  0.00000000000E+00 0. -1.
         23    2    1    2    0    0  0.24867563817E+02  0.11541532527E+03  0.25099913116E+02  0.15100191830E+03  0.90733018545E+02 0.  0.
         23    2    1    2    0    0 -0.90025517099E+01 -0.13071189678E+03  0.16571953283E+02  0.16030757437E+03  0.90869372562E+02 0.  0.
        -13    1    3    3    0    0 -0.29147647257E+02  0.10658886504E+02  0.48197250997E+01  0.31407434664E+02  0.00000000000E+00 0. -1.
         13    1    3    3    0    0  0.54015211074E+02  0.10475643876E+03  0.20280188016E+02  0.11959448363E+03  0.00000000000E+00 0.  1.
        -13    1    4    4    0    0 -0.26229511169E+02 -0.89791054721E+02 -0.27749295201E+02  0.97572763353E+02  0.00000000000E+00 0. -1.
         13    1    4    4    0    0  0.17226959459E+02 -0.40920842056E+02  0.44321248484E+02  0.62734811022E+02  0.00000000000E+00 0.  1.
          1    1    1    2  501    0 -0.15865012107E+02  0.15296571511E+02  0.99443910352E+02  0.10185663952E+03  0.00000000000E+00 0. -1.
<scales pt_clust_5="13000.00000" pt_clust_6="13000.00000" pt_clust_7="13000.00000" pt_clust_8="13000.00000" pt_clust_9="22.03823"></scales>
<clustering>
<clus scale="   22.038">  1  9  2 -1</clus>
<clus scale="   90.733">  5  6 -1 -1</clus>
<clus scale="   90.869">  7  8 -1 -1</clus>
<clus scale="  153.819">  2  5  1 -1</clus>
<clus scale="   22.038">  1  5  2 -1</clus>
</clustering>
</event>
<event>
 9    1  0.1601012E-005  0.1588613E+03  0.7546771E-02  0.1189997E+00
         21   -1    0    0  501  502  0.00000000000E+00  0.00000000000E+00  0.31067711485E+03  0.31067711485E+03  0.00000000000E+00 0. -1.
         -1   -1    0    0    0  501 -0.00000000000E+00 -0.00000000000E+00 -0.95359262154E+02  0.95359262154E+02  0.00000000000E+00 0.  1.
         23    2    1    2    0    0  0.13815696189E+03 -0.41212290112E+01  0.64150467849E+02  0.17779450592E+03  0.91603892738E+02 0.  0.
         23    2    1    2    0    0 -0.11828828169E+03  0.92847787272E+01  0.12625082107E+03  0.19595779066E+03  0.91552505139E+02 0.  0.
        -11    1    3    3    0    0  0.10451729521E+03  0.26322997965E+02  0.74796479419E+02  0.13119176252E+03  0.00000000000E+00 0.  1.
         11    1    3    3    0    0  0.33639666678E+02 -0.30444226976E+02 -0.10646011570E+02  0.46602743404E+02  0.00000000000E+00 0. -1.
        -13    1    4    4    0    0 -0.58676519012E+02  0.48198292575E+02  0.83742793716E+02  0.11304364109E+03  0.00000000000E+00 0. -1.
         13    1    4    4    0    0 -0.59611762678E+02 -0.38913513848E+02  0.42508027352E+02  0.82914149570E+02  0.00000000000E+00 0.  1.
         -1    1    1    2    0  502 -0.19868680197E+02 -0.51635497160E+01  0.24916563780E+02  0.32284080428E+02  0.00000000000E+00 0.  1.
<scales pt_clust_5="13000.00000" pt_clust_6="13000.00000" pt_clust_7="13000.00000" pt_clust_8="13000.00000" pt_clust_9="20.52868"></scales>
<clustering>
<clus scale="   20.529">  1  9  2 -1</clus>
<clus scale="   91.553">  7  8 -1 -1</clus>
<clus scale="   91.604">  5  6 -1 -1</clus>
<clus scale="  158.832">  1  7  2 -1</clus>
<clus scale="   20.529">  1  5  2 -1</clus>
</clustering>
</event>
<event>
 9    1  0.1601012E-005  0.8932641E+02  0.7546771E-02  0.1304767E+00
         21   -1    0    0  501  502  0.00000000000E+00  0.00000000000E+00  0.17648105711E+03  0.17648105711E+03  0.00000000000E+00 0.  1.
         -3   -1    0    0    0  501 -0.00000000000E+00 -0.00000000000E+00 -0.30573544528E+03  0.30573544528E+03  0.00000000000E+00 0.  1.
         23    2    1    2    0    0  0.12302508030E+02  0.15383442139E+02 -0.21724306919E+03  0.23521689310E+03  0.88002464141E+02 0.  0.
         23    2    1    2    0    0 -0.11776378764E+02  0.75593987056E+01 -0.53574882033E+02  0.10358798793E+03  0.87546419991E+02 0.  0.
        -13    1    3    3    0    0  0.34071436685E+02 -0.26224347100E+02 -0.95537859037E+02  0.10476670124E+03  0.00000000000E+00 0. -1.
         13    1    3    3    0    0 -0.21768928655E+02  0.41607789239E+02 -0.12170521015E+03  0.13045019186E+03  0.00000000000E+00 0.  1.
        -13    1    4    4    0    0 -0.62008578875E+01  0.40864902371E+02 -0.56148385970E+02  0.69721102483E+02  0.00000000000E+00 0.  1.
         13    1    4    4    0    0 -0.55755208760E+01 -0.33305503666E+02  0.25735039374E+01  0.33866885449E+02  0.00000000000E+00 0. -1.
         -3    1    1    2    0  502 -0.52612926655E+00 -0.22942840844E+02  0.14156356305E+03  0.14341162136E+03  0.00000000000E+00 0.  1.
<scales pt_clust_5="13000.00000" pt_clust_6="13000.00000" pt_clust_7="13000.00000" pt_clust_8="13000.00000" pt_clust_9="22.94887"></scales>
<clustering>
<clus scale="   22.949">  1  9  2 -1</clus>
<clus scale="   87.546">  7  8 -1 -1</clus>
<clus scale="   88.002">  5  6 -1 -1</clus>
<clus scale="   88.877">  1  7  2 -1</clus>
<clus scale="   22.949">  1  5  2 -1</clus>
</clustering>
</event>
<event>
 9    1  0.1601012E-005  0.1269137E+03  0.7546771E-02  0.1241324E+00
         21   -1    0    0  501  502  0.00000000000E+00  0.00000000000E+00  0.25026122486E+03  0.25026122486E+03  0.00000000000E+00 0. -1.
         -3   -1    0    0    0  501 -0.00000000000E+00 -0.00000000000E+00 -0.10459905711E+03  0.10459905711E+03  0.00000000000E+00 0.  1.
         23    2    1    2    0    0 -0.64309388013E+02 -0.26924681201E+02 -0.34481191712E+02  0.13389489066E+03  0.10898739982E+03 0.  0.
         23    2    1    2    0    0  0.54370213285E+02  0.31072091531E+01  0.12013206053E+03  0.15563993556E+03  0.82621442328E+02 0.  0.
        -11    1    3    3    0    0 -0.30554078192E+02 -0.68952802965E+02 -0.18191460802E+02  0.77582020965E+02  0.00000000000E+00 0.  1.
         11    1    3    3    0    0 -0.33755309820E+02  0.42028121764E+02 -0.16289730911E+02  0.56312869695E+02  0.00000000000E+00 0. -1.
        -13    1    4    4    0    0  0.33834760738E+02  0.23358097043E+02  0.11994760852E+03  0.12679834590E+03  0.00000000000E+00 0. -1.
         13    1    4    4    0    0  0.20535452548E+02 -0.20250887890E+02  0.18445200528E+00  0.28841589662E+02  0.00000000000E+00 0.  1.
         -3    1    1    2    0  502  0.99391747271E+01  0.23817472048E+02  0.60011298940E+02  0.65325455754E+02  0.00000000000E+00 0.  1.
<scales pt_clust_5="13000.00000" pt_clust_6="13000.00000" pt_clust_7="13000.00000" pt_clust_8="13000.00000" pt_clust_9="25.80812"></scales>
<clustering>
<clus scale="   25.808">  1  9  2 -1</clus>
<clus scale="   82.621">  7  8 -1 -1</clus>
<clus scale="  105.143">  1  7  2 -1</clus>
<clus scale="  108.987">  5  6 -1 -1</clus>
<clus scale="   25.808">  1  5  2 -1</clus>
</clustering>
</event>
<event>
 9    1  0.1601012E-005  0.9448823E+02  0.7546771E-02  0.1292496E+00
          1   -1    0    0  502    0 -0.00000000000E+00  0.00000000000E+00  0.54345234298E+03  0.54345234298E+03  0.00000000000E+00 0. -1.
         21   -1    0    0  501  502  0.00000000000E+00 -0.00000000000E+00 -0.23649316814E+02  0.23649316814E+02  0.00000000000E+00 0.  1.
         23    2    1    2    0    0 -0.20317972928E+02 -0.21085720108E+02  0.27683635702E+03  0.29287947091E+03  0.91008726462E+02 0.  0.
         23    2    1    2    0    0 -0.91638782098E+01  0.25736671585E+02  0.20376145128E+03  0.22494886949E+03  0.91306691608E+02 0.  0.
        -13    1    4    4    0    0  0.31089259929E+02  0.33316270048E+02  0.59262811259E+02  0.74756917614E+02  0.00000000000E+00 0. -1.
         13    1    4    4    0    0 -0.40253138138E+02 -0.75795984622E+01  0.14449864002E+03  0.15019195188E+03  0.00000000000E+00 0.  1.
        -13    1    3    3    0    0 -0.18859202621E+01  0.34440496644E+02  0.71730119316E+02  0.79592176257E+02  0.00000000000E+00 0. -1.
         13    1    3    3    0    0 -0.18432052666E+02 -0.55526216752E+02  0.20510623771E+03  0.21328729465E+03  0.00000000000E+00 0.  1.
          1    1    1    2  501    0  0.29481851138E+02 -0.46509514779E+01  0.39205217868E+02  0.49273319396E+02  0.00000000000E+00 0. -1.
<scales pt_clust_5="13000.00000" pt_clust_6="13000.00000" pt_clust_7="13000.00000" pt_clust_8="13000.00000" pt_clust_9="29.84646"></scales>
<clustering>
<clus scale="   29.846">  2  9  1 -1</clus>
<clus scale="   91.009">  7  8 -1 -1</clus>
<clus scale="   91.307">  5  6 -1 -1</clus>
<clus scale="   94.200">  1  7  2 -1</clus>
<clus scale="   29.846">  2  5  1 -1</clus>
</clustering>
</event>
<event>
 9    1  0.1601012E-005  0.9899417E+02  0.7546771E-02  0.1283353E+00
         -3   -1    0    0    0  501 -0.00000000000E+00  0.00000000000E+00  0.46761160372E+02  0.46761160372E+02  0.00000000000E+00 0.  1.
         21   -1    0    0  501  502  0.00000000000E+00 -0.00000000000E+00 -0.27184907871E+03  0.27184907871E+03  0.00000000000E+00 0. -1.
         23    2    1    2    0    0 -0.13495766909E+02 -0.18673093843E+02 -0.84623446252E+02  0.12833866398E+03  0.93695596789E+02 0.  0.
         23    2    1    2    0    0  0.70442886943E+01  0.43844968771E+02 -0.10632935883E+03  0.14737109940E+03  0.91871133115E+02 0.  0.
        -11    1    3    3    0    0  0.19643581388E+02 -0.37399099461E+02 -0.83024212233E+01  0.43052213978E+02  0.00000000000E+00 0.  1.
         11    1    3    3    0    0 -0.33139348297E+02  0.18726005618E+02 -0.76321025029E+02  0.85286449999E+02  0.00000000000E+00 0. -1.
        -13    1    4    4    0    0  0.49351359167E+02  0.25500023253E+02 -0.64368416091E+02  0.85024119093E+02  0.00000000000E+00 0.  1.
         13    1    4    4    0    0 -0.42307070472E+02  0.18344945519E+02 -0.41960942735E+02  0.62346980306E+02  0.00000000000E+00 0. -1.
         -3    1    1    2    0  502  0.64514782150E+01 -0.25171874929E+02 -0.34135113258E+02  0.42900475705E+02  0.00000000000E+00 0.  1.
<scales pt_clust_5="13000.00000" pt_clust_6="13000.00000" pt_clust_7="13000.00000" pt_clust_8="13000.00000" pt_clust_9="25.98547"></scales>
<clustering>
<clus scale="   25.985">  2  9  1 -1</clus>
<clus scale="   91.871">  7  8 -1 -1</clus>
<clus scale="   93.696">  5  6 -1 -1</clus>
<clus scale="   97.269">  2  7  1 -1</clus>
<clus scale="   25.985">  2  5  1 -1</clus>
</clustering>
</event>
<event>
 9    1  0.1601012E-005  0.1067582E+03  0.7546771E-02  0.1267032E+00
         21   -1    0    0  501  502  0.00000000000E+00  0.00000000000E+00  0.50403742981E+03  0.50403742981E+03  0.00000000000E+00 0.  1.
          1   -1    0    0  502    0 -0.00000000000E+00 -0.00000000000E+00 -0.57943690054E+02  0.57943690054E+02  0.00000000000E+00 0. -1.
         23    2    1    2    0    0  0.22681809124E+02  0.63450465678E+02  0.74365826637E+02  0.13659352778E+03  0.92666550593E+02 0.  0.
         23    2    1    2    0    0 -0.54824394223E+02 -0.69040107493E+01  0.10215490507E+03  0.14807864161E+03  0.91860110531E+02 0.  0.
        -11    1    3    3    0    0  0.58319358787E+01 -0.21629909642E+02  0.34504938197E+02  0.41139460706E+02  0.00000000000E+00 0. -1.
         11    1    3    3    0    0  0.16849873246E+02  0.85080375319E+02  0.39860888439E+02  0.95454067069E+02  0.00000000000E+00 0.  1.
        -13    1    4    4    0    0 -0.26079498546E+02 -0.11703110622E+02  0.11332046663E+03  0.11687014674E+03  0.00000000000E+00 0.  1.
         13    1    4    4    0    0 -0.28744895678E+02  0.47990998731E+01 -0.11165561563E+02  0.31208494871E+02  0.00000000000E+00 0. -1.
          1    1    1    2  501    0  0.32142585099E+02 -0.56546454928E+02  0.26957300805E+03  0.27730895047E+03  0.00000000000E+00 0. -1.
<scales pt_clust_5="13000.00000" pt_clust_6="13000.00000" pt_clust_7="13000.00000" pt_clust_8="13000.00000" pt_clust_9="65.04343"></scales>
<clustering>
<clus scale="   65.043">  1  9  2 -1</clus>
<clus scale="   91.860">  7  8 -1 -1</clus>
<clus scale="   92.667">  5  6 -1 -1</clus>
<clus scale="  106.059">  1  7  2 -1</clus>
<clus scale="   65.043">  1  5  2 -1</clus>
</clustering>
</event>
<event>
 9    1  0.1601012E-005  0.1436792E+03  0.7546771E-02  0.1208479E+00
          3   -1    0    0  502    0 -0.00000000000E+00  0.00000000000E+00  0.84120193655E+02  0.84120193655E+02  0.00000000000E+00 0. -1.
         21   -1    0    0  501  502  0.00000000000E+00 -0.00000000000E+00 -0.39049241776E+03  0.39049241776E+03  0.00000000000E+00 0. -1.
         23    2    1    2    0    0  0.20137394106E+02  0.10126674345E+03 -0.50630078462E+02  0.14655709194E+03  0.90857626990E+02 0.  0.
         23    2    1    2    0    0 -0.14649331354E+02 -0.12470787907E+03 -0.13676902100E+03  0.20667096503E+03  0.90777005175E+02 0.  0.
        -11    1    4    4    0    0 -0.34701981370E+02 -0.11691045278E+03 -0.13914683725E+03  0.18502465727E+03  0.00000000000E+00 0. -1.
         11    1    4    4    0    0  0.20052650016E+02 -0.77974262867E+01  0.23778162505E+01  0.21646307757E+02  0.00000000000E+00 0.  1.
        -11    1    3    3    0    0  0.54801863315E+02  0.55292006626E+02 -0.41625075316E+02  0.88278520120E+02  0.00000000000E+00 0. -1.
         11    1    3    3    0    0 -0.34664469209E+02  0.45974736822E+02 -0.90050031461E+01  0.58278571817E+02  0.00000000000E+00 0.  1.
          3    1    1    2  501    0 -0.54880627520E+01  0.23441135622E+02 -0.11897312464E+03  0.12138455445E+03  0.00000000000E+00 0. -1.
<scales pt_clust_5="13000.00000" pt_clust_6="13000.00000" pt_clust_7="13000.00000" pt_clust_8="13000.00000" pt_clust_9="24.07500"></scales>
<clustering>
<clus scale="   24.075">  2  9  1 -1</clus>
<clus scale="   90.777">  5  6 -1 -1</clus>
<clus scale="   90.858">  7  8 -1 -1</clus>
<clus scale="  143.628">  2  5  1 -1</clus>
<clus scale="   24.075">  2  5  1 -1</clus>
</clustering>
</event>
<event>
 9    1  0.1601012E-005  0.1139961E+03  0.7546771E-02  0.1254657E+00
          1   -1    0    0  502    0 -0.00000000000E+00  0.00000000000E+00  0.11572748030E+04  0.11572748030E+04  0.00000000000E+00 0. -1.
         21   -1    0    0  501  502  0.00000000000E+00 -0.00000000000E+00 -0.19150676355E+02  0.19150676355E+02  0.00000000000E+00 0. -1.
         23    2    1    2    0    0 -0.26485968139E+02  0.23175850988E+02  0.37322733808E+03  0.38659744407E+03  0.94447399596E+02 0.  0.
         23    2    1    2    0    0  0.81994957210E+02 -0.48323759888E+02  0.59364610851E+03  0.60805768399E+03  0.90885016027E+02 0.  0.
        -11    1    3    3    0    0 -0.47356281394E+02 -0.19879961479E+02  0.22713238327E+03  0.23286680696E+03  0.00000000000E+00 0.  1.
         11    1    3    3    0    0  0.20870313256E+02  0.43055812467E+02  0.14609495482E+03  0.15373063711E+03  0.00000000000E+00 0. -1.
        -11    1    4    4    0    0  0.29114715555E+02  0.26386968391E+02  0.20993462759E+03  0.21358016440E+03  0.00000000000E+00 0.  1.
         11    1    4    4    0    0  0.52880241655E+02 -0.74710728280E+02  0.38371148091E+03  0.39447751959E+03  0.00000000000E+00 0. -1.
          1    1    1    2  501    0 -0.55508989072E+02  0.25147908900E+02  0.17125068001E+03  0.18177035125E+03  0.00000000000E+00 0. -1.
<scales pt_clust_5="13000.00000" pt_clust_6="13000.00000" pt_clust_7="13000.00000" pt_clust_8="13000.00000" pt_clust_9="60.93985"></scales>
<clustering>
<clus scale="   60.940">  2  9  1 -1</clus>
<clus scale="   90.885">  7  8 -1 -1</clus>
<clus scale="   94.447">  5  6 -1 -1</clus>
<clus scale="  111.063">  2  7  1 -1</clus>
<clus scale="   60.940">  2  5  1 -1</clus>
</clustering>
</event>
<event>
 9    1  0.1601012E-005  0.1006687E+03  0.7546771E-02  0.1280436E+00
         -4   -1    0    0    0  501 -0.00000000000E+00  0.00000000000E+00  0.69739139924E+03  0.69739139924E+03  0.00000000000E+00 0.  1.
         21   -1    0    0  501  502  0.00000000000E+00 -0.00000000000E+00 -0.31437964382E+02  0.31437964382E+02  0.00000000000E+00 0.  1.
         23    2    1    2    0    0  0.33377874931E+00  0.15024831171E+02  0.27281545740E+03  0.28937138656E+03  0.95297789091E+02 0.  0.
         23    2    1    2    0    0  0.75325158727E+02 -0.14626614211E+02  0.25949240414E+03  0.28588202626E+03  0.92219345860E+02 0.  0.
        -11    1    4    4    0    0  0.91840221201E+02  0.49444705344E+01  0.17646096724E+03  0.19899132388E+03  0.00000000000E+00 0.  1.
         11    1    4    4    0    0 -0.16515062475E+02 -0.19571084746E+02  0.83031436897E+02  0.86890702379E+02  0.00000000000E+00 0. -1.
        -13    1    3    3    0    0 -0.46492948656E+02  0.14620195956E+02  0.11926478369E+03  0.12883878699E+03  0.00000000000E+00 0. -1.
         13    1    3    3    0    0  0.46826727405E+02  0.40463521552E+00  0.15355067371E+03  0.16053259957E+03  0.00000000000E+00 0.  1.
         -4    1    1    2    0  502 -0.75658937476E+02 -0.39821696000E+00  0.13364557332E+03  0.15357595080E+03  0.00000000000E+00 0.  1.
<scales pt_clust_5="13000.00000" pt_clust_6="13000.00000" pt_clust_7="13000.00000" pt_clust_8="13000.00000" pt_clust_9="75.65999"></scales>
<clustering>
<clus scale="   75.660">  2  9  1 -1</clus>
<clus scale="   92.219">  5  6 -1 -1</clus>
<clus scale="   95.298">  7  8 -1 -1</clus>
<clus scale="   97.760">  2  5  1 -1</clus>
<clus scale="   75.660">  2  5  1 -1</clus>
</clustering>
</event>
<event>
 9    1  0.1601012E-005  0.2092244E+03  0.7546771E-02  0.1142218E+00
         -2   -1    0    0    0  501 -0.00000000000E+00  0.00000000000E+00  0.23975797247E+03  0.23975797247E+03  0.00000000000E+00 0.  1.
         21   -1    0    0  501  502  0.00000000000E+00 -0.00000000000E+00 -0.26468415095E+03  0.26468415095E+03  0.00000000000E+00 0.  1.
         23    2    1    2    0    0 -0.20110718968E+01  0.18946070749E+03  0.82300192616E+02  0.22602212425E+03  0.91723905564E+02 0.  0.
         23    2    1    2    0    0  0.46569137011E+02 -0.18289678621E+03 -0.73564234125E+02  0.22219148599E+03  0.91309588648E+02 0.  0.
        -11    1    4    4    0    0 -0.24386011974E+02 -0.33620599106E+02 -0.30090656088E+02  0.51288106302E+02  0.00000000000E+00 0. -1.
         11    1    4    4    0    0  0.70955148985E+02 -0.14927618710E+03 -0.43473578037E+02  0.17090337969E+03  0.00000000000E+00 0.  1.
        -13    1    3    3    0    0 -0.35877838421E+02  0.96904535926E+02  0.74036870335E+02  0.12711871043E+03  0.00000000000E+00 0.  1.
         13    1    3    3    0    0  0.33866766524E+02  0.92556171563E+02  0.82633222809E+01  0.98903413815E+02  0.00000000000E+00 0. -1.
         -2    1    1    2    0  502 -0.44558065114E+02 -0.65639212812E+01 -0.33662136974E+02  0.56228513185E+02  0.00000000000E+00 0.  1.
<scales pt_clust_5="13000.00000" pt_clust_6="13000.00000" pt_clust_7="13000.00000" pt_clust_8="13000.00000" pt_clust_9="45.03894"></scales>
<clustering>
<clus scale="   45.039">  2  9  1 -1</clus>
<clus scale="   91.310">  5  6 -1 -1</clus>
<clus scale="   91.724">  7  8 -1 -1</clus>
<clus scale="  209.043">  2  5  1 -1</clus>
<clus scale="   45.039">  2  5  1 -1</clus>
</clustering>
</event>
<event>
 9    1  0.1601012E-005  0.1040784E+03  0.7546771E-02  0.1272589E+00
         -4   -1    0    0    0  501 -0.00000000000E+00  0.00000000000E+00  0.82181804144E+02  0.82181804144E+02  0.00000000000E+00 0.  1.
         21   -1    0    0  501  502  0.00000000000E+00 -0.00000000000E+00 -0.17539789532E+03  0.17539789532E+03  0.00000000000E+00 0. -1.
         23    2    1    2    0    0  0.28468954384E+02 -0.19806123704E+02 -0.35828576261E+02  0.10350323381E+03  0.90699882206E+02 0.  0.
         23    2    1    2    0    0 -0.56908330265E+02  0.30378517841E+02 -0.42136582695E+02  0.12011818902E+03  0.92149201480E+02 0.  0.
        -11    1    4    4    0    0  0.14365818879E+02  0.17707030123E+02  0.15511016942E+02  0.27577297083E+02  0.00000000000E+00 0.  1.
         11    1    4    4    0    0 -0.71274149144E+02  0.12671487717E+02 -0.57647599637E+02  0.92540891940E+02  0.00000000000E+00 0. -1.
        -13    1    3    3    0    0  0.36953838318E+02 -0.38035538482E+02 -0.54514826152E+02  0.76053629922E+02  0.00000000000E+00 0.  1.
         13    1    3    3    0    0 -0.84848839341E+01  0.18229414778E+02  0.18686249891E+02  0.27449603886E+02  0.00000000000E+00 0. -1.
         -4    1    1    2    0  502  0.28439375881E+02 -0.10572394137E+02 -0.15250932222E+02  0.33958276634E+02  0.00000000000E+00 0.  1.
<scales pt_clust_5="13000.00000" pt_clust_6="13000.00000" pt_clust_7="13000.00000" pt_clust_8="13000.00000" pt_clust_9="30.34096"></scales>
<clustering>
<clus scale="   30.341">  2  9  1 -1</clus>
<clus scale="   90.700">  7  8 -1 -1</clus>
<clus scale="   92.149">  5  6 -1 -1</clus>
<clus scale="  102.797">  1  7  2 -1</clus>
<clus scale="   30.341">  2  5  1 -1</clus>
</clustering>
</event>
<event>
 9    1  0.1601012E-005  0.9666867E+02  0.7546771E-02  0.1289967E+00
          3   -1    0    0  502    0 -0.00000000000E+00  0.00000000000E+00  0.81406916290E+02  0.81406916290E+02  0.00000000000E+00 0. -1.
         21   -1    0    0  501  502  0.00000000000E+00 -0.00000000000E+00 -0.20684475422E+03  0.20684475422E+03  0.00000000000E+00 0.  1.
         23    2    1    2    0    0  0.38483051330E+01 -0.18662896593E+01  0.20492539813E+02  0.94387388550E+02  0.92036636400E+02 0.  0.
         23    2    1    2    0    0  0.16771469399E+02  0.19876086472E+02 -0.10872839099E+03  0.14767428627E+03  0.96485702674E+02 0.  0.
        -13    1    3    3    0    0 -0.19541548169E+02  0.14024973727E+02  0.48781160251E+02  0.54389094388E+02  0.00000000000E+00 0. -1.
         13    1    3    3    0    0  0.23389853302E+02 -0.15891263387E+02 -0.28288620438E+02  0.39998294161E+02  0.00000000000E+00 0.  1.
        -13    1    4    4    0    0  0.14492726671E+02 -0.18462672680E+02 -0.10666020666E+03  0.10921222044E+03  0.00000000000E+00 0. -1.
         13    1    4    4    0    0  0.22787427272E+01  0.38338759152E+02 -0.20681843276E+01  0.38462065833E+02  0.00000000000E+00 0.  1.
          3    1    1    2  501    0 -0.20619774532E+02 -0.18009796813E+02 -0.37201986758E+02  0.46189995689E+02  0.00000000000E+00 0. -1.
<scales pt_clust_5="13000.00000" pt_clust_6="13000.00000" pt_clust_7="13000.00000" pt_clust_8="13000.00000" pt_clust_9="27.37751"></scales>
<clustering>
<clus scale="   27.378">  2  9  1 -1</clus>
<clus scale="   92.037">  5  6 -1 -1</clus>
<clus scale="   92.228">  1  5  2 -1</clus>
<clus scale="   96.486">  7  8 -1 -1</clus>
<clus scale="   27.378">  2  5  1 -1</clus>
</clustering>
</event>
<event>
 9    1  0.1601012E-005  0.1077055E+03  0.7546771E-02  0.1267406E+00
         21   -1    0    0  501  502  0.00000000000E+00  0.00000000000E+00  0.17213508537E+03  0.17213508537E+03  0.00000000000E+00 0. -1.
          2   -1    0    0  502    0 -0.00000000000E+00 -0.00000000000E+00 -0.20141905612E+03  0.20141905612E+03  0.00000000000E+00 0. -1.
         23    2    1    2    0    0 -0.43489961893E+02 -0.26540993049E+02 -0.12482694388E+03  0.16235229699E+03  0.90447229496E+02 0.  0.
         23    2    1    2    0    0  0.85775236951E+02  0.25519887791E+02  0.19839822027E+02  0.12448359827E+03  0.84225244150E+02 0.  0.
        -11    1    3    3    0    0  0.21655174901E+02  0.15183561329E+02 -0.32010948835E+02  0.41523342591E+02  0.00000000000E+00 0.  1.
         11    1    3    3    0    0 -0.65145136794E+02 -0.41724554378E+02 -0.92815995041E+02  0.12082895440E+03  0.00000000000E+00 0. -1.
        -11    1    4    4    0    0  0.78003964532E+02  0.17717580554E+01 -0.17109950855E+02  0.79878082272E+02  0.00000000000E+00 0. -1.
         11    1    4    4    0    0  0.77712724195E+01  0.23748129736E+02  0.36949772882E+02  0.44605515993E+02  0.00000000000E+00 0.  1.
          2    1    1    2  501    0 -0.42285275058E+02  0.10211052578E+01  0.75703151097E+02  0.86718246227E+02  0.00000000000E+00 0. -1.
<scales pt_clust_5="13000.00000" pt_clust_6="13000.00000" pt_clust_7="13000.00000" pt_clust_8="13000.00000" pt_clust_9="42.29760"></scales>
<clustering>
<clus scale="   42.298">  1  9  2 -1</clus>
<clus scale="   84.225">  7  8 -1 -1</clus>
<clus scale="   90.447">  5  6 -1 -1</clus>
<clus scale="  102.536">  1  7  2 -1</clus>
<clus scale="   42.298">  1  5  2 -1</clus>
</clustering>
</event>
<event>
 9    1  0.1601012E-005  0.9468197E+02  0.7546771E-02  0.1293597E+00
          3   -1    0    0  502    0 -0.00000000000E+00  0.00000000000E+00  0.52878956796E+02  0.52878956796E+02  0.00000000000E+00 0. -1.
         21   -1    0    0  501  502  0.00000000000E+00 -0.00000000000E+00 -0.27996569938E+03  0.27996569938E+03  0.00000000000E+00 0.  1.
         23    2    1    2    0    0  0.17305446543E+02  0.35352746682E+02 -0.51918846006E+02  0.11229069292E+03  0.91456754635E+02 0.  0.
         23    2    1    2    0    0 -0.29857104445E+01 -0.60530162779E+01 -0.78062841796E+02  0.11811900483E+03  0.88389697132E+02 0.  0.
        -13    1    3    3    0    0  0.52915542888E+02  0.17798212041E+02 -0.45609430752E+02  0.72090576392E+02  0.00000000000E+00 0.  1.
         13    1    3    3    0    0 -0.35610096345E+02  0.17554534641E+02 -0.63094152540E+01  0.40200116530E+02  0.00000000000E+00 0. -1.
        -13    1    4    4    0    0  0.41800255763E+02 -0.77250502130E+01 -0.48187115923E+02  0.64256796712E+02  0.00000000000E+00 0.  1.
         13    1    4    4    0    0 -0.44785966208E+02  0.16720339351E+01 -0.29875725873E+02  0.53862208115E+02  0.00000000000E+00 0. -1.
          3    1    1    2  501    0 -0.14319736098E+02 -0.29299730404E+02 -0.97105054779E+02  0.10243495842E+03  0.00000000000E+00 0. -1.
<scales pt_clust_5="13000.00000" pt_clust_6="13000.00000" pt_clust_7="13000.00000" pt_clust_8="13000.00000" pt_clust_9="32.61179"></scales>
<clustering>
<clus scale="   32.612">  2  9  1 -1</clus>
<clus scale="   88.390">  7  8 -1 -1</clus>
<clus scale="   91.457">  5  6 -1 -1</clus>
<clus scale="   91.723">  2  7  1 -1</clus>
<clus scale="   32.612">  2  5  1 -1</clus>
</clustering>
</event>
<event>
 9    1  0.1601012E-005  0.1007041E+03  0.7546771E-02  0.1279116E+00
         21   -1    0    0  501  502  0.00000000000E+00  0.00000000000E+00  0.32919611544E+02  0.32919611544E+02  0.00000000000E+00 0. -1.
          1   -1    0    0  502    0 -0.00000000000E+00 -0.00000000000E+00 -0.44359479802E+03  0.44359479802E+03  0.00000000000E+00 0. -1.
         23    2    1    2    0    0  0.42459359889E+02 -0.15366433175E+02 -0.21155698637E+03  0.23528737215E+03  0.92546553166E+02 0.  0.
         23    2    1    2    0    0 -0.35770506859E+02 -0.18654094353E+02 -0.13380349802E+03  0.16728011484E+03  0.91933434303E+02 0.  0.
        -11    1    4    4    0    0 -0.12136767222E+02  0.25593390248E+02 -0.10642799743E+03  0.11013283516E+03  0.00000000000E+00 0.  1.
         11    1    4    4    0    0 -0.23633739637E+02 -0.44247484601E+02 -0.27375500586E+02  0.57147279682E+02  0.00000000000E+00 0. -1.
        -11    1    3    3    0    0 -0.21937347538E+02  0.17337752416E+02 -0.86089476687E+02  0.90516533695E+02  0.00000000000E+00 0.  1.
         11    1    3    3    0    0  0.64396707427E+02 -0.32704185590E+02 -0.12546750968E+03  0.14477083846E+03  0.00000000000E+00 0. -1.
          1    1    1    2  501    0 -0.66888530306E+01  0.34020527528E+02 -0.65314702086E+02  0.73946922564E+02  0.00000000000E+00 0. -1.
<scales pt_clust_5="13000.00000" pt_clust_6="13000.00000" pt_clust_7="13000.00000" pt_clust_8="13000.00000" pt_clust_9="34.67187"></scales>
<clustering>
<clus scale="   34.672">  1  9  2 -1</clus>
<clus scale="   91.933">  5  6 -1 -1</clus>
<clus scale="   92.547">  7  8 -1 -1</clus>
<clus scale="  100.141">  1  5  2 -1</clus>
<clus scale="   34.672">  1  5  2 -1</clus>
</clustering>
</event>
<event>
 9    1  0.1601012E-005  0.1119897E+03  0.7546771E-02  0.1259114E+00
         21   -1    0    0  501  502  0.00000000000E+00  0.00000000000E+00  0.30452025961E+03  0.30452025961E+03  0.00000000000E+00 0. -1.
         -1   -1    0    0    0  501 -0.00000000000E+00 -0.00000000000E+00 -0.13525195986E+03  0.13525195986E+03  0.00000000000E+00 0.  1.
         23    2    1    2    0    0 -0.65862261496E+02 -0.19827478571E+02 -0.81355408408E+02  0.13933218224E+03  0.89798597623E+02 0.  0.
         23    2    1    2    0    0  0.62926415588E+02 -0.54616609723E+01  0.91366159242E+02  0.13916038365E+03  0.83834800671E+02 0.  0.
        -11    1    4    4    0    0  0.61216765216E+02  0.21451161369E+02  0.91539986124E+02  0.11219275256E+03  0.00000000000E+00 0.  1.
         11    1    4    4    0    0  0.17096503724E+01 -0.26912822341E+02 -0.17382688179E+00  0.26967631089E+02  0.00000000000E+00 0. -1.
        -13    1    3    3    0    0 -0.28870122265E+02  0.46927398957E+01 -0.89546000185E+02  0.94201867903E+02  0.00000000000E+00 0.  1.
         13    1    3    3    0    0 -0.36992139231E+02 -0.24520218467E+02  0.81905917778E+01  0.45130314337E+02  0.00000000000E+00 0. -1.
         -1    1    1    2    0  502  0.29358459073E+01  0.25289139543E+02  0.15925754892E+03  0.16127965358E+03  0.00000000000E+00 0.  1.
<scales pt_clust_5="13000.00000" pt_clust_6="13000.00000" pt_clust_7="13000.00000" pt_clust_8="13000.00000" pt_clust_9="25.45898"></scales>
<clustering>
<clus scale="   25.459">  1  9  2 -1</clus>
<clus scale="   83.835">  5  6 -1 -1</clus>
<clus scale="   89.799">  7  8 -1 -1</clus>
<clus scale="  107.267">  1  5  2 -1</clus>
<clus scale="   25.459">  1  5  2 -1</clus>
</clustering>
</event>
<event>
 9    1  0.1601012E-005  0.9211069E+02  0.7546771E-02  0.1302980E+00
         21   -1    0    0  501  502  0.00000000000E+00  0.00000000000E+00  0.23243459054E+03  0.23243459054E+03  0.00000000000E+00 0. -1.
          1   -1    0    0  502    0 -0.00000000000E+00 -0.00000000000E+00 -0.17346967793E+03  0.17346967793E+03  0.00000000000E+00 0. -1.
         23    2    1    2    0    0  0.53950780444E+01  0.90142664811E+01 -0.12154768156E+03  0.14783374760E+03  0.83490204025E+02 0.  0.
         23    2    1    2    0    0  0.16629717973E+01  0.10599954580E+02  0.18002806486E+02  0.94229241489E+02  0.91869061157E+02 0.  0.
        -11    1    3    3    0    0 -0.31445688516E+02 -0.46035825793E+01 -0.16765358093E+02  0.35931901297E+02  0.00000000000E+00 0.  1.
         11    1    3    3    0    0  0.36840766560E+02  0.13617849060E+02 -0.10478232347E+03  0.11190184630E+03  0.00000000000E+00 0. -1.
        -11    1    4    4    0    0 -0.43436862773E+02  0.17354788006E+02  0.67658368617E+01  0.47262313345E+02  0.00000000000E+00 0.  1.
         11    1    4    4    0    0  0.45099834571E+02 -0.67548334259E+01  0.11236969624E+02  0.46966928144E+02  0.00000000000E+00 0. -1.
          1    1    1    2  501    0 -0.70580498417E+01 -0.19614221061E+02  0.16250978769E+03  0.16384127938E+03  0.00000000000E+00 0. -1.
<scales pt_clust_5="13000.00000" pt_clust_6="13000.00000" pt_clust_7="13000.00000" pt_clust_8="13000.00000" pt_clust_9="20.84547"></scales>
<clustering>
<clus scale="   20.845">  1  9  2 -1</clus>
<clus scale="   83.490">  5  6 -1 -1</clus>
<clus scale="   83.756">  2  5  1 -1</clus>
<clus scale="   91.869">  7  8 -1 -1</clus>
<clus scale="   20.845">  1  5  2 -1</clus>
</clustering>
</event>
<event>
 9    1  0.1601012E-005  0.9999470E+02  0.7546771E-02  0.1281099E+00
          1   -1    0    0  502    0 -0.00000000000E+00  0.00000000000E+00  0.78835702688E+02  0.78835702688E+02  0.00000000000E+00 0. -1.
         21   -1    0    0  501  502  0.00000000000E+00 -0.00000000000E+00 -0.40115357499E+03  0.40115357499E+03  0.00000000000E+00 0. -1.
         23    2    1    2    0    0 -0.35947124972E+01 -0.14874875357E+02 -0.33341959304E+02  0.10189997202E+03  0.95066998338E+02 0.  0.
         23    2    1    2    0    0 -0.60138317697E+02  0.19594341322E+02 -0.38000035413E+02  0.11910462730E+03  0.93495208885E+02 0.  0.
        -11    1    3    3    0    0 -0.18264696381E+02 -0.52059294660E+02 -0.11528901308E+02  0.56362087078E+02  0.00000000000E+00 0.  1.
         11    1    3    3    0    0  0.14669983883E+02  0.37184419303E+02 -0.21813057997E+02  0.45537884944E+02  0.00000000000E+00 0. -1.
        -13    1    4    4    0    0  0.21277627302E+02 -0.42772217094E+00 -0.27251143508E+02  0.34576656755E+02  0.00000000000E+00 0.  1.
         13    1    4    4    0    0 -0.81415944999E+02  0.20022063493E+02 -0.10748891906E+02  0.84527970541E+02  0.00000000000E+00 0. -1.
          1    1    1    2  501    0  0.63733030194E+02 -0.47194659645E+01 -0.25097587758E+03  0.25898467836E+03  0.00000000000E+00 0. -1.
<scales pt_clust_5="13000.00000" pt_clust_6="13000.00000" pt_clust_7="13000.00000" pt_clust_8="13000.00000" pt_clust_9="63.90753"></scales>
<clustering>
<clus scale="   63.908">  2  9  1 -1</clus>
<clus scale="   93.495">  7  8 -1 -1</clus>
<clus scale="   95.067">  5  6 -1 -1</clus>
<clus scale="   98.502">  2  7  1 -1</clus>
<clus scale="   63.908">  2  5  1 -1</clus>
</clustering>
</event>
<event>
 9    1  0.1601012E-005  0.2098906E+03  0.7546771E-02  0.1141669E+00
         -4   -1    0    0    0  501 -0.00000000000E+00  0.00000000000E+00  0.15349688552E+04  0.15349688552E+04  0.00000000000E+00 0.  1.
         21   -1    0    0  501  502  0.00000000000E+00 -0.00000000000E+00 -0.77441537736E+02  0.77441537736E+02  0.00000000000E+00 0.  1.
         23    2    1    2    0    0  0.10606361004E+03 -0.11091642328E+03  0.57254903108E+03  0.60002822616E+03  0.93110347817E+02 0.  0.
         23    2    1    2    0    0 -0.28041118589E+03  0.10055083594E+03  0.63307945259E+03  0.70585721661E+03  0.93294764927E+02 0.  0.
        -13    1    3    3    0    0  0.90639263605E+02 -0.27573373367E+02  0.30433124834E+03  0.31873700090E+03  0.00000000000E+00 0.  1.
         13    1    3    3    0    0  0.15424346438E+02 -0.83343049909E+02  0.26821778275E+03  0.28129122527E+03  0.00000000000E+00 0. -1.
        -13    1    4    4    0    0 -0.26575457603E+03  0.11671549655E+03  0.58442479315E+03  0.65253378507E+03  0.00000000000E+00 0.  1.
         13    1    4    4    0    0 -0.14656609865E+02 -0.16164660608E+02  0.48654659446E+02  0.53323431539E+02  0.00000000000E+00 0. -1.
         -4    1    1    2    0  502  0.17434757585E+03  0.10365587339E+02  0.25189883375E+03  0.30652495012E+03  0.00000000000E+00 0.  1.
<scales pt_clust_5="13000.00000" pt_clust_6="13000.00000" pt_clust_7="13000.00000" pt_clust_8="13000.00000" pt_clust_9="174.65544"></scales>
<clustering>
<clus scale="   93.110">  5  6 -1 -1</clus>
<clus scale="   93.295">  7  8 -1 -1</clus>
<clus scale="  174.655">  2  9  1 -1</clus>
<clus scale="  209.809">  1  5  2 -1</clus>
<clus scale="  174.655">  2  5  1 -1</clus>
</clustering>
</event>
<event>
 9    1  0.1601012E-005  0.1046727E+03  0.7546771E-02  0.1273972E+00
         -1   -1    0    0    0  501 -0.00000000000E+00  0.00000000000E+00  0.17168890723E+02  0.17168890723E+02  0.00000000000E+00 0.  1.
         21   -1    0    0  501  502  0.00000000000E+00 -0.00000000000E+00 -0.11628960816E+04  0.11628960816E+04  0.00000000000E+00 0. -1.
         23    2    1    2    0    0 -0.87089204044E+01  0.63076067916E+01 -0.30046003648E+03  0.31689169693E+03  0.10014231304E+03 0.  0.
         23    2    1    2    0    0  0.24258771442E+02 -0.63380096778E+02 -0.54124683668E+03  0.55345175440E+03  0.93569127272E+02 0.  0.
        -13    1    3    3    0    0 -0.42469135645E+02  0.21680001094E+02 -0.78454026942E+02  0.91807866075E+02  0.00000000000E+00 0.  1.
         13    1    3    3    0    0  0.33760215240E+02 -0.15372394303E+02 -0.22200600954E+03  0.22508383085E+03  0.00000000000E+00 0. -1.
        -13    1    4    4    0    0  0.54185860538E+02 -0.64955829320E+02 -0.42985920671E+03  0.43810307559E+03  0.00000000000E+00 0. -1.
         13    1    4    4    0    0 -0.29927089097E+02  0.15757325420E+01 -0.11138762996E+03  0.11534867881E+03  0.00000000000E+00 0.  1.
         -1    1    1    2    0  502 -0.15549851037E+02  0.57072489986E+02 -0.30402031776E+03  0.30972152103E+03  0.00000000000E+00 0.  1.
<scales pt_clust_5="13000.00000" pt_clust_6="13000.00000" pt_clust_7="13000.00000" pt_clust_8="13000.00000" pt_clust_9="59.15291"></scales>
<clustering>
<clus scale="   59.153">  2  9  1 -1</clus>
<clus scale="   93.569">  7  8 -1 -1</clus>
<clus scale="   98.403">  2  7  1 -1</clus>
<clus scale="  100.142">  5  6 -1 -1</clus>
<clus scale="   59.153">  2  5  1 -1</clus>
</clustering>
</event>
<event>
 9    1  0.1601012E-005  0.1720010E+03  0.7546771E-02  0.1186298E+00
         21   -1    0    0  501  502  0.00000000000E+00  0.00000000000E+00  0.16519480401E+04  0.16519480401E+04  0.00000000000E+00 0. -1.
          1   -1    0    0  502    0 -0.00000000000E+00 -0.00000000000E+00 -0.68564763418E+02  0.68564763418E+02  0.00000000000E+00 0. -1.
         23    2    1    2    0    0 -0.13038913385E+02  0.98338112775E+02  0.35012415018E+03  0.37554915454E+03  0.92789273358E+02 0.  0.
         23    2    1    2    0    0  0.47129635985E+02 -0.23095056083E+03  0.26239439590E+03  0.36449102627E+03  0.91888655985E+02 0.  0.
        -13    1    4    4    0    0  0.53289994658E+02 -0.97468827467E+02  0.16594763475E+03  0.19969630276E+03  0.00000000000E+00 0.  1.
         13    1    4    4    0    0 -0.61603586733E+01 -0.13348173336E+03  0.96446761150E+02  0.16479472351E+03  0.00000000000E+00 0. -1.
        -13    1    3    3    0    0  0.39830128548E+02  0.47332855505E+02  0.17633553117E+03  0.18687176861E+03  0.00000000000E+00 0.  1.
         13    1    3    3    0    0 -0.52869041933E+02  0.51005257271E+02  0.17378861900E+03  0.18867738593E+03  0.00000000000E+00 0. -1.
          1    1    1    2  501    0 -0.34090722600E+02  0.13261244805E+03  0.97086473065E+03  0.98047262275E+03  0.00000000000E+00 0. -1.
<scales pt_clust_5="13000.00000" pt_clust_6="13000.00000" pt_clust_7="13000.00000" pt_clust_8="13000.00000" pt_clust_9="145.39888"></scales>
<clustering>
<clus scale="   91.889">  5  6 -1 -1</clus>
<clus scale="   92.789">  7  8 -1 -1</clus>
<clus scale="  135.832">  2  7  1 -1</clus>
<clus scale="  145.399">  1  9  2 -1</clus>
<clus scale="  145.399">  1  5  2 -1</clus>
</clustering>
</event>
<event>
 9    1  0.1601012E-005  0.1136761E+03  0.7546771E-02  0.1255940E+00
         21   -1    0    0  501  502  0.00000000000E+00  0.00000000000E+00  0.16268748464E+03  0.16268748464E+03  0.00000000000E+00 0. -1.
         -1   -1    0    0    0  501 -0.00000000000E+00 -0.00000000000E+00 -0.22050110910E+03  0.22050110910E+03  0.00000000000E+00 0.  1.
         23    2    1    2    0    0  0.70644963720E+02 -0.20546181205E+02 -0.14491971435E+03  0.18410235513E+03  0.86481773190E+02 0.  0.
         23    2    1    2    0    0 -0.41459422509E+02 -0.40550325964E+02  0.69526129392E+02  0.12913172471E+03  0.92075550544E+02 0.  0.
        -11    1    4    4    0    0 -0.65312781353E+02 -0.50743953118E+02  0.49809371185E+02  0.96548856254E+02  0.00000000000E+00 0. -1.
         11    1    4    4    0    0  0.23853358844E+02  0.10193627153E+02  0.19716758207E+02  0.32582868456E+02  0.00000000000E+00 0.  1.
        -13    1    3    3    0    0 -0.11785527435E+02 -0.17645631916E+02 -0.51906712905E+01  0.21845137928E+02  0.00000000000E+00 0. -1.
         13    1    3    3    0    0  0.82430491155E+02 -0.29005492892E+01 -0.13972904306E+03  0.16225721720E+03  0.00000000000E+00 0.  1.
         -1    1    1    2    0  502 -0.29185541211E+02  0.61096507169E+02  0.17579960506E+02  0.69954513903E+02  0.00000000000E+00 0.  1.
<scales pt_clust_5="13000.00000" pt_clust_6="13000.00000" pt_clust_7="13000.00000" pt_clust_8="13000.00000" pt_clust_9="67.70952"></scales>
<clustering>
<clus scale="   67.710">  1  9  2 -1</clus>
<clus scale="   86.482">  7  8 -1 -1</clus>
<clus scale="   92.076">  5  6 -1 -1</clus>
<clus scale="  109.194">  2  7  1 -1</clus>
<clus scale="   67.710">  1  5  2 -1</clus>
</clustering>
</event>
<event>
 9    1  0.1601012E-005  0.1654809E+03  0.7546771E-02  0.1183582E+00
          1   -1    0    0  502    0 -0.00000000000E+00  0.00000000000E+00  0.28428582016E+03  0.28428582016E+03  0.00000000000E+00 0. -1.
         21   -1    0    0  501  502  0.00000000000E+00 -0.00000000000E+00 -0.27174799524E+03  0.27174799524E+03  0.00000000000E+00 0. -1.
         23    2    1    2    0    0 -0.13455838946E+03 -0.81071929025E+02  0.20098340369E+03  0.26951453267E+03  0.86977795532E+02 0.  0.
         23    2    1    2    0    0  0.70598662816E+02  0.34416788342E+02 -0.60554583723E+02  0.13610766283E+03  0.93218838015E+02 0.  0.
        -13    1    3    3    0    0 -0.37288971257E+02  0.12004518491E+02  0.77475037604E+02  0.86815651201E+02  0.00000000000E+00 0.  1.
         13    1    3    3    0    0 -0.97269418198E+02 -0.93076447516E+02  0.12350836609E+03  0.18269888147E+03  0.00000000000E+00 0. -1.
        -13    1    4    4    0    0  0.92295974198E+02  0.37890529826E+02 -0.52181118119E+02  0.11259266491E+03  0.00000000000E+00 0.  1.
         13    1    4    4    0    0 -0.21697311381E+02 -0.34737414838E+01 -0.83734656034E+01  0.23514997922E+02  0.00000000000E+00 0. -1.
          1    1    1    2  501    0  0.63959726639E+02  0.46655140683E+02 -0.12789099504E+03  0.15041161989E+03  0.00000000000E+00 0. -1.
<scales pt_clust_5="13000.00000" pt_clust_6="13000.00000" pt_clust_7="13000.00000" pt_clust_8="13000.00000" pt_clust_9="79.16785"></scales>
<clustering>
<clus scale="   79.168">  2  9  1 -1</clus>
<clus scale="   86.978">  5  6 -1 -1</clus>
<clus scale="   93.219">  7  8 -1 -1</clus>
<clus scale="  162.047">  1  5  2 -1</clus>
<clus scale="   79.168">  2  5  1 -1</clus>
</clustering>
</event>
<event>
 9    1  0.1601012E-005  0.1080745E+03  0.7546771E-02  0.1264763E+00
         21   -1    0    0  501  502  0.00000000000E+00  0.00000000000E+00  0.28508944745E+03  0.28508944745E+03  0.00000000000E+00 0.  1.
         -4   -1    0    0    0  501 -0.00000000000E+00 -0.00000000000E+00 -0.21927565324E+03  0.21927565324E+03  0.00000000000E+00 0.  1.
         23    2    1    2    0    0 -0.30417700546E+01 -0.42408687304E+02 -0.10280946546E+03  0.14283332710E+03  0.89575800405E+02 0.  0.
         23    2    1    2    0    0  0.22585812944E+02  0.93081253506E+02 -0.46171295418E+02  0.13997731193E+03  0.91036369844E+02 0.  0.
        -11    1    4    4    0    0 -0.73766639010E+01  0.10016106084E+03 -0.28148246199E+02  0.10430233479E+03  0.00000000000E+00 0.  1.
         11    1    4    4    0    0  0.29962476845E+02 -0.70798073364E+01 -0.18023049218E+02  0.35674977138E+02  0.00000000000E+00 0. -1.
        -11    1    3    3    0    0  0.38783811579E+02 -0.44149825781E+01 -0.61484327597E+02  0.72828556568E+02  0.00000000000E+00 0.  1.
         11    1    3    3    0    0 -0.41825581634E+02 -0.37993704726E+02 -0.41325137868E+02  0.70004770534E+02  0.00000000000E+00 0. -1.
         -4    1    1    2    0  502 -0.19544042890E+02 -0.50672566203E+02  0.21479455510E+03  0.22155446165E+03  0.00000000000E+00 0.  1.
<scales pt_clust_5="13000.00000" pt_clust_6="13000.00000" pt_clust_7="13000.00000" pt_clust_8="13000.00000" pt_clust_9="54.31094"></scales>
<clustering>
<clus scale="   54.311">  1  9  2 -1</clus>
<clus scale="   89.576">  7  8 -1 -1</clus>
<clus scale="   91.036">  5  6 -1 -1</clus>
<clus scale="  106.847">  2  7  1 -1</clus>
<clus scale="   54.311">  1  5  2 -1</clus>
</clustering>
</event>
<event>
 9    1  0.1601012E-005  0.1743642E+03  0.7546771E-02  0.1199078E+00
         -2   -1    0    0    0  501 -0.00000000000E+00  0.00000000000E+00  0.83902872602E+02  0.83902872602E+02  0.00000000000E+00 0.  1.
         21   -1    0    0  501  502  0.00000000000E+00 -0.00000000000E+00 -0.92084750128E+03  0.92084750128E+03  0.00000000000E+00 0.  1.
         23    2    1    2    0    0 -0.25593942606E+02 -0.25360532276E+02 -0.38885307582E+02  0.10583839689E+03  0.91605090555E+02 0.  0.
         23    2    1    2    0    0 -0.12547605343E+03  0.61481573779E+01 -0.10227742559E+03  0.18665941984E+03  0.92730940935E+02 0.  0.
        -11    1    3    3    0    0 -0.15117315934E+02 -0.47715707445E+02  0.10027824480E+02  0.51047813291E+02  0.00000000000E+00 0.  1.
         11    1    3    3    0    0 -0.10476626671E+02  0.22355175169E+02 -0.48913132063E+02  0.54790583602E+02  0.00000000000E+00 0. -1.
        -13    1    4    4    0    0 -0.13136156131E+03 -0.16736807218E+02 -0.89037033729E+02  0.15957309886E+03  0.00000000000E+00 0.  1.
         13    1    4    4    0    0  0.58855078788E+01  0.22884964596E+02 -0.13240391864E+02  0.27086320981E+02  0.00000000000E+00 0. -1.
         -2    1    1    2    0  502  0.15106999604E+03  0.19212374898E+02 -0.69578189550E+03  0.71225255714E+03  0.00000000000E+00 0.  1.
<scales pt_clust_5="13000.00000" pt_clust_6="13000.00000" pt_clust_7="13000.00000" pt_clust_8="13000.00000" pt_clust_9="147.66123"></scales>
<clustering>
<clus scale="   91.605">  5  6 -1 -1</clus>
<clus scale="   92.731">  7  8 -1 -1</clus>
<clus scale="   98.436">  1  5  2 -1</clus>
<clus scale="  147.661">  2  9  1 -1</clus>
<clus scale="  147.661">  2  5  1 -1</clus>
</clustering>
</event>
<event>
 9    1  0.1601012E-005  0.9832431E+02  0.7546771E-02  0.1287528E+00
         -3   -1    0    0    0  501 -0.00000000000E+00  0.00000000000E+00  0.46162904241E+03  0.46162904241E+03  0.00000000000E+00 0.  1.
         21   -1    0    0  501  502  0.00000000000E+00 -0.00000000000E+00 -0.41588343304E+02  0.41588343304E+02  0.00000000000E+00 0.  1.
         23    2    1    2    0    0  0.26752842815E+02 -0.68298717329E+01  0.23679322104E+03  0.25535010044E+03  0.91489248093E+02 0.  0.
         23    2    1    2    0    0  0.24933189920E+02 -0.95038324933E+01  0.15847207842E+03  0.18826815524E+03  0.98079110150E+02 0.  0.
        -11    1    3    3    0    0 -0.31561381834E+02  0.10871275320E+02  0.65049652580E+02  0.73114723217E+02  0.00000000000E+00 0. -1.
         11    1    3    3    0    0  0.58314224649E+02 -0.17701147053E+02  0.17174356846E+03  0.18223537722E+03  0.00000000000E+00 0.  1.
        -13    1    4    4    0    0  0.38953181579E+02  0.24498423897E+02  0.30723262054E+02  0.55330298751E+02  0.00000000000E+00 0.  1.
         13    1    4    4    0    0 -0.14019991659E+02 -0.34002256390E+02  0.12774881636E+03  0.13293785649E+03  0.00000000000E+00 0. -1.
         -3    1    1    2    0  502 -0.51686032735E+02  0.16333704226E+02  0.24775399653E+02  0.59599130040E+02  0.00000000000E+00 0.  1.
<scales pt_clust_5="13000.00000" pt_clust_6="13000.00000" pt_clust_7="13000.00000" pt_clust_8="13000.00000" pt_clust_9="54.20550"></scales>
<clustering>
<clus scale="   54.205">  2  9  1 -1</clus>
<clus scale="   91.489">  5  6 -1 -1</clus>
<clus scale="   91.752">  1  5  2 -1</clus>
<clus scale="   98.079">  7  8 -1 -1</clus>
<clus scale="   54.205">  2  5  1 -1</clus>
</clustering>
</event>
<event>
 9    1  0.1601012E-005  0.1387392E+03  0.7546771E-02  0.1215168E+00
          2   -1    0    0  502    0 -0.00000000000E+00  0.00000000000E+00  0.63075545279E+03  0.63075545279E+03  0.00000000000E+00 0. -1.
         21   -1    0    0  501  502  0.00000000000E+00 -0.00000000000E+00 -0.47593734737E+02  0.47593734737E+02  0.00000000000E+00 0.  1.
         23    2    1    2    0    0  0.94903271475E+02  0.30102917890E+02  0.41244173812E+03  0.43411230469E+03  0.91828585586E+02 0.  0.
         23    2    1    2    0    0 -0.11650128505E+03 -0.20854529551E+02  0.13443797870E+03  0.20101200007E+03  0.91240304886E+02 0.  0.
        -11    1    3    3    0    0  0.62706837518E+02  0.62281557287E+02  0.23973165162E+03  0.25550421647E+03  0.00000000000E+00 0. -1.
         11    1    3    3    0    0  0.32196433957E+02 -0.32178639397E+02  0.17271008651E+03  0.17860808821E+03  0.00000000000E+00 0.  1.
        -13    1    4    4    0    0 -0.74541073220E+02 -0.10431483579E+02  0.18834642724E+02  0.77588215684E+02  0.00000000000E+00 0.  1.
         13    1    4    4    0    0 -0.41960211828E+02 -0.10423045972E+02  0.11560333598E+03  0.12342378439E+03  0.00000000000E+00 0. -1.
          2    1    1    2  501    0  0.21598013573E+02 -0.92483883390E+01  0.36282001229E+02  0.43224882769E+02  0.00000000000E+00 0. -1.
<scales pt_clust_5="13000.00000" pt_clust_6="13000.00000" pt_clust_7="13000.00000" pt_clust_8="13000.00000" pt_clust_9="23.49483"></scales>
<clustering>
<clus scale="   23.495">  2  9  1 -1</clus>
<clus scale="   91.240">  7  8 -1 -1</clus>
<clus scale="   91.829">  5  6 -1 -1</clus>
<clus scale="  138.351">  2  7  1 -1</clus>
<clus scale="   23.495">  2  5  1 -1</clus>
</clustering>
</event>
<event>
 9    1  0.1601012E-005  0.1471149E+03  0.7546771E-02  0.1204311E+00
         21   -1    0    0  501  502  0.00000000000E+00  0.00000000000E+00  0.14201325104E+03  0.14201325104E+03  0.00000000000E+00 0.  1.
          1   -1    0    0  502    0 -0.00000000000E+00 -0.00000000000E+00 -0.23387893668E+03  0.23387893668E+03  0.00000000000E+00 0. -1.
         23    2    1    2    0    0 -0.34663041871E+02  0.10203090413E+03 -0.52626810916E+02  0.15121567584E+03  0.92112797821E+02 0.  0.
         23    2    1    2    0    0  0.94634317859E+02 -0.91202913172E+02 -0.35151476465E+02  0.16359864227E+03  0.90858483193E+02 0.  0.
        -13    1    4    4    0    0 -0.82789228971E+01 -0.42640028688E+02 -0.23016504863E+02  0.49157625115E+02  0.00000000000E+00 0.  1.
         13    1    4    4    0    0  0.10291324076E+03 -0.48562884484E+02 -0.12134971602E+02  0.11444101716E+03  0.00000000000E+00 0. -1.
        -13    1    3    3    0    0 -0.32236991918E+01  0.97929296634E+02 -0.64559119035E+02  0.11733890756E+03  0.00000000000E+00 0. -1.
         13    1    3    3    0    0 -0.31439342679E+02  0.41016074957E+01  0.11932308119E+02  0.33876768282E+02  0.00000000000E+00 0.  1.
          1    1    1    2  501    0 -0.59971275988E+02 -0.10827990958E+02 -0.40873982563E+01  0.61077869612E+02  0.00000000000E+00 0. -1.
<scales pt_clust_5="13000.00000" pt_clust_6="13000.00000" pt_clust_7="13000.00000" pt_clust_8="13000.00000" pt_clust_9="60.94095"></scales>
<clustering>
<clus scale="   60.941">  1  9  2 -1</clus>
<clus scale="   90.858">  5  6 -1 -1</clus>
<clus scale="   92.113">  7  8 -1 -1</clus>
<clus scale="  146.333">  1  5  2 -1</clus>
<clus scale="   60.941">  1  5  2 -1</clus>
</clustering>
</event>
<event>
 9    1  0.1601012E-005  0.2316753E+03  0.7546771E-02  0.1125666E+00
         21   -1    0    0  501  502  0.00000000000E+00  0.00000000000E+00  0.45261106209E+02  0.45261106209E+02  0.00000000000E+00 0.  1.
          2   -1    0    0  502    0 -0.00000000000E+00 -0.00000000000E+00 -0.19307376978E+04  0.19307376978E+04  0.00000000000E+00 0. -1.
         23    2    1    2    0    0  0.20238330016E+03 -0.71378364825E+02 -0.11442785483E+04  0.11675801543E+04  0.88408990307E+02 0.  0.
         23    2    1    2    0    0 -0.21601969584E+03  0.81829998914E+01 -0.68015354153E+03  0.71950275327E+03  0.91344958451E+02 0.  0.
        -11    1    3    3    0    0  0.18300990913E+03 -0.83475082276E+02 -0.10942539110E+04  0.11125881259E+04  0.00000000000E+00 0.  1.
         11    1    3    3    0    0  0.19373391026E+02  0.12096717451E+02 -0.50024637300E+02  0.54992028422E+02  0.00000000000E+00 0. -1.
        -13    1    4    4    0    0 -0.17935583636E+02  0.30408576052E+02 -0.10777456006E+03  0.11340953423E+03  0.00000000000E+00 0.  1.
         13    1    4    4    0    0 -0.19808411220E+03 -0.22225576161E+02 -0.57237898146E+03  0.60609321904E+03  0.00000000000E+00 0. -1.
          2    1    1    2  501    0  0.13636395679E+02  0.63195364934E+02 -0.61044501760E+02  0.88915896393E+02  0.00000000000E+00 0. -1.
<scales pt_clust_5="13000.00000" pt_clust_6="13000.00000" pt_clust_7="13000.00000" pt_clust_8="13000.00000" pt_clust_9="64.64987"></scales>
<clustering>
<clus scale="   64.650">  1  9  2 -1</clus>
<clus scale="   88.409">  5  6 -1 -1</clus>
<clus scale="   91.345">  7  8 -1 -1</clus>
<clus scale="  230.533">  2  5  1 -1</clus>
<clus scale="   64.650">  1  5  2 -1</clus>
</clustering>
</event>
<event>
 9    1  0.1601012E-005  0.1712644E+03  0.7546771E-02  0.1177477E+00
         21   -1    0    0  501  502  0.00000000000E+00  0.00000000000E+00  0.39466627075E+03  0.39466627075E+03  0.00000000000E+00 0.  1.
         -2   -1    0    0    0  501 -0.00000000000E+00 -0.00000000000E+00 -0.88865053960E+02  0.88865053960E+02  0.00000000000E+00 0.  1.
         23    2    1    2    0    0 -0.70656716606E+02 -0.13231236736E+03  0.10566632423E+03  0.20201993982E+03  0.84544366173E+02 0.  0.
         23    2    1    2    0    0  0.81134246358E+02  0.11332840289E+03  0.14039574280E+03  0.21795876456E+03  0.91482050802E+02 0.  0.
        -13    1    4    4    0    0  0.23637768549E+02 -0.13653275231E+02  0.24505451302E+02  0.36683418189E+02  0.00000000000E+00 0. -1.
         13    1    4    4    0    0  0.57496477809E+02  0.12698167812E+03  0.11589029150E+03  0.18127534637E+03  0.00000000000E+00 0.  1.
        -13    1    3    3    0    0 -0.27407179256E+02 -0.59019122702E+01  0.49916239883E+02  0.57250476393E+02  0.00000000000E+00 0. -1.
         13    1    3    3    0    0 -0.43249537350E+02 -0.12641045509E+03  0.55750084349E+02  0.14476946343E+03  0.00000000000E+00 0.  1.
         -2    1    1    2    0  502 -0.10477529752E+02  0.18983964472E+02  0.59739149763E+02  0.63552620333E+02  0.00000000000E+00 0.  1.
<scales pt_clust_5="13000.00000" pt_clust_6="13000.00000" pt_clust_7="13000.00000" pt_clust_8="13000.00000" pt_clust_9="21.68339"></scales>
<clustering>
<clus scale="   21.683">  1  9  2 -1</clus>
<clus scale="   84.544">  7  8 -1 -1</clus>
<clus scale="   91.482">  5  6 -1 -1</clus>
<clus scale="  167.661">  2  7  1 -1</clus>
<clus scale="   21.683">  1  5  2 -1</clus>
</clustering>
</event>
<event>
 9    1  0.1601012E-005  0.9888339E+02  0.7546771E-02  0.1284761E+00
         21   -1    0    0  501  502  0.00000000000E+00  0.00000000000E+00  0.34616016759E+02  0.34616016759E+02  0.00000000000E+00 0.  1.
          1   -1    0    0  502    0 -0.00000000000E+00 -0.00000000000E+00 -0.41235308620E+03  0.41235308620E+03  0.00000000000E+00 0. -1.
         23    2    1    2    0    0  0.26087418307E+02 -0.23679307468E+02 -0.23828347369E+03  0.25759682451E+03  0.91300860739E+02 0.  0.
         23    2    1    2    0    0 -0.46544507811E+02  0.78336624003E+01 -0.12574384105E+03  0.16008859096E+03  0.87115359834E+02 0.  0.
        -11    1    3    3    0    0  0.23774829173E+02 -0.58087086369E+02 -0.16713376822E+03  0.17853024558E+03  0.00000000000E+00 0. -1.
         11    1    3    3    0    0  0.23125891342E+01  0.34407778901E+02 -0.71149705465E+02  0.79066578939E+02  0.00000000000E+00 0.  1.
        -13    1    4    4    0    0  0.23621357588E+02  0.85742622059E+01 -0.15874642391E+02  0.29723572762E+02  0.00000000000E+00 0. -1.
         13    1    4    4    0    0 -0.70165865399E+02 -0.74059980563E+00 -0.10986919866E+03  0.13036501820E+03  0.00000000000E+00 0.  1.
          1    1    1    2  501    0  0.20457089504E+02  0.15845645068E+02 -0.13709754697E+02  0.29283687480E+02  0.00000000000E+00 0. -1.
<scales pt_clust_5="13000.00000" pt_clust_6="13000.00000" pt_clust_7="13000.00000" pt_clust_8="13000.00000" pt_clust_9="25.87619"></scales>
<clustering>
<clus scale="   25.876">  1  9  2 -1</clus>
<clus scale="   87.115">  7  8 -1 -1</clus>
<clus scale="   91.301">  5  6 -1 -1</clus>
<clus scale="   95.032">  1  7  2 -1</clus>
<clus scale="   25.876">  1  5  2 -1</clus>
</clustering>
</event>
<event>
 9    1  0.1601012E-005  0.1177778E+03  0.7546771E-02  0.1250835E+00
         21   -1    0    0  501  502  0.00000000000E+00  0.00000000000E+00  0.38571488794E+02  0.38571488794E+02  0.00000000000E+00 0. -1.
         -3   -1    0    0    0  501 -0.00000000000E+00 -0.00000000000E+00 -0.57387189481E+03  0.57387189481E+03  0.00000000000E+00 0.  1.
         23    2    1    2    0    0  0.30856524373E+02  0.48333899575E+02 -0.28276425898E+03  0.30172046358E+03  0.88268460058E+02 0.  0.
         23    2    1    2    0    0  0.31909812729E+00 -0.86052732288E+02 -0.17124172582E+03  0.21583660542E+03  0.99280093763E+02 0.  0.
        -11    1    4    4    0    0  0.44389932744E+02 -0.70775195142E+02 -0.12339328355E+03  0.14901508918E+03  0.00000000000E+00 0. -1.
         11    1    4    4    0    0 -0.44070834617E+02 -0.15277537146E+02 -0.47848442271E+02  0.66821516242E+02  0.00000000000E+00 0.  1.
        -11    1    3    3    0    0  0.58799487728E+02  0.22592816867E+02 -0.13224658890E+03  0.14648199687E+03  0.00000000000E+00 0. -1.
         11    1    3    3    0    0 -0.27942963355E+02  0.25741082708E+02 -0.15051767007E+03  0.15523846670E+03  0.00000000000E+00 0.  1.
         -3    1    1    2    0  502 -0.31175622501E+02  0.37718832713E+02 -0.81294421216E+02  0.94886314611E+02  0.00000000000E+00 0.  1.
<scales pt_clust_5="13000.00000" pt_clust_6="13000.00000" pt_clust_7="13000.00000" pt_clust_8="13000.00000" pt_clust_9="48.93495"></scales>
<clustering>
<clus scale="   48.935">  1  9  2 -1</clus>
<clus scale="   88.268">  7  8 -1 -1</clus>
<clus scale="   99.280">  5  6 -1 -1</clus>
<clus scale="  108.657">  2  7  1 -1</clus>
<clus scale="   48.935">  1  5  2 -1</clus>
</clustering>
</event>
<event>
 9    1  0.1601012E-005  0.9842968E+02  0.7546771E-02  0.1286125E+00
         21   -1    0    0  501  502  0.00000000000E+00  0.00000000000E+00  0.12592928599E+03  0.12592928599E+03  0.00000000000E+00 0. -1.
          2   -1    0    0  502    0 -0.00000000000E+00 -0.00000000000E+00 -0.41200164553E+03  0.41200164553E+03  0.00000000000E+00 0. -1.
         23    2    1    2    0    0  0.12901909590E+02 -0.20593874065E+02 -0.30662834885E+03  0.32079685715E+03  0.91099463867E+02 0.  0.
         23    2    1    2    0    0 -0.33317185817E+02 -0.63132700721E+01 -0.68075920195E+02  0.12228475549E+03  0.95756661727E+02 0.  0.
        -11    1    4    4    0    0  0.18896688181E+02 -0.35426225225E+02 -0.16795757753E+02  0.43522404994E+02  0.00000000000E+00 0. -1.
         11    1    4    4    0    0 -0.52213873998E+02  0.29112955153E+02 -0.51280162442E+02  0.78762350496E+02  0.00000000000E+00 0.  1.
        -13    1    3    3    0    0 -0.10477831236E+02 -0.52490411949E+02 -0.20110111683E+03  0.20810258885E+03  0.00000000000E+00 0. -1.
         13    1    3    3    0    0  0.23379740826E+02  0.31896537884E+02 -0.10552723202E+03  0.11269426830E+03  0.00000000000E+00 0.  1.
          2    1    1    2  501    0  0.20415276227E+02  0.26907144137E+02  0.88631909504E+02  0.94849318877E+02  0.00000000000E+00 0. -1.
<scales pt_clust_5="13000.00000" pt_clust_6="13000.00000" pt_clust_7="13000.00000" pt_clust_8="13000.00000" pt_clust_9="33.77540"></scales>
<clustering>
<clus scale="   33.775">  1  9  2 -1</clus>
<clus scale="   91.099">  7  8 -1 -1</clus>
<clus scale="   93.905">  2  7  1 -1</clus>
<clus scale="   95.757">  5  6 -1 -1</clus>
<clus scale="   33.775">  1  5  2 -1</clus>
</clustering>
</event>
<event>
 9    1  0.1601012E-005  0.1157175E+03  0.7546771E-02  0.1250933E+00
         21   -1    0    0  501  502  0.00000000000E+00  0.00000000000E+00  0.28714254606E+02  0.28714254606E+02  0.00000000000E+00 0. -1.
          1   -1    0    0  502    0 -0.00000000000E+00 -0.00000000000E+00 -0.89786019350E+03  0.89786019350E+03  0.00000000000E+00 0. -1.
         23    2    1    2    0    0  0.56216620560E+02  0.19007392420E+02 -0.48159044049E+03  0.49360417231E+03  0.90521473425E+02 0.  0.
         23    2    1    2    0    0 -0.72163354539E+02 -0.61603650160E+02 -0.34933207420E+03  0.37355841120E+03  0.92251986746E+02 0.  0.
        -11    1    3    3    0    0  0.70907829326E+02 -0.12336906103E+02 -0.36292246586E+03  0.36999031844E+03  0.00000000000E+00 0. -1.
         11    1    3    3    0    0 -0.14691208766E+02  0.31344298523E+02 -0.11866797464E+03  0.12361385387E+03  0.00000000000E+00 0.  1.
        -13    1    4    4    0    0 -0.40107326155E+02 -0.81775144350E+02 -0.20468688516E+03  0.22403681126E+03  0.00000000000E+00 0. -1.
         13    1    4    4    0    0 -0.32056028384E+02  0.20171494190E+02 -0.14464518904E+03  0.14952159994E+03  0.00000000000E+00 0.  1.
          1    1    1    2  501    0  0.15946733979E+02  0.42596257740E+02 -0.38223424204E+02  0.59411864606E+02  0.00000000000E+00 0. -1.
<scales pt_clust_5="13000.00000" pt_clust_6="13000.00000" pt_clust_7="13000.00000" pt_clust_8="13000.00000" pt_clust_9="45.48340"></scales>
<clustering>
<clus scale="   45.483">  1  9  2 -1</clus>
<clus scale="   90.521">  5  6 -1 -1</clus>
<clus scale="   92.252">  7  8 -1 -1</clus>
<clus scale="  114.343">  2  5  1 -1</clus>
<clus scale="   45.483">  1  5  2 -1</clus>
</clustering>
</event>
<event>
 9    1  0.1601012E-005  0.9728186E+02  0.7546771E-02  0.1286840E+00
         21   -1    0    0  501  502  0.00000000000E+00  0.00000000000E+00  0.96281486484E+02  0.96281486484E+02  0.00000000000E+00 0.  1.
          4   -1    0    0  502    0 -0.00000000000E+00 -0.00000000000E+00 -0.31502002398E+03  0.31502002398E+03  0.00000000000E+00 0. -1.
         23    2    1    2    0    0 -0.55970785056E+00  0.27083621169E+02 -0.22320884244E+03  0.24217178367E+03  0.89950817965E+02 0.  0.
         23    2    1    2    0    0 -0.17689951875E+02 -0.73898325644E+02  0.29406361730E+01  0.11886038701E+03  0.91352325257E+02 0.  0.
        -11    1    4    4    0    0 -0.41618437380E+02 -0.62719061708E+02 -0.26041910241E+02  0.79648955552E+02  0.00000000000E+00 0.  1.
         11    1    4    4    0    0  0.23928485505E+02 -0.11179263936E+02  0.28982546414E+02  0.39211431463E+02  0.00000000000E+00 0. -1.
        -11    1    3    3    0    0 -0.31580868983E+02  0.14054129597E+02 -0.29148465205E+02  0.45216179275E+02  0.00000000000E+00 0.  1.
         11    1    3    3    0    0  0.31021161132E+02  0.13029491573E+02 -0.19406037724E+03  0.19695560439E+03  0.00000000000E+00 0. -1.
          4    1    1    2  501    0  0.18249659726E+02  0.46814704475E+02  0.15296687753E+01  0.50269339778E+02  0.00000000000E+00 0. -1.
<scales pt_clust_5="13000.00000" pt_clust_6="13000.00000" pt_clust_7="13000.00000" pt_clust_8="13000.00000" pt_clust_9="50.24606"></scales>
<clustering>
<clus scale="   50.246">  1  9  2 -1</clus>
<clus scale="   89.951">  7  8 -1 -1</clus>
<clus scale="   91.352">  5  6 -1 -1</clus>
<clus scale="   95.967">  2  7  1 -1</clus>
<clus scale="   50.246">  1  5  2 -1</clus>
</clustering>
</event>
<event>
 9    1  0.1601012E-005  0.1340886E+03  0.7546771E-02  0.1221559E+00
         21   -1    0    0  501  502  0.00000000000E+00  0.00000000000E+00  0.20822254907E+03  0.20822254907E+03  0.00000000000E+00 0.  1.
          1   -1    0    0  502    0 -0.00000000000E+00 -0.00000000000E+00 -0.11311417118E+03  0.11311417118E+03  0.00000000000E+00 0. -1.
         23    2    1    2    0    0  0.46418190271E+02  0.94870852618E+02  0.13136457266E+02  0.13868722222E+03  0.88918232285E+02 0.  0.
         23    2    1    2    0    0 -0.19966759486E+02 -0.93490479398E+02  0.46681649709E+02  0.13852482419E+03  0.88717581543E+02 0.  0.
        -11    1    3    3    0    0  0.69371263459E+02  0.66134349847E+02 -0.81551596312E+01  0.96190597524E+02  0.00000000000E+00 0.  1.
         11    1    3    3    0    0 -0.22953073188E+02  0.28736502772E+02  0.21291616897E+02  0.42496624694E+02  0.00000000000E+00 0. -1.
        -13    1    4    4    0    0 -0.46324148882E+01 -0.36311921579E+02 -0.25915012630E+02  0.44850895153E+02  0.00000000000E+00 0. -1.
         13    1    4    4    0    0 -0.15334344598E+02 -0.57178557820E+02  0.72596662339E+02  0.93673929037E+02  0.00000000000E+00 0.  1.
          1    1    1    2  501    0 -0.26451430785E+02 -0.13803732196E+01  0.35290270909E+02  0.44124673841E+02  0.00000000000E+00 0. -1.
<scales pt_clust_5="13000.00000" pt_clust_6="13000.00000" pt_clust_7="13000.00000" pt_clust_8="13000.00000" pt_clust_9="26.48742"></scales>
<clustering>
<clus scale="   26.487">  1  9  2 -1</clus>
<clus scale="   88.718">  7  8 -1 -1</clus>
<clus scale="   88.918">  5  6 -1 -1</clus>
<clus scale="  133.956">  1  7  2 -1</clus>
<clus scale="   26.487">  1  5  2 -1</clus>
</clustering>
</event>
<event>
 9    1  0.1601012E-005  0.1253615E+03  0.7546771E-02  0.1235507E+00
         21   -1    0    0  501  502  0.00000000000E+00  0.00000000000E+00  0.53839201338E+03  0.53839201338E+03  0.00000000000E+00 0.  1.
         -4   -1    0    0    0  501 -0.00000000000E+00 -0.00000000000E+00 -0.16444068906E+03  0.16444068906E+03  0.00000000000E+00 0.  1.
         23    2    1    2    0    0 -0.56223480934E+02  0.39885857753E+02 -0.53785371430E+02  0.12764055082E+03  0.92990766082E+02 0.  0.
         23    2    1    2    0    0  0.71097092956E+02 -0.95244736420E+02  0.53129212733E+01  0.14889686075E+03  0.89530394653E+02 0.  0.
        -13    1    3    3    0    0  0.24428775750E+02  0.28049833497E+01 -0.23045551808E+02  0.33700600505E+02  0.00000000000E+00 0.  1.
         13    1    3    3    0    0 -0.80652256684E+02  0.37080874403E+02 -0.30739819622E+02  0.93939950314E+02  0.00000000000E+00 0. -1.
        -13    1    4    4    0    0  0.71418190049E+02 -0.41148074050E+02 -0.25953698410E+02  0.86413635088E+02  0.00000000000E+00 0.  1.
         13    1    4    4    0    0 -0.32109709309E+00 -0.54096662370E+02  0.31266619683E+02  0.62483225664E+02  0.00000000000E+00 0. -1.
         -4    1    1    2    0  502 -0.14873612022E+02  0.55358878668E+02  0.42242377447E+03  0.42629529087E+03  0.00000000000E+00 0.  1.
<scales pt_clust_5="13000.00000" pt_clust_6="13000.00000" pt_clust_7="13000.00000" pt_clust_8="13000.00000" pt_clust_9="57.32216"></scales>
<clustering>
<clus scale="   57.322">  1  9  2 -1</clus>
<clus scale="   89.530">  7  8 -1 -1</clus>
<clus scale="   92.991">  5  6 -1 -1</clus>
<clus scale="  122.817">  1  7  2 -1</clus>
<clus scale="   57.322">  1  5  2 -1</clus>
</clustering>
</event>
<event>
 9    1  0.1601012E-005  0.1006739E+03  0.7546771E-02  0.1279616E+00
         21   -1    0    0  501  502  0.00000000000E+00  0.00000000000E+00  0.24117859341E+03  0.24117859341E+03  0.00000000000E+00 0. -1.
          2   -1    0    0  502    0 -0.00000000000E+00 -0.00000000000E+00 -0.66641884837E+02  0.66641884837E+02  0.00000000000E+00 0.  1.
         23    2    1    2    0    0 -0.16769321264E+02 -0.20459450304E+02  0.34693542889E+02  0.10325297421E+03  0.93582773644E+02 0.  0.
         23    2    1    2    0    0  0.25368246396E+02  0.45017392456E+02  0.61902285673E+02  0.12239807655E+03  0.92083020276E+02 0.  0.
        -11    1    3    3    0    0  0.22840626273E+02  0.14760982438E+02  0.41703745552E+02  0.49787379969E+02  0.00000000000E+00 0. -1.
         11    1    3    3    0    0 -0.39609947536E+02 -0.35220432742E+02 -0.70102026628E+01  0.53465594243E+02  0.00000000000E+00 0.  1.
        -11    1    4    4    0    0 -0.59734016482E+01 -0.26680890976E+02  0.15963332413E+02  0.31660376691E+02  0.00000000000E+00 0.  1.
         11    1    4    4    0    0  0.31341648045E+02  0.71698283432E+02  0.45938953260E+02  0.90737699860E+02  0.00000000000E+00 0. -1.
          2    1    1    2  501    0 -0.85989251326E+01 -0.24557942152E+02  0.77940880007E+02  0.82169427480E+02  0.00000000000E+00 0.  1.
<scales pt_clust_5="13000.00000" pt_clust_6="13000.00000" pt_clust_7="13000.00000" pt_clust_8="13000.00000" pt_clust_9="26.01988"></scales>
<clustering>
<clus scale="   26.020">  1  9  2 -1</clus>
<clus scale="   92.083">  7  8 -1 -1</clus>
<clus scale="   93.583">  5  6 -1 -1</clus>
<clus scale="   99.281">  1  7  2 -1</clus>
<clus scale="   26.020">  1  5  2 -1</clus>
</clustering>
</event>
<event>
 9    1  0.1601012E-005  0.2848591E+03  0.7546771E-02  0.1121797E+00
         -3   -1    0    0    0  501 -0.00000000000E+00  0.00000000000E+00  0.15748378816E+04  0.15748378816E+04  0.00000000000E+00 0.  1.
         21   -1    0    0  501  502  0.00000000000E+00 -0.00000000000E+00 -0.31155367269E+03  0.31155367269E+03  0.00000000000E+00 0.  1.
         23    2    1    2    0    0  0.57859619156E+02 -0.79976952326E+02 -0.24163472244E+03  0.27753781310E+03  0.94317814762E+02 0.  0.
         23    2    1    2    0    0  0.24155722705E+02 -0.21667606139E+03  0.89443168278E+03  0.92516945184E+03  0.91643139063E+02 0.  0.
        -11    1    4    4    0    0 -0.20539790708E+02 -0.78128314696E+02  0.20109933074E+03  0.21671838266E+03  0.00000000000E+00 0. -1.
         11    1    4    4    0    0  0.44695513413E+02 -0.13854774669E+03  0.69333235204E+03  0.70845106918E+03  0.00000000000E+00 0.  1.
        -11    1    3    3    0    0  0.80219162135E+02 -0.81113659175E+02 -0.20492883733E+03  0.23454289170E+03  0.00000000000E+00 0.  1.
         11    1    3    3    0    0 -0.22359542978E+02  0.11367068491E+01 -0.36705885112E+02  0.42994921404E+02  0.00000000000E+00 0. -1.
         -3    1    1    2    0  502 -0.82015341861E+02  0.29665301371E+03  0.61048724857E+03  0.68368428936E+03  0.00000000000E+00 0.  1.
<scales pt_clust_5="13000.00000" pt_clust_6="13000.00000" pt_clust_7="13000.00000" pt_clust_8="13000.00000" pt_clust_9="269.71515"></scales>
<clustering>
<clus scale="   91.643">  5  6 -1 -1</clus>
<clus scale="   94.318">  7  8 -1 -1</clus>
<clus scale="  136.528">  1  7  2 -1</clus>
<clus scale="  269.715">  2  9  1 -1</clus>
<clus scale="  269.715">  2  5  1 -1</clus>
</clustering>
</event>
<event>
 9    1  0.1601012E-005  0.1382573E+03  0.7546771E-02  0.1215731E+00
         21   -1    0    0  501  502  0.00000000000E+00  0.00000000000E+00  0.87339836679E+02  0.87339836679E+02  0.00000000000E+00 0. -1.
          2   -1    0    0  502    0 -0.00000000000E+00 -0.00000000000E+00 -0.59299124886E+03  0.59299124886E+03  0.00000000000E+00 0. -1.
         23    2    1    2    0    0  0.11497863392E+03  0.14584229494E+02 -0.36236054271E+03  0.39117104424E+03  0.90977123094E+02 0.  0.
         23    2    1    2    0    0 -0.52514731144E+02 -0.96067174495E+02 -0.11382409578E+03  0.18234477915E+03  0.91142716118E+02 0.  0.
        -11    1    3    3    0    0  0.94468409725E+02  0.42091023913E+02 -0.19926051309E+03  0.22450097284E+03  0.00000000000E+00 0.  1.
         11    1    3    3    0    0  0.20510224191E+02 -0.27506794419E+02 -0.16310002962E+03  0.16667007139E+03  0.00000000000E+00 0. -1.
        -11    1    4    4    0    0  0.26056123209E+02 -0.23564149875E+02 -0.22323324936E+02  0.41623569671E+02  0.00000000000E+00 0.  1.
         11    1    4    4    0    0 -0.78570854352E+02 -0.72503024621E+02 -0.91500770848E+02  0.14072120948E+03  0.00000000000E+00 0. -1.
          2    1    1    2  501    0 -0.62463902773E+02  0.81482945001E+02 -0.29466773681E+02  0.10681526214E+03  0.00000000000E+00 0. -1.
<scales pt_clust_5="13000.00000" pt_clust_6="13000.00000" pt_clust_7="13000.00000" pt_clust_8="13000.00000" pt_clust_9="102.67039"></scales>
<clustering>
<clus scale="   90.977">  5  6 -1 -1</clus>
<clus scale="   91.143">  7  8 -1 -1</clus>
<clus scale="  102.670">  1  9  2 -1</clus>
<clus scale="  138.148">  2  5  1 -1</clus>
<clus scale="  102.670">  1  5  2 -1</clus>
</clustering>
</event>
<event>
 9    1  0.1601012E-005  0.1774928E+03  0.7546771E-02  0.1170619E+00
         21   -1    0    0  501  502  0.00000000000E+00  0.00000000000E+00  0.33749057233E+03  0.33749057233E+03  0.00000000000E+00 0.  1.
          3   -1    0    0  502    0 -0.00000000000E+00 -0.00000000000E+00 -0.11846945188E+03  0.11846945188E+03  0.00000000000E+00 0. -1.
         23    2    1    2    0    0  0.31766719946E+02 -0.14140356864E+03  0.35641901204E+02  0.17466319886E+03  0.90734746352E+02 0.  0.
         23    2    1    2    0    0 -0.43478044645E+02  0.16107013240E+03  0.15048811852E+03  0.24122497284E+03  0.87800260766E+02 0.  0.
        -13    1    4    4    0    0 -0.37439459616E+02  0.14055309453E+03  0.16135282786E+03  0.21723632426E+03  0.00000000000E+00 0.  1.
         13    1    4    4    0    0 -0.60385850291E+01  0.20517037869E+02 -0.10864709338E+02  0.23988648588E+02  0.00000000000E+00 0. -1.
        -13    1    3    3    0    0  0.47166532758E+02 -0.11296402265E+03 -0.52496253773E+01  0.12252800003E+03  0.00000000000E+00 0.  1.
         13    1    3    3    0    0 -0.15399812812E+02 -0.28439545987E+02  0.40891526581E+02  0.52135198827E+02  0.00000000000E+00 0. -1.
          3    1    1    2  501    0  0.11711324699E+02 -0.19666563764E+02  0.32891100724E+02  0.40071852507E+02  0.00000000000E+00 0. -1.
<scales pt_clust_5="13000.00000" pt_clust_6="13000.00000" pt_clust_7="13000.00000" pt_clust_8="13000.00000" pt_clust_9="22.88949"></scales>
<clustering>
<clus scale="   22.889">  1  9  2 -1</clus>
<clus scale="   87.800">  5  6 -1 -1</clus>
<clus scale="   90.735">  7  8 -1 -1</clus>
<clus scale="  176.011">  1  5  2 -1</clus>
<clus scale="   22.889">  1  5  2 -1</clus>
</clustering>
</event>
<event>
 9    1  0.1601012E-005  0.1250119E+03  0.7546771E-02  0.1235696E+00
         21   -1    0    0  501  502  0.00000000000E+00  0.00000000000E+00  0.87660246743E+02  0.87660246743E+02  0.00000000000E+00 0. -1.
          2   -1    0    0  502    0 -0.00000000000E+00 -0.00000000000E+00 -0.35109110250E+03  0.35109110250E+03  0.00000000000E+00 0. -1.
         23    2    1    2    0    0 -0.72437360865E+02 -0.68725985488E+02 -0.18386296883E+03  0.22825457064E+03  0.91236644928E+02 0.  0.
         23    2    1    2    0    0  0.25061714307E+02  0.62921110073E+02 -0.10533893095E+03  0.15625385118E+03  0.93444208042E+02 0.  0.
        -11    1    3    3    0    0 -0.71186071823E+02 -0.15321274331E+02 -0.14479527196E+03  0.16207365317E+03  0.00000000000E+00 0. -1.
         11    1    3    3    0    0 -0.12512890420E+01 -0.53404711157E+02 -0.39067696871E+02  0.66180917468E+02  0.00000000000E+00 0.  1.
        -13    1    4    4    0    0  0.23793826537E+02  0.41660172285E+02  0.81619405238E+00  0.47983146092E+02  0.00000000000E+00 0.  1.
         13    1    4    4    0    0  0.12678877698E+01  0.21260937787E+02 -0.10615512500E+03  0.10827070508E+03  0.00000000000E+00 0. -1.
          2    1    1    2  501    0  0.47375646558E+02  0.58048754154E+01  0.25771044031E+02  0.54242927427E+02  0.00000000000E+00 0. -1.
<scales pt_clust_5="13000.00000" pt_clust_6="13000.00000" pt_clust_7="13000.00000" pt_clust_8="13000.00000" pt_clust_9="47.72995"></scales>
<clustering>
<clus scale="   47.730">  1  9  2 -1</clus>
<clus scale="   91.237">  5  6 -1 -1</clus>
<clus scale="   93.444">  7  8 -1 -1</clus>
<clus scale="  123.371">  2  5  1 -1</clus>
<clus scale="   47.730">  1  5  2 -1</clus>
</clustering>
</event>
<event>
 9    1  0.1601012E-005  0.2654300E+03  0.7546771E-02  0.1104053E+00
          2   -1    0    0  502    0 -0.00000000000E+00  0.00000000000E+00  0.10265082385E+04  0.10265082385E+04  0.00000000000E+00 0. -1.
         21   -1    0    0  501  502  0.00000000000E+00 -0.00000000000E+00 -0.97523458655E+02  0.97523458655E+02  0.00000000000E+00 0.  1.
         23    2    1    2    0    0  0.51906812958E+02  0.23812436650E+03  0.46321517349E+03  0.53136835048E+03  0.91577812734E+02 0.  0.
         23    2    1    2    0    0 -0.36709333070E+02 -0.25229806577E+03  0.49076693383E+03  0.56015606238E+03  0.88998549179E+02 0.  0.
        -11    1    4    4    0    0 -0.48308201329E+02 -0.20312809452E+03  0.44682078146E+03  0.49319723828E+03  0.00000000000E+00 0.  1.
         11    1    4    4    0    0  0.11598868259E+02 -0.49169971247E+02  0.43946152374E+02  0.66958824107E+02  0.00000000000E+00 0. -1.
        -11    1    3    3    0    0  0.28173014593E+02  0.10180623863E+02  0.71765844230E+02  0.77766961182E+02  0.00000000000E+00 0.  1.
         11    1    3    3    0    0  0.23733798365E+02  0.22794374264E+03  0.39144932926E+03  0.45360138930E+03  0.00000000000E+00 0. -1.
          2    1    1    2  501    0 -0.15197479888E+02  0.14173699264E+02 -0.24997327525E+02  0.32507284248E+02  0.00000000000E+00 0. -1.
<scales pt_clust_5="13000.00000" pt_clust_6="13000.00000" pt_clust_7="13000.00000" pt_clust_8="13000.00000" pt_clust_9="20.78117"></scales>
<clustering>
<clus scale="   20.781">  2  9  1 -1</clus>
<clus scale="   88.999">  5  6 -1 -1</clus>
<clus scale="   91.578">  7  8 -1 -1</clus>
<clus scale="  264.551">  2  5  1 -1</clus>
<clus scale="   20.781">  2  5  1 -1</clus>
</clustering>
</event>
<event>
 9    1  0.1601012E-005  0.9953855E+02  0.7546771E-02  0.1286622E+00
          1   -1    0    0  502    0 -0.00000000000E+00  0.00000000000E+00  0.33274219162E+03  0.33274219162E+03  0.00000000000E+00 0. -1.
         21   -1    0    0  501  502  0.00000000000E+00 -0.00000000000E+00 -0.94581591669E+02  0.94581591669E+02  0.00000000000E+00 0. -1.
         23    2    1    2    0    0  0.78040051554E+01  0.40226024303E+02  0.26564635471E+03  0.28057857932E+03  0.80481786000E+02 0.  0.
         23    2    1    2    0    0 -0.43135491941E+02 -0.23363276984E+02 -0.29439227201E+02  0.10754721600E+03  0.91067130159E+02 0.  0.
        -11    1    4    4    0    0  0.26043534838E+02 -0.10522250843E+02  0.60650047762E+01  0.28736174982E+02  0.00000000000E+00 0.  1.
         11    1    4    4    0    0 -0.69179026780E+02 -0.12841026141E+02 -0.35504231978E+02  0.78811041021E+02  0.00000000000E+00 0. -1.
        -11    1    3    3    0    0 -0.19729136444E+02  0.89949916076E+01  0.14686641839E+02  0.26188664482E+02  0.00000000000E+00 0.  1.
         11    1    3    3    0    0  0.27533141600E+02  0.31231032695E+02  0.25095971287E+03  0.25438991484E+03  0.00000000000E+00 0. -1.
          1    1    1    2  501    0  0.35331486786E+02 -0.16862747319E+02  0.19534724430E+01  0.39197987961E+02  0.00000000000E+00 0. -1.
<scales pt_clust_5="13000.00000" pt_clust_6="13000.00000" pt_clust_7="13000.00000" pt_clust_8="13000.00000" pt_clust_9="39.14928"></scales>
<clustering>
<clus scale="   39.149">  2  9  1 -1</clus>
<clus scale="   80.482">  7  8 -1 -1</clus>
<clus scale="   89.956">  1  7  2 -1</clus>
<clus scale="   91.067">  5  6 -1 -1</clus>
<clus scale="   39.149">  2  5  1 -1</clus>
</clustering>
</event>
<event>
 9    1  0.1601012E-005  0.9471425E+02  0.7546771E-02  0.1292996E+00
          2   -1    0    0  502    0 -0.00000000000E+00  0.00000000000E+00  0.33353481943E+03  0.33353481943E+03  0.00000000000E+00 0. -1.
         21   -1    0    0  501  502  0.00000000000E+00 -0.00000000000E+00 -0.50206762482E+02  0.50206762482E+02  0.00000000000E+00 0.  1.
         23    2    1    2    0    0 -0.19866824002E+02 -0.57014129390E+01  0.19917163331E+03  0.22075953215E+03  0.92942104099E+02 0.  0.
         23    2    1    2    0    0  0.12048417498E+02 -0.29194890624E+02  0.83254583034E+02  0.12720925565E+03  0.90848022121E+02 0.  0.
        -11    1    3    3    0    0 -0.50828862908E+02  0.16829949221E+02  0.14373288004E+03  0.15338175022E+03  0.00000000000E+00 0. -1.
         11    1    3    3    0    0  0.30962038905E+02 -0.22531362160E+02  0.55438753266E+02  0.67377781929E+02  0.00000000000E+00 0.  1.
        -13    1    4    4    0    0 -0.19636522307E+02 -0.41443894774E+02  0.10694531049E+02  0.47091001440E+02  0.00000000000E+00 0.  1.
         13    1    4    4    0    0  0.31684939804E+02  0.12249004149E+02  0.72560051985E+02  0.80118254207E+02  0.00000000000E+00 0. -1.
          2    1    1    2  501    0  0.78184065048E+01  0.34896303563E+02  0.90184060967E+00  0.35772794120E+02  0.00000000000E+00 0. -1.
<scales pt_clust_5="13000.00000" pt_clust_6="13000.00000" pt_clust_7="13000.00000" pt_clust_8="13000.00000" pt_clust_9="35.76142"></scales>
<clustering>
<clus scale="   35.761">  2  9  1 -1</clus>
<clus scale="   90.848">  7  8 -1 -1</clus>
<clus scale="   92.660">  2  7  1 -1</clus>
<clus scale="   92.942">  5  6 -1 -1</clus>
<clus scale="   35.761">  2  5  1 -1</clus>
</clustering>
</event>
<event>
 9    1  0.1601012E-005  0.1011719E+03  0.7546771E-02  0.1279175E+00
          3   -1    0    0  502    0 -0.00000000000E+00  0.00000000000E+00  0.34215466629E+03  0.34215466629E+03  0.00000000000E+00 0. -1.
         21   -1    0    0  501  502  0.00000000000E+00 -0.00000000000E+00 -0.10134634090E+03  0.10134634090E+03  0.00000000000E+00 0. -1.
         23    2    1    2    0    0 -0.15336497236E+02 -0.31963411743E+02  0.24452181239E+03  0.26290733533E+03  0.89846994369E+02 0.  0.
         23    2    1    2    0    0  0.30196813502E+02  0.53732328451E+02  0.49075493064E+02  0.12159035713E+03  0.92611015877E+02 0.  0.
        -11    1    3    3    0    0  0.33761458660E+02  0.59507276056E+01  0.77761306553E+02  0.84982751466E+02  0.00000000000E+00 0.  1.
         11    1    3    3    0    0 -0.49097955895E+02 -0.37914139349E+02  0.16676050583E+03  0.17792458386E+03  0.00000000000E+00 0. -1.
        -13    1    4    4    0    0  0.46989517298E+01  0.68590748714E+02  0.55121584935E+01  0.68972130950E+02  0.00000000000E+00 0.  1.
         13    1    4    4    0    0  0.25497861773E+02 -0.14858420263E+02  0.43563334570E+02  0.52618226182E+02  0.00000000000E+00 0. -1.
          3    1    1    2  501    0 -0.14860316267E+02 -0.21768916708E+02 -0.52788980061E+02  0.59003314738E+02  0.00000000000E+00 0. -1.
<scales pt_clust_5="13000.00000" pt_clust_6="13000.00000" pt_clust_7="13000.00000" pt_clust_8="13000.00000" pt_clust_9="26.35744"></scales>
<clustering>
<clus scale="   26.357">  2  9  1 -1</clus>
<clus scale="   89.847">  5  6 -1 -1</clus>
<clus scale="   92.611">  7  8 -1 -1</clus>
<clus scale="   98.648">  1  5  2 -1</clus>
<clus scale="   26.357">  2  5  1 -1</clus>
</clustering>
</event>
<event>
 9    1  0.1601012E-005  0.1077648E+03  0.7546771E-02  0.1265663E+00
         21   -1    0    0  501  502  0.00000000000E+00  0.00000000000E+00  0.12892631029E+03  0.12892631029E+03  0.00000000000E+00 0.  1.
          3   -1    0    0  502    0 -0.00000000000E+00 -0.00000000000E+00 -0.17390408484E+03  0.17390408484E+03  0.00000000000E+00 0. -1.
         23    2    1    2    0    0  0.52067846920E+02 -0.11116640533E+02 -0.10168143111E+03  0.14733523924E+03  0.92379212537E+02 0.  0.
         23    2    1    2    0    0 -0.66246642766E+02 -0.16248033148E+02  0.37295544995E+02  0.11907348086E+03  0.90193790859E+02 0.  0.
        -11    1    3    3    0    0 -0.16334248738E+02 -0.27764885597E+02 -0.14629413395E+02  0.35379602744E+02  0.00000000000E+00 0.  1.
         11    1    3    3    0    0  0.68402095659E+02  0.16648245064E+02 -0.87052017719E+02  0.11195563650E+03  0.00000000000E+00 0. -1.
        -13    1    4    4    0    0 -0.64717249265E+02  0.17621038012E+02 -0.20895527260E+01  0.67105808718E+02  0.00000000000E+00 0.  1.
         13    1    4    4    0    0 -0.15293935003E+01 -0.33869071160E+02  0.39385097721E+02  0.51967672145E+02  0.00000000000E+00 0. -1.
          3    1    1    2  501    0  0.14178795845E+02  0.27364673682E+02  0.19408111569E+02  0.36421675030E+02  0.00000000000E+00 0. -1.
<scales pt_clust_5="13000.00000" pt_clust_6="13000.00000" pt_clust_7="13000.00000" pt_clust_8="13000.00000" pt_clust_9="30.81986"></scales>
<clustering>
<clus scale="   30.820">  1  9  2 -1</clus>
<clus scale="   90.194">  7  8 -1 -1</clus>
<clus scale="   92.379">  5  6 -1 -1</clus>
<clus scale="  105.897">  1  7  2 -1</clus>
<clus scale="   30.820">  1  5  2 -1</clus>
</clustering>
</event>
<event>
 9    1  0.1601012E-005  0.1711384E+03  0.7546771E-02  0.1203492E+00
          4   -1    0    0  502    0 -0.00000000000E+00  0.00000000000E+00  0.10587588508E+03  0.10587588508E+03  0.00000000000E+00 0. -1.
         21   -1    0    0  501  502  0.00000000000E+00 -0.00000000000E+00 -0.51814261381E+03  0.51814261381E+03  0.00000000000E+00 0. -1.
         23    2    1    2    0    0 -0.44263198950E+01  0.20664863561E+02 -0.78903131608E+02  0.12319550854E+03  0.92221473927E+02 0.  0.
         23    2    1    2    0    0 -0.68280047921E+02 -0.14259568621E+03 -0.58368583299E+02  0.19134665998E+03  0.90614337172E+02 0.  0.
        -11    1    4    4    0    0 -0.60466923954E+02 -0.56236494881E+02 -0.63967803169E+02  0.10445416263E+03  0.00000000000E+00 0. -1.
         11    1    4    4    0    0 -0.78131239666E+01 -0.86359191326E+02  0.55992198700E+01  0.86892497350E+02  0.00000000000E+00 0.  1.
        -11    1    3    3    0    0 -0.31507694343E+02 -0.40476960752E+01  0.45059988493E+01  0.32084617373E+02  0.00000000000E+00 0.  1.
         11    1    3    3    0    0  0.27081374448E+02  0.24712559636E+02 -0.83409130457E+02  0.91110891167E+02  0.00000000000E+00 0. -1.
          4    1    1    2  501    0  0.72706367816E+02  0.12193082265E+03 -0.27499501383E+03  0.30947633037E+03  0.00000000000E+00 0. -1.
<scales pt_clust_5="13000.00000" pt_clust_6="13000.00000" pt_clust_7="13000.00000" pt_clust_8="13000.00000" pt_clust_9="145.18056"></scales>
<clustering>
<clus scale="   90.614">  5  6 -1 -1</clus>
<clus scale="   92.221">  7  8 -1 -1</clus>
<clus scale="   94.612">  1  7  2 -1</clus>
<clus scale="  145.181">  2  9  1 -1</clus>
<clus scale="  145.181">  2  5  1 -1</clus>
</clustering>
</event>
<event>
 9    1  0.1601012E-005  0.3122372E+03  0.7546771E-02  0.1079317E+00
          2   -1    0    0  502    0 -0.00000000000E+00  0.00000000000E+00  0.11903645515E+04  0.11903645515E+04  0.00000000000E+00 0. -1.
         21   -1    0    0  501  502  0.00000000000E+00 -0.00000000000E+00 -0.10652640053E+03  0.10652640053E+03  0.00000000000E+00 0.  1.
         23    2    1    2    0    0 -0.15606463105E+02  0.30907988995E+03  0.73758231772E+03  0.80514506366E+03  0.91961720590E+02 0.  0.
         23    2    1    2    0    0  0.93634924407E+01 -0.28073684260E+03  0.35473385556E+03  0.46151048066E+03  0.90856841769E+02 0.  0.
        -13    1    4    4    0    0  0.36239554542E+02 -0.24217188754E+03  0.26917792799E+03  0.36389185941E+03  0.00000000000E+00 0.  1.
         13    1    4    4    0    0 -0.26876062102E+02 -0.38564955063E+02  0.85555927564E+02  0.97618621249E+02  0.00000000000E+00 0. -1.
        -13    1    3    3    0    0 -0.33698814731E+02  0.20904105576E+03  0.58173302228E+03  0.61906952947E+03  0.00000000000E+00 0.  1.
         13    1    3    3    0    0  0.18092351626E+02  0.10003883419E+03  0.15584929545E+03  0.18607553419E+03  0.00000000000E+00 0. -1.
          2    1    1    2  501    0  0.62429706643E+01 -0.28343047351E+02 -0.84780223289E+01  0.30235407694E+02  0.00000000000E+00 0. -1.
<scales pt_clust_5="13000.00000" pt_clust_6="13000.00000" pt_clust_7="13000.00000" pt_clust_8="13000.00000" pt_clust_9="29.02246"></scales>
<clustering>
<clus scale="   29.022">  2  9  1 -1</clus>
<clus scale="   90.857">  5  6 -1 -1</clus>
<clus scale="   91.962">  7  8 -1 -1</clus>
<clus scale="  311.914">  2  5  1 -1</clus>
<clus scale="   29.022">  2  5  1 -1</clus>
</clustering>
</event>
<event>
 9    1  0.1601012E-005  0.2192733E+03  0.7546771E-02  0.1135984E+00
         -2   -1    0    0    0  501 -0.00000000000E+00  0.00000000000E+00  0.77517175532E+03  0.77517175532E+03  0.00000000000E+00 0.  1.
         21   -1    0    0  501  502  0.00000000000E+00 -0.00000000000E+00 -0.70649568206E+02  0.70649568206E+02  0.00000000000E+00 0. -1.
         23    2    1    2    0    0 -0.18695655987E+03  0.19530040541E+02  0.33326537568E+03  0.39362261830E+03  0.92405504457E+02 0.  0.
         23    2    1    2    0    0  0.18631502463E+03 -0.50662061464E+02  0.34990897687E+03  0.41444497249E+03  0.10976525069E+03 0.  0.
        -11    1    4    4    0    0  0.74713659190E+02 -0.15130600090E+02  0.46689993937E+02  0.89392513458E+02  0.00000000000E+00 0.  1.
         11    1    4    4    0    0  0.11160136544E+03 -0.35531461375E+02  0.30321898293E+03  0.32505245903E+03  0.00000000000E+00 0. -1.
        -13    1    3    3    0    0 -0.77164198801E+02  0.36823709901E+02  0.80210788315E+02  0.11723510460E+03  0.00000000000E+00 0.  1.
         13    1    3    3    0    0 -0.10979236106E+03 -0.17293669360E+02  0.25305458736E+03  0.27638751371E+03  0.00000000000E+00 0. -1.
         -2    1    1    2    0  502  0.64153523390E+00  0.31132020924E+02  0.21347834574E+02  0.37753732733E+02  0.00000000000E+00 0.  1.
<scales pt_clust_5="13000.00000" pt_clust_6="13000.00000" pt_clust_7="13000.00000" pt_clust_8="13000.00000" pt_clust_9="31.13863"></scales>
<clustering>
<clus scale="   31.139">  2  9  1 -1</clus>
<clus scale="   92.406">  7  8 -1 -1</clus>
<clus scale="  109.765">  5  6 -1 -1</clus>
<clus scale="  211.119">  1  7  2 -1</clus>
<clus scale="   31.139">  2  5  1 -1</clus>
</clustering>
</event>
<event>
 9    1  0.1601012E-005  0.9159182E+02  0.7546771E-02  0.1299393E+00
         -1   -1    0    0    0  501 -0.00000000000E+00  0.00000000000E+00  0.35288409376E+02  0.35288409376E+02  0.00000000000E+00 0.  1.
         21   -1    0    0  501  502  0.00000000000E+00 -0.00000000000E+00 -0.52802266350E+03  0.52802266350E+03  0.00000000000E+00 0. -1.
         23    2    1    2    0    0  0.89777623519E+01  0.10407300559E+02 -0.52808215546E+02  0.10563743350E+03  0.90452460473E+02 0.  0.
         23    2    1    2    0    0  0.16066753832E+02 -0.28152061074E+02 -0.33296924693E+03  0.34639983475E+03  0.89853475123E+02 0.  0.
        -13    1    4    4    0    0 -0.15903251567E+02  0.24863886071E+02 -0.15965336262E+03  0.16235862292E+03  0.00000000000E+00 0.  1.
         13    1    4    4    0    0  0.31970005399E+02 -0.53015947145E+02 -0.17331588431E+03  0.18404121183E+03  0.00000000000E+00 0. -1.
        -13    1    3    3    0    0 -0.15197496063E+02 -0.34905427248E+02 -0.11623312431E+02  0.39805202296E+02  0.00000000000E+00 0. -1.
         13    1    3    3    0    0  0.24175258415E+02  0.45312727807E+02 -0.41184903115E+02  0.65832231204E+02  0.00000000000E+00 0.  1.
         -1    1    1    2    0  502 -0.25044516184E+02  0.17744760515E+02 -0.10695679164E+03  0.11127380462E+03  0.00000000000E+00 0.  1.
<scales pt_clust_5="13000.00000" pt_clust_6="13000.00000" pt_clust_7="13000.00000" pt_clust_8="13000.00000" pt_clust_9="30.69372"></scales>
<clustering>
<clus scale="   30.694">  2  9  1 -1</clus>
<clus scale="   89.853">  5  6 -1 -1</clus>
<clus scale="   90.452">  7  8 -1 -1</clus>
<clus scale="   91.000">  2  5  1 -1</clus>
<clus scale="   30.694">  2  5  1 -1</clus>
</clustering>
</event>
<event>
 9    1  0.1601012E-005  0.9074953E+02  0.7546771E-02  0.1301431E+00
         21   -1    0    0  501  502  0.00000000000E+00  0.00000000000E+00  0.31244269841E+03  0.31244269841E+03  0.00000000000E+00 0. -1.
         -3   -1    0    0    0  501 -0.00000000000E+00 -0.00000000000E+00 -0.45504664443E+02  0.45504664443E+02  0.00000000000E+00 0.  1.
         23    2    1    2    0    0  0.70364351287E+01  0.75066503582E+01  0.33883505732E+02  0.96643687288E+02  0.89922461671E+02 0.  0.
         23    2    1    2    0    0  0.15310032891E+02 -0.11388628274E+01  0.15828733539E+03  0.18300906223E+03  0.90563470553E+02 0.  0.
        -13    1    4    4    0    0 -0.24176474889E+02  0.11799391531E+02  0.95028946449E+01  0.28531256285E+02  0.00000000000E+00 0.  1.
         13    1    4    4    0    0  0.39486507780E+02 -0.12938254359E+02  0.14878444074E+03  0.15447780595E+03  0.00000000000E+00 0. -1.
        -13    1    3    3    0    0 -0.16518323789E+02  0.41193626457E+02  0.16593638800E+01  0.44413099081E+02  0.00000000000E+00 0.  1.
         13    1    3    3    0    0  0.23554758918E+02 -0.33686976099E+02  0.32224141852E+02  0.52230588207E+02  0.00000000000E+00 0. -1.
         -3    1    1    2    0  502 -0.22346468020E+02 -0.63677875308E+01  0.74767192845E+02  0.78294613333E+02  0.00000000000E+00 0.  1.
<scales pt_clust_5="13000.00000" pt_clust_6="13000.00000" pt_clust_7="13000.00000" pt_clust_8="13000.00000" pt_clust_9="23.23604"></scales>
<clustering>
<clus scale="   23.236">  1  9  2 -1</clus>
<clus scale="   89.922">  7  8 -1 -1</clus>
<clus scale="   90.110">  2  7  1 -1</clus>
<clus scale="   90.563">  5  6 -1 -1</clus>
<clus scale="   23.236">  1  5  2 -1</clus>
</clustering>
</event>
<event>
 9    1  0.1601012E-005  0.9573632E+02  0.7546771E-02  0.1290300E+00
         21   -1    0    0  501  502  0.00000000000E+00  0.00000000000E+00  0.64843792314E+03  0.64843792314E+03  0.00000000000E+00 0. -1.
         -1   -1    0    0    0  501 -0.00000000000E+00 -0.00000000000E+00 -0.30937555616E+02  0.30937555616E+02  0.00000000000E+00 0.  1.
         23    2    1    2    0    0  0.89449593087E+01 -0.36638011928E+02  0.11865312646E+03  0.15477145779E+03  0.91941739773E+02 0.  0.
         23    2    1    2    0    0 -0.15853844419E+02 -0.26496383919E+02  0.32322540668E+03  0.33785093975E+03  0.93355188501E+02 0.  0.
        -11    1    3    3    0    0  0.50085925935E+02 -0.23884726240E+02  0.76488553346E+02  0.94496449231E+02  0.00000000000E+00 0.  1.
         11    1    3    3    0    0 -0.41140966627E+02 -0.12753285688E+02  0.42164573112E+02  0.60275008557E+02  0.00000000000E+00 0. -1.
        -11    1    4    4    0    0  0.34532911654E+02  0.58866623658E+01  0.16478002911E+03  0.16846255600E+03  0.00000000000E+00 0.  1.
         11    1    4    4    0    0 -0.50386756073E+02 -0.32383046284E+02  0.15844537757E+03  0.16938838374E+03  0.00000000000E+00 0. -1.
         -1    1    1    2    0  502  0.69088851108E+01  0.63134395847E+02  0.17562183439E+03  0.18675308122E+03  0.00000000000E+00 0.  1.
<scales pt_clust_5="13000.00000" pt_clust_6="13000.00000" pt_clust_7="13000.00000" pt_clust_8="13000.00000" pt_clust_9="63.51130"></scales>
<clustering>
<clus scale="   63.511">  1  9  2 -1</clus>
<clus scale="   91.942">  5  6 -1 -1</clus>
<clus scale="   93.355">  7  8 -1 -1</clus>
<clus scale="   94.359">  2  5  1 -1</clus>
<clus scale="   63.511">  1  5  2 -1</clus>
</clustering>
</event>
<event>
 9    1  0.1601012E-005  0.1097182E+03  0.7546771E-02  0.1261310E+00
         21   -1    0    0  501  502  0.00000000000E+00  0.00000000000E+00  0.33028433453E+03  0.33028433453E+03  0.00000000000E+00 0.  1.
         -1   -1    0    0    0  501 -0.00000000000E+00 -0.00000000000E+00 -0.66764730001E+02  0.66764730001E+02  0.00000000000E+00 0.  1.
         23    2    1    2    0    0  0.29638404167E+02 -0.60297810833E+02  0.13535837652E+02  0.11393990918E+03  0.91021003129E+02 0.  0.
         23    2    1    2    0    0 -0.44486740026E+01  0.46359691047E+02  0.17021769470E+03  0.19830691505E+03  0.90457488989E+02 0.  0.
        -11    1    3    3    0    0 -0.23417611377E+02  0.95715254833E+01  0.50751461414E+01  0.25802242752E+02  0.00000000000E+00 0.  1.
         11    1    3    3    0    0  0.53056015544E+02 -0.69869336316E+02  0.84606915110E+01  0.88137666429E+02  0.00000000000E+00 0. -1.
        -11    1    4    4    0    0 -0.19475548786E+02 -0.20596795478E+02  0.25434099905E+02  0.38084359288E+02  0.00000000000E+00 0.  1.
         11    1    4    4    0    0  0.15026874783E+02  0.66956486525E+02  0.14478359480E+03  0.16022255576E+03  0.00000000000E+00 0. -1.
         -1    1    1    2    0  502 -0.25189730164E+02  0.13938119785E+02  0.79766072174E+02  0.84802240294E+02  0.00000000000E+00 0.  1.
<scales pt_clust_5="13000.00000" pt_clust_6="13000.00000" pt_clust_7="13000.00000" pt_clust_8="13000.00000" pt_clust_9="28.78878"></scales>
<clustering>
<clus scale="   28.789">  1  9  2 -1</clus>
<clus scale="   90.457">  7  8 -1 -1</clus>
<clus scale="   91.021">  5  6 -1 -1</clus>
<clus scale="  109.251">  1  7  2 -1</clus>
<clus scale="   28.789">  1  5  2 -1</clus>
</clustering>
</event>
<event>
 9    1  0.1601012E-005  0.1009355E+03  0.7546771E-02  0.1281214E+00
         21   -1    0    0  501  502  0.00000000000E+00  0.00000000000E+00  0.17866808174E+03  0.17866808174E+03  0.00000000000E+00 0.  1.
          3   -1    0    0  502    0 -0.00000000000E+00 -0.00000000000E+00 -0.12500084847E+03  0.12500084847E+03  0.00000000000E+00 0. -1.
         23    2    1    2    0    0 -0.26346462859E+02  0.30498715367E+02 -0.78105412131E+02  0.12859858730E+03  0.93876693094E+02 0.  0.
         23    2    1    2    0    0  0.24459174288E+02 -0.79807888577E+01  0.96315801010E+02  0.13302504964E+03  0.88073753811E+02 0.  0.
        -11    1    3    3    0    0 -0.76319619614E+01  0.58511577509E+02 -0.21646482989E+02  0.62852380797E+02  0.00000000000E+00 0. -1.
         11    1    3    3    0    0 -0.18714500898E+02 -0.28012862142E+02 -0.56458929142E+02  0.65746206500E+02  0.00000000000E+00 0.  1.
        -11    1    4    4    0    0 -0.23375914919E+02  0.24555378819E+02  0.35780278775E+02  0.49291260650E+02  0.00000000000E+00 0. -1.
         11    1    4    4    0    0  0.47835089208E+02 -0.32536167677E+02  0.60535522235E+02  0.83733788992E+02  0.00000000000E+00 0.  1.
          3    1    1    2  501    0  0.18872885709E+01 -0.22517926510E+02  0.35456844394E+02  0.42045293278E+02  0.00000000000E+00 0. -1.
<scales pt_clust_5="13000.00000" pt_clust_6="13000.00000" pt_clust_7="13000.00000" pt_clust_8="13000.00000" pt_clust_9="22.59688"></scales>
<clustering>
<clus scale="   22.597">  1  9  2 -1</clus>
<clus scale="   88.074">  7  8 -1 -1</clus>
<clus scale="   93.877">  5  6 -1 -1</clus>
<clus scale="   95.562">  1  7  2 -1</clus>
<clus scale="   22.597">  1  5  2 -1</clus>
</clustering>
</event>
<event>
 9    1  0.1601012E-005  0.1099216E+03  0.7546771E-02  0.1263867E+00
          1   -1    0    0  502    0 -0.00000000000E+00  0.00000000000E+00  0.72932819543E+03  0.72932819543E+03  0.00000000000E+00 0. -1.
         21   -1    0    0  501  502  0.00000000000E+00 -0.00000000000E+00 -0.21689893952E+02  0.21689893952E+02  0.00000000000E+00 0.  1.
         23    2    1    2    0    0 -0.29563325538E+02 -0.33624476335E+02  0.32800917246E+03  0.34653073090E+03  0.10241549989E+03 0.  0.
         23    2    1    2    0    0 -0.46279051186E+01  0.42215785902E+02  0.28210981044E+03  0.30079132022E+03  0.95319898710E+02 0.  0.
        -11    1    3    3    0    0 -0.22249190725E+02 -0.70089696898E+02  0.19446342475E+03  0.20790289961E+03  0.00000000000E+00 0.  1.
         11    1    3    3    0    0 -0.73141348129E+01  0.36465220563E+02  0.13354574771E+03  0.13862783130E+03  0.00000000000E+00 0. -1.
        -13    1    4    4    0    0  0.42162247485E+02  0.38878282860E+02  0.16144877268E+03  0.17133266528E+03  0.00000000000E+00 0. -1.
         13    1    4    4    0    0 -0.46790152603E+02  0.33375030424E+01  0.12066103775E+03  0.12945865494E+03  0.00000000000E+00 0.  1.
          1    1    1    2  501    0  0.34191230657E+02 -0.85913095671E+01  0.97519318583E+02  0.10369603826E+03  0.00000000000E+00 0. -1.
<scales pt_clust_5="13000.00000" pt_clust_6="13000.00000" pt_clust_7="13000.00000" pt_clust_8="13000.00000" pt_clust_9="35.25409"></scales>
<clustering>
<clus scale="   35.254">  2  9  1 -1</clus>
<clus scale="   95.320">  7  8 -1 -1</clus>
<clus scale="  102.415">  5  6 -1 -1</clus>
<clus scale="  103.343">  2  7  1 -1</clus>
<clus scale="   35.254">  2  5  1 -1</clus>
</clustering>
</event>
<event>
 9    1  0.1601012E-005  0.1507564E+03  0.7546771E-02  0.1199578E+00
         21   -1    0    0  501  502  0.00000000000E+00  0.00000000000E+00  0.17744276226E+03  0.17744276226E+03  0.00000000000E+00 0. -1.
          2   -1    0    0  502    0 -0.00000000000E+00 -0.00000000000E+00 -0.22329636688E+03  0.22329636688E+03  0.00000000000E+00 0. -1.
         23    2    1    2    0    0  0.77588749526E+02 -0.10327837957E+03 -0.92867774067E+02  0.18360085013E+03  0.91642844599E+02 0.  0.
         23    2    1    2    0    0 -0.36920824201E+02  0.10256711463E+03 -0.14645526012E+02  0.14327147936E+03  0.91809940103E+02 0.  0.
        -11    1    4    4    0    0  0.26266834080E+02  0.66831273501E+01  0.22767595361E+01  0.27199161710E+02  0.00000000000E+00 0.  1.
         11    1    4    4    0    0 -0.63187658281E+02  0.95883987278E+02 -0.16922285548E+02  0.11607231765E+03  0.00000000000E+00 0. -1.
        -11    1    3    3    0    0  0.63843906088E+02 -0.12017088059E+03 -0.74654862774E+02  0.15521093203E+03  0.00000000000E+00 0.  1.
         11    1    3    3    0    0  0.13744843438E+02  0.16892501015E+02 -0.18212911292E+02  0.28389918095E+02  0.00000000000E+00 0. -1.
          2    1    1    2  501    0 -0.40667925325E+02  0.71126494542E+00  0.61659695461E+02  0.73866799662E+02  0.00000000000E+00 0. -1.
<scales pt_clust_5="13000.00000" pt_clust_6="13000.00000" pt_clust_7="13000.00000" pt_clust_8="13000.00000" pt_clust_9="40.67414"></scales>
<clustering>
<clus scale="   40.674">  1  9  2 -1</clus>
<clus scale="   91.643">  7  8 -1 -1</clus>
<clus scale="   91.810">  5  6 -1 -1</clus>
<clus scale="  150.655">  2  7  1 -1</clus>
<clus scale="   40.674">  1  5  2 -1</clus>
</clustering>
</event>
<event>
 9    1  0.1601012E-005  0.1384321E+03  0.7546771E-02  0.1215902E+00
         21   -1    0    0  501  502  0.00000000000E+00  0.00000000000E+00  0.23703662560E+03  0.23703662560E+03  0.00000000000E+00 0. -1.
          2   -1    0    0  502    0 -0.00000000000E+00 -0.00000000000E+00 -0.31074626437E+03  0.31074626437E+03  0.00000000000E+00 0. -1.
         23    2    1    2    0    0 -0.81102043458E+02 -0.52135284419E+02 -0.23231358114E+03  0.26840406479E+03  0.93677706419E+02 0.  0.
         23    2    1    2    0    0  0.12950736834E+03  0.69198983049E+02  0.94465729973E+02  0.19723288445E+03  0.91740824392E+02 0.  0.
        -13    1    3    3    0    0 -0.21283822297E+02 -0.68525060206E+02 -0.11136106508E+03  0.13247630650E+03  0.00000000000E+00 0. -1.
         13    1    3    3    0    0 -0.59818221161E+02  0.16389775787E+02 -0.12095251606E+03  0.13592775829E+03  0.00000000000E+00 0.  1.
        -13    1    4    4    0    0  0.53533547834E+02  0.39122719066E+02  0.94599007379E+02  0.11552229260E+03  0.00000000000E+00 0. -1.
         13    1    4    4    0    0  0.75973820506E+02  0.30076263982E+02 -0.13327740623E+00  0.81710591849E+02  0.00000000000E+00 0.  1.
          2    1    1    2  501    0 -0.48405324882E+02 -0.17063698629E+02  0.64138212405E+02  0.82145940729E+02  0.00000000000E+00 0. -1.
<scales pt_clust_5="13000.00000" pt_clust_6="13000.00000" pt_clust_7="13000.00000" pt_clust_8="13000.00000" pt_clust_9="51.32490"></scales>
<clustering>
<clus scale="   51.325">  1  9  2 -1</clus>
<clus scale="   91.741">  7  8 -1 -1</clus>
<clus scale="   93.678">  5  6 -1 -1</clus>
<clus scale="  137.129">  1  7  2 -1</clus>
<clus scale="   51.325">  1  5  2 -1</clus>
</clustering>
</event>
<event>
 9    1  0.1601012E-005  0.1300413E+03  0.7546771E-02  0.1229182E+00
          1   -1    0    0  502    0 -0.00000000000E+00  0.00000000000E+00  0.70272663212E+03  0.70272663212E+03  0.00000000000E+00 0. -1.
         21   -1    0    0  501  502  0.00000000000E+00 -0.00000000000E+00 -0.48458497698E+02  0.48458497698E+02  0.00000000000E+00 0. -1.
         23    2    1    2    0    0  0.62613975617E+02 -0.96444683064E+02  0.41881040728E+03  0.44282327203E+03  0.86418783686E+02 0.  0.
         23    2    1    2    0    0 -0.64673841603E+02  0.11374569129E+02  0.13849788334E+03  0.17935651432E+03  0.93139727981E+02 0.  0.
        -13    1    4    4    0    0 -0.23045137238E+02 -0.33373627775E+02  0.97942028813E+02  0.10600716197E+03  0.00000000000E+00 0. -1.
         13    1    4    4    0    0 -0.41628704365E+02  0.44748196905E+02  0.40555854525E+02  0.73349352346E+02  0.00000000000E+00 0.  1.
        -13    1    3    3    0    0 -0.87479621022E+01 -0.22126461070E+02  0.20511559042E+02  0.31413869147E+02  0.00000000000E+00 0.  1.
         13    1    3    3    0    0  0.71361937719E+02 -0.74318221994E+02  0.39829884824E+03  0.41140940289E+03  0.00000000000E+00 0. -1.
          1    1    1    2  501    0  0.20598659862E+01  0.85070113935E+02  0.96959843806E+02  0.12900534347E+03  0.00000000000E+00 0. -1.
<scales pt_clust_5="13000.00000" pt_clust_6="13000.00000" pt_clust_7="13000.00000" pt_clust_8="13000.00000" pt_clust_9="85.09505"></scales>
<clustering>
<clus scale="   85.095">  2  9  1 -1</clus>
<clus scale="   86.419">  7  8 -1 -1</clus>
<clus scale="   93.140">  5  6 -1 -1</clus>
<clus scale="  125.315">  1  7  2 -1</clus>
<clus scale="   85.095">  2  5  1 -1</clus>
</clustering>
</event>
<event>
 9    1  0.1601012E-005  0.1061004E+03  0.7546771E-02  0.1268003E+00
         21   -1    0    0  501  502  0.00000000000E+00  0.00000000000E+00  0.21780035022E+02  0.21780035022E+02  0.00000000000E+00 0.  1.
          2   -1    0    0  502    0 -0.00000000000E+00 -0.00000000000E+00 -0.82240459754E+03  0.82240459754E+03  0.00000000000E+00 0. -1.
         23    2    1    2    0    0  0.50022589697E+02  0.29447482539E+02 -0.57152097492E+03  0.58180158595E+03  0.92127340843E+02 0.  0.
         23    2    1    2    0    0 -0.40456820102E+02 -0.90633899043E+01 -0.20911441467E+03  0.23227354288E+03  0.92213127981E+02 0.  0.
        -11    1    3    3    0    0 -0.26495305911E+02  0.14702306846E+02 -0.13272710422E+03  0.13614199667E+03  0.00000000000E+00 0. -1.
         11    1    3    3    0    0  0.76517895608E+02  0.14745175693E+02 -0.43879387070E+03  0.44565958928E+03  0.00000000000E+00 0.  1.
        -13    1    4    4    0    0  0.28287785580E+02 -0.12739458551E+02 -0.49123760599E+02  0.58100227819E+02  0.00000000000E+00 0.  1.
         13    1    4    4    0    0 -0.68744605682E+02  0.36760686468E+01 -0.15999065407E+03  0.17417331506E+03  0.00000000000E+00 0. -1.
          2    1    1    2  501    0 -0.95657695953E+01 -0.20384092635E+02 -0.19989172933E+02  0.30109503733E+02  0.00000000000E+00 0. -1.
<scales pt_clust_5="13000.00000" pt_clust_6="13000.00000" pt_clust_7="13000.00000" pt_clust_8="13000.00000" pt_clust_9="22.51700"></scales>
<clustering>
<clus scale="   22.517">  1  9  2 -1</clus>
<clus scale="   92.127">  5  6 -1 -1</clus>
<clus scale="   92.213">  7  8 -1 -1</clus>
<clus scale="  106.026">  2  5  1 -1</clus>
<clus scale="   22.517">  1  5  2 -1</clus>
</clustering>
</event>
<event>
 9    1  0.1601012E-005  0.1400231E+03  0.7546771E-02  0.1234022E+00
         21   -1    0    0  501  502  0.00000000000E+00  0.00000000000E+00  0.32829733036E+03  0.32829733036E+03  0.00000000000E+00 0. -1.
          2   -1    0    0  502    0 -0.00000000000E+00 -0.00000000000E+00 -0.93384303021E+02  0.93384303021E+02  0.00000000000E+00 0.  1.
         23    2    1    2    0    0  0.12453427733E+02  0.39205892134E+01  0.86744584580E+02  0.12561807755E+03  0.89915624738E+02 0.  0.
         23    2    1    2    0    0  0.89206709956E+02 -0.38917528930E+02  0.33427430471E+02  0.13882148358E+03  0.93175104164E+02 0.  0.
        -13    1    3    3    0    0 -0.15614758245E+02 -0.29926989533E+02  0.68812571872E+01  0.34449921307E+02  0.00000000000E+00 0.  1.
         13    1    3    3    0    0  0.28068185978E+02  0.33847578747E+02  0.79863327393E+02  0.91168156246E+02  0.00000000000E+00 0. -1.
        -13    1    4    4    0    0  0.86626622580E+02  0.59682231294E+01  0.35512616281E+02  0.93813311114E+02  0.00000000000E+00 0. -1.
         13    1    4    4    0    0  0.25800873753E+01 -0.44885752059E+02 -0.20851858097E+01  0.45008172465E+02  0.00000000000E+00 0.  1.
          2    1    1    2  501    0 -0.10166013769E+03  0.34996939716E+02  0.11474101229E+03  0.15724207225E+03  0.00000000000E+00 0.  1.
<scales pt_clust_5="13000.00000" pt_clust_6="13000.00000" pt_clust_7="13000.00000" pt_clust_8="13000.00000" pt_clust_9="104.52209"></scales>
<clustering>
<clus scale="   89.916">  5  6 -1 -1</clus>
<clus scale="   90.859">  2  5  1 -1</clus>
<clus scale="   93.175">  7  8 -1 -1</clus>
<clus scale="  104.522">  1  9  2 -1</clus>
<clus scale="  104.522">  1  5  2 -1</clus>
</clustering>
</event>
<event>
 9    1  0.1601012E-005  0.1062551E+03  0.7546771E-02  0.1267853E+00
          2   -1    0    0  502    0 -0.00000000000E+00  0.00000000000E+00  0.27492217317E+03  0.27492217317E+03  0.00000000000E+00 0. -1.
         21   -1    0    0  501  502  0.00000000000E+00 -0.00000000000E+00 -0.53938775043E+02  0.53938775043E+02  0.00000000000E+00 0.  1.
         23    2    1    2    0    0 -0.36504988400E+02 -0.46613584815E+02  0.14122963574E+03  0.17786485205E+03  0.90469083757E+02 0.  0.
         23    2    1    2    0    0  0.44334698009E+02  0.24528153534E+02  0.58705205946E+02  0.11949828107E+03  0.90919427022E+02 0.  0.
        -11    1    3    3    0    0  0.27835352666E+02 -0.26227521931E+02  0.34058151258E+02  0.51211789969E+02  0.00000000000E+00 0.  1.
         11    1    3    3    0    0 -0.64340341066E+02 -0.20386062884E+02  0.10717148448E+03  0.12665306208E+03  0.00000000000E+00 0. -1.
        -11    1    4    4    0    0  0.71225961145E+02  0.63597053821E+01  0.43028101297E+02  0.83456580895E+02  0.00000000000E+00 0.  1.
         11    1    4    4    0    0 -0.26891263135E+02  0.18168448152E+02  0.15677104650E+02  0.36041700174E+02  0.00000000000E+00 0. -1.
          2    1    1    2  501    0 -0.78297096095E+01  0.22085431281E+02  0.21048556440E+02  0.31497815093E+02  0.00000000000E+00 0. -1.
<scales pt_clust_5="13000.00000" pt_clust_6="13000.00000" pt_clust_7="13000.00000" pt_clust_8="13000.00000" pt_clust_9="23.43226"></scales>
<clustering>
<clus scale="   23.432">  2  9  1 -1</clus>
<clus scale="   90.469">  5  6 -1 -1</clus>
<clus scale="   90.919">  7  8 -1 -1</clus>
<clus scale="  105.870">  1  5  2 -1</clus>
<clus scale="   23.432">  2  5  1 -1</clus>
</clustering>
</event>
<event>
 9    1  0.1601012E-005  0.9356050E+02  0.7546771E-02  0.1295354E+00
         21   -1    0    0  501  502  0.00000000000E+00  0.00000000000E+00  0.76188504309E+02  0.76188504309E+02  0.00000000000E+00 0.  1.
          4   -1    0    0  502    0 -0.00000000000E+00 -0.00000000000E+00 -0.32625917073E+03  0.32625917073E+03  0.00000000000E+00 0. -1.
         23    2    1    2    0    0  0.22722321699E+02  0.64753332090E+01 -0.26352772753E+03  0.27969430175E+03  0.90685199534E+02 0.  0.
         23    2    1    2    0    0 -0.11003370646E+02 -0.26724740299E+02 -0.37285311454E+01  0.93723786959E+02  0.89078394619E+02 0.  0.
        -11    1    3    3    0    0 -0.91187909604E+01  0.43301166791E+02 -0.14355850611E+03  0.15022379329E+03  0.00000000000E+00 0. -1.
         11    1    3    3    0    0  0.31841112659E+02 -0.36825833582E+02 -0.11996922142E+03  0.12947050846E+03  0.00000000000E+00 0.  1.
        -11    1    4    4    0    0 -0.73708549215E+01  0.32016678047E+02  0.77627331044E+01  0.33758809231E+02  0.00000000000E+00 0. -1.
         11    1    4    4    0    0 -0.36325157244E+01 -0.58741418347E+02 -0.11491264250E+02  0.59964977728E+02  0.00000000000E+00 0.  1.
          4    1    1    2  501    0 -0.11718951053E+02  0.20249407090E+02  0.17185592250E+02  0.29029586326E+02  0.00000000000E+00 0. -1.
<scales pt_clust_5="13000.00000" pt_clust_6="13000.00000" pt_clust_7="13000.00000" pt_clust_8="13000.00000" pt_clust_9="23.39599"></scales>
<clustering>
<clus scale="   23.396">  1  9  2 -1</clus>
<clus scale="   89.078">  7  8 -1 -1</clus>
<clus scale="   90.685">  5  6 -1 -1</clus>
<clus scale="   92.004">  1  7  2 -1</clus>
<clus scale="   23.396">  1  5  2 -1</clus>
</clustering>
</event>
<event>
 9    1  0.1601012E-005  0.1118564E+03  0.7546771E-02  0.1258287E+00
         21   -1    0    0  501  502  0.00000000000E+00  0.00000000000E+00  0.22347796592E+03  0.22347796592E+03  0.00000000000E+00 0.  1.
          3   -1    0    0  502    0 -0.00000000000E+00 -0.00000000000E+00 -0.73973076042E+02  0.73973076042E+02  0.00000000000E+00 0. -1.
         23    2    1    2    0    0  0.64173211011E+02  0.53493327351E+01  0.24448178616E+02  0.11240503337E+03  0.88827708045E+02 0.  0.
         23    2    1    2    0    0 -0.59943157709E+02 -0.25331617170E+02  0.88487925067E+02  0.14315972007E+03  0.91813504367E+02 0.  0.
        -11    1    3    3    0    0  0.62388864706E+02 -0.33335120373E+02  0.12138432585E+02  0.71770065035E+02  0.00000000000E+00 0. -1.
         11    1    3    3    0    0  0.17843463058E+01  0.38684453108E+02  0.12309746031E+02  0.40634968333E+02  0.00000000000E+00 0.  1.
        -11    1    4    4    0    0 -0.81277804480E+02 -0.24777404497E+02  0.48512547144E+02  0.97844103067E+02  0.00000000000E+00 0.  1.
         11    1    4    4    0    0  0.21334646771E+02 -0.55421267342E+00  0.39975377923E+02  0.45315617006E+02  0.00000000000E+00 0. -1.
          3    1    1    2  501    0 -0.42300533028E+01  0.19982284435E+02  0.36568786191E+02  0.41886288516E+02  0.00000000000E+00 0. -1.
<scales pt_clust_5="13000.00000" pt_clust_6="13000.00000" pt_clust_7="13000.00000" pt_clust_8="13000.00000" pt_clust_9="20.42511"></scales>
<clustering>
<clus scale="   20.425">  1  9  2 -1</clus>
<clus scale="   88.828">  5  6 -1 -1</clus>
<clus scale="   91.814">  7  8 -1 -1</clus>
<clus scale="  109.419">  2  5  1 -1</clus>
<clus scale="   20.425">  1  5  2 -1</clus>
</clustering>
</event>
<event>
 9    1  0.1601012E-005  0.1035869E+03  0.7546771E-02  0.1273465E+00
          3   -1    0    0  502    0 -0.00000000000E+00  0.00000000000E+00  0.88396647046E+02  0.88396647046E+02  0.00000000000E+00 0. -1.
         21   -1    0    0  501  502  0.00000000000E+00 -0.00000000000E+00 -0.26298232212E+03  0.26298232212E+03  0.00000000000E+00 0.  1.
         23    2    1    2    0    0 -0.38730609954E+02  0.70506068740E+01  0.23682229592E+02  0.10437958460E+03  0.93725548694E+02 0.  0.
         23    2    1    2    0    0  0.60528172091E+02  0.30927126856E+00 -0.11074795738E+03  0.15650605501E+03  0.92548797537E+02 0.  0.
        -11    1    4    4    0    0  0.72086572404E+02 -0.27004056606E+02 -0.59493050529E+02  0.97288828009E+02  0.00000000000E+00 0.  1.
         11    1    4    4    0    0 -0.11558400312E+02  0.27313327874E+02 -0.51254906854E+02  0.59217227003E+02  0.00000000000E+00 0. -1.
        -13    1    3    3    0    0 -0.33318537693E+02  0.38930583144E+02  0.42843352167E+02  0.66792724775E+02  0.00000000000E+00 0. -1.
         13    1    3    3    0    0 -0.54120722609E+01 -0.31879976270E+02 -0.19161122575E+02  0.37586859825E+02  0.00000000000E+00 0.  1.
          3    1    1    2  501    0 -0.21797562137E+02 -0.73598781425E+01 -0.87519947280E+02  0.90493329551E+02  0.00000000000E+00 0. -1.
<scales pt_clust_5="13000.00000" pt_clust_6="13000.00000" pt_clust_7="13000.00000" pt_clust_8="13000.00000" pt_clust_9="23.00655"></scales>
<clustering>
<clus scale="   23.007">  2  9  1 -1</clus>
<clus scale="   92.549">  5  6 -1 -1</clus>
<clus scale="   93.726">  7  8 -1 -1</clus>
<clus scale="  102.523">  2  5  1 -1</clus>
<clus scale="   23.007">  2  5  1 -1</clus>
</clustering>
</event>
<event>
 9    1  0.1601012E-005  0.1063443E+03  0.7546771E-02  0.1269396E+00
         21   -1    0    0  501  502  0.00000000000E+00  0.00000000000E+00  0.14356817061E+03  0.14356817061E+03  0.00000000000E+00 0.  1.
         -1   -1    0    0    0  501 -0.00000000000E+00 -0.00000000000E+00 -0.14038309482E+03  0.14038309482E+03  0.00000000000E+00 0.  1.
         23    2    1    2    0    0  0.62457011176E+02 -0.18193109707E+02 -0.68520656226E+02  0.13219118197E+03  0.92453019289E+02 0.  0.
         23    2    1    2    0    0 -0.23379977588E+02  0.99618235941E+00  0.48345871311E+02  0.10309354509E+03  0.87996250121E+02 0.  0.
        -11    1    3    3    0    0  0.71792650729E+02  0.57696441769E+01 -0.76689262184E+02  0.10520796751E+03  0.00000000000E+00 0.  1.
         11    1    3    3    0    0 -0.93356395526E+01 -0.23962753884E+02  0.81686059582E+01  0.26983214465E+02  0.00000000000E+00 0. -1.
        -11    1    4    4    0    0  0.18475137966E+02 -0.14139855660E+02  0.53450145500E+02  0.58293947326E+02  0.00000000000E+00 0.  1.
         11    1    4    4    0    0 -0.41855115553E+02  0.15136038020E+02 -0.51042741888E+01  0.44799597765E+02  0.00000000000E+00 0. -1.
         -1    1    1    2    0  502 -0.39077033588E+02  0.17196927348E+02  0.23359860708E+02  0.48666538366E+02  0.00000000000E+00 0.  1.
<scales pt_clust_5="13000.00000" pt_clust_6="13000.00000" pt_clust_7="13000.00000" pt_clust_8="13000.00000" pt_clust_9="42.69366"></scales>
<clustering>
<clus scale="   42.694">  1  9  2 -1</clus>
<clus scale="   87.996">  7  8 -1 -1</clus>
<clus scale="   92.453">  5  6 -1 -1</clus>
<clus scale="  102.493">  1  7  2 -1</clus>
<clus scale="   42.694">  1  5  2 -1</clus>
</clustering>
</event>
<event>
 9    1  0.1601012E-005  0.1185715E+03  0.7546771E-02  0.1248500E+00
          1   -1    0    0  502    0 -0.00000000000E+00  0.00000000000E+00  0.75835136510E+03  0.75835136510E+03  0.00000000000E+00 0. -1.
         21   -1    0    0  501  502  0.00000000000E+00 -0.00000000000E+00 -0.47177460305E+02  0.47177460305E+02  0.00000000000E+00 0. -1.
         23    2    1    2    0    0  0.22196303804E+02 -0.59456533633E+02  0.48163956972E+03  0.49579127657E+03  0.99017975702E+02 0.  0.
         23    2    1    2    0    0 -0.58021658015E+02  0.56604991598E+02  0.58307212152E+02  0.13477951123E+03  0.90527055549E+02 0.  0.
        -11    1    3    3    0    0  0.50959921390E+02 -0.50437062531E+01  0.15031157253E+03  0.15879521843E+03  0.00000000000E+00 0.  1.
         11    1    3    3    0    0 -0.28763617586E+02 -0.54412827379E+02  0.33132799718E+03  0.33699605813E+03  0.00000000000E+00 0. -1.
        -11    1    4    4    0    0 -0.38647036253E+02  0.62477581307E+02  0.43231273415E+00  0.73465832000E+02  0.00000000000E+00 0. -1.
         11    1    4    4    0    0 -0.19374621762E+02 -0.58725897093E+01  0.57874899418E+02  0.61313679231E+02  0.00000000000E+00 0.  1.
          1    1    1    2  501    0  0.35825354211E+02  0.28515420345E+01  0.17122712293E+03  0.17495803761E+03  0.00000000000E+00 0. -1.
<scales pt_clust_5="13000.00000" pt_clust_6="13000.00000" pt_clust_7="13000.00000" pt_clust_8="13000.00000" pt_clust_9="35.93868"></scales>
<clustering>
<clus scale="   35.939">  2  9  1 -1</clus>
<clus scale="   90.527">  7  8 -1 -1</clus>
<clus scale="   99.018">  5  6 -1 -1</clus>
<clus scale="  111.579">  2  7  1 -1</clus>
<clus scale="   35.939">  2  5  1 -1</clus>
</clustering>
</event>
<event>
 9    1  0.1601012E-005  0.1203921E+03  0.7546771E-02  0.1242730E+00
         21   -1    0    0  501  502  0.00000000000E+00  0.00000000000E+00  0.59404728470E+03  0.59404728470E+03  0.00000000000E+00 0. -1.
          3   -1    0    0  502    0 -0.00000000000E+00 -0.00000000000E+00 -0.55185497089E+02  0.55185497089E+02  0.00000000000E+00 0. -1.
         23    2    1    2    0    0 -0.61637150291E+02  0.57421020408E+02  0.39427974516E+02  0.12978796114E+03  0.90520924667E+02 0.  0.
         23    2    1    2    0    0  0.26533872360E+02 -0.46643691361E+02  0.37779598701E+03  0.39238518237E+03  0.91414677267E+02 0.  0.
        -11    1    4    4    0    0  0.52635428874E+02 -0.43037605750E+02  0.33720905733E+03  0.34399516309E+03  0.00000000000E+00 0.  1.
         11    1    4    4    0    0 -0.26101556513E+02 -0.36060856114E+01  0.40586929681E+02  0.48390019289E+02  0.00000000000E+00 0. -1.
        -13    1    3    3    0    0  0.21587984332E+02  0.26006621197E+02  0.17972308605E+02  0.38280403475E+02  0.00000000000E+00 0.  1.
         13    1    3    3    0    0 -0.83225134623E+02  0.31414399211E+02  0.21455665911E+02  0.91507557669E+02  0.00000000000E+00 0. -1.
          3    1    1    2  501    0  0.35103277931E+02 -0.10777329047E+02  0.12163782609E+03  0.12705963827E+03  0.00000000000E+00 0. -1.
<scales pt_clust_5="13000.00000" pt_clust_6="13000.00000" pt_clust_7="13000.00000" pt_clust_8="13000.00000" pt_clust_9="36.72044"></scales>
<clustering>
<clus scale="   36.720">  1  9  2 -1</clus>
<clus scale="   90.521">  7  8 -1 -1</clus>
<clus scale="   91.415">  5  6 -1 -1</clus>
<clus scale="  119.715">  2  7  1 -1</clus>
<clus scale="   36.720">  1  5  2 -1</clus>
</clustering>
</event>
<event>
 9    1  0.2616611E-005  0.5055580E+03  0.7546771E-02  0.1035494E+00
          1   -1    0    0  502    0 -0.00000000000E+00  0.00000000000E+00  0.50631449214E+03  0.50631449214E+03  0.00000000000E+00 0. -1.
         21   -1    0    0  501  502  0.00000000000E+00 -0.00000000000E+00 -0.10172556038E+04  0.10172556038E+04  0.00000000000E+00 0. -1.
         23    2    1    2    0    0 -0.13077059496E+03  0.19321507265E+03 -0.22562091038E+03  0.33837099990E+03  0.95692871030E+02 0.  0.
         23    2    1    2    0    0  0.43717605037E+03 -0.50321337250E+03 -0.15412906565E+02  0.67252649412E+03  0.87793680445E+02 0.  0.
        -11    1    3    3    0    0 -0.76579055875E+02  0.36268200021E+02 -0.59797638638E+02  0.10370868680E+03  0.00000000000E+00 0.  1.
         11    1    3    3    0    0 -0.54191539087E+02  0.15694687263E+03 -0.16582327174E+03  0.23466231310E+03  0.00000000000E+00 0. -1.
        -11    1    4    4    0    0  0.38673491834E+03 -0.45022943047E+03  0.13978421735E+02  0.59368833018E+03  0.00000000000E+00 0. -1.
         11    1    4    4    0    0  0.50441132039E+02 -0.52983942032E+02 -0.29391328299E+02  0.78838163942E+02  0.00000000000E+00 0.  1.
          1    1    1    2  501    0 -0.30640545541E+03  0.30999829984E+03 -0.26990729469E+03  0.51267260190E+03  0.00000000000E+00 0. -1.
<scales pt_clust_5="13000.00000" pt_clust_6="13000.00000" pt_clust_7="13000.00000" pt_clust_8="13000.00000" pt_clust_9="497.87662"></scales>
<clustering>
<clus scale="   87.794">  7  8 -1 -1</clus>
<clus scale="   95.693">  5  6 -1 -1</clus>
<clus scale="  252.171">  1  5  2 -1</clus>
<clus scale="  497.877">  2  9  1 -1</clus>
<clus scale="  497.877">  2  5  1 -1</clus>
</clustering>
</event>
<event>
 9    1  0.1601012E-005  0.1219046E+03  0.7546771E-02  0.1240553E+00
          1   -1    0    0  502    0 -0.00000000000E+00  0.00000000000E+00  0.52273205223E+02  0.52273205223E+02  0.00000000000E+00 0. -1.
         21   -1    0    0  501  502  0.00000000000E+00 -0.00000000000E+00 -0.55136905623E+03  0.55136905623E+03  0.00000000000E+00 0.  1.
         23    2    1    2    0    0 -0.87720522482E+01 -0.90957462300E+02 -0.93534568757E+02  0.15949841928E+03  0.91328097267E+02 0.  0.
         23    2    1    2    0    0  0.39418783853E+02  0.52503610424E+02 -0.17820733655E+03  0.21153314271E+03  0.93155493856E+02 0.  0.
        -11    1    3    3    0    0 -0.22740172732E+02 -0.14944240177E+02 -0.75334704237E+02  0.80098460865E+02  0.00000000000E+00 0.  1.
         11    1    3    3    0    0  0.13968120484E+02 -0.76013222123E+02 -0.18199864520E+02  0.79399958412E+02  0.00000000000E+00 0. -1.
        -11    1    4    4    0    0 -0.24388006215E+02  0.34383347551E+02 -0.39439282694E+02  0.57727345819E+02  0.00000000000E+00 0.  1.
         11    1    4    4    0    0  0.63806790067E+02  0.18120262873E+02 -0.13876805386E+03  0.15380579689E+03  0.00000000000E+00 0. -1.
          1    1    1    2  501    0 -0.30646731605E+02  0.38453851876E+02 -0.22735394570E+03  0.23261069947E+03  0.00000000000E+00 0. -1.
<scales pt_clust_5="13000.00000" pt_clust_6="13000.00000" pt_clust_7="13000.00000" pt_clust_8="13000.00000" pt_clust_9="49.17236"></scales>
<clustering>
<clus scale="   49.172">  2  9  1 -1</clus>
<clus scale="   91.328">  5  6 -1 -1</clus>
<clus scale="   93.155">  7  8 -1 -1</clus>
<clus scale="  120.514">  1  5  2 -1</clus>
<clus scale="   49.172">  2  5  1 -1</clus>
</clustering>
</event>
<event>
 9    1  0.2001994E-005  0.1135311E+03  0.7546771E-02  0.1259095E+00
         21   -1    0    0  501  502  0.00000000000E+00  0.00000000000E+00  0.14258213171E+03  0.14258213171E+03  0.00000000000E+00 0. -1.
          3   -1    0    0  502    0 -0.00000000000E+00 -0.00000000000E+00 -0.54757473740E+03  0.54757473740E+03  0.00000000000E+00 0. -1.
         23    2    1    2    0    0  0.27776148863E+02 -0.12772585540E+02 -0.27929223387E+03  0.29536928104E+03  0.91127421224E+02 0.  0.
         23    2    1    2    0    0 -0.10290855354E+03 -0.21017310365E+02 -0.22311867531E+03  0.26720639371E+03  0.10288545009E+03 0.  0.
        -11    1    3    3    0    0  0.55596007616E+02  0.13801138915E+02 -0.15429017191E+03  0.16458081494E+03  0.00000000000E+00 0. -1.
         11    1    3    3    0    0 -0.27819858753E+02 -0.26573724454E+02 -0.12500206196E+03  0.13078846610E+03  0.00000000000E+00 0.  1.
        -13    1    4    4    0    0  0.19869798142E+02 -0.54943976003E+01 -0.16694978693E+02  0.26527713749E+02  0.00000000000E+00 0.  1.
         13    1    4    4    0    0 -0.12277835168E+03 -0.15522912765E+02 -0.20642369662E+03  0.24067867996E+03  0.00000000000E+00 0. -1.
          3    1    1    2  501    0  0.75132404673E+02  0.33789895905E+02  0.97418303490E+02  0.12758119435E+03  0.00000000000E+00 0. -1.
<scales pt_clust_5="13000.00000" pt_clust_6="13000.00000" pt_clust_7="13000.00000" pt_clust_8="13000.00000" pt_clust_9="82.38104"></scales>
<clustering>
<clus scale="   82.381">  1  9  2 -1</clus>
<clus scale="   91.127">  5  6 -1 -1</clus>
<clus scale="  102.885">  7  8 -1 -1</clus>
<clus scale="  102.996">  2  5  1 -1</clus>
<clus scale="   82.381">  1  5  2 -1</clus>
</clustering>
</event>
<event>
 9    1  0.1601012E-005  0.1168205E+03  0.7546771E-02  0.1259746E+00
         21   -1    0    0  501  502  0.00000000000E+00  0.00000000000E+00  0.17442468595E+03  0.17442468595E+03  0.00000000000E+00 0. -1.
          1   -1    0    0  502    0 -0.00000000000E+00 -0.00000000000E+00 -0.22629603512E+03  0.22629603512E+03  0.00000000000E+00 0. -1.
         23    2    1    2    0    0 -0.91476259725E+01  0.17398830786E+02 -0.12848498892E+03  0.17411622149E+03  0.11585192202E+03 0.  0.
         23    2    1    2    0    0  0.24317618582E+02  0.55752533342E+02 -0.11611857198E+02  0.11099745367E+03  0.92118987981E+02 0.  0.
        -13    1    4    4    0    0  0.47875959914E+02  0.46238533147E+01  0.12592027230E+02  0.49719681283E+02  0.00000000000E+00 0.  1.
         13    1    4    4    0    0 -0.23558341331E+02  0.51128680028E+02 -0.24203884428E+02  0.61277772390E+02  0.00000000000E+00 0. -1.
        -13    1    3    3    0    0  0.27548085689E+02  0.51125216667E+02 -0.34009772839E+02  0.67300441699E+02  0.00000000000E+00 0.  1.
         13    1    3    3    0    0 -0.36695711662E+02 -0.33726385881E+02 -0.94475216082E+02  0.10681577979E+03  0.00000000000E+00 0. -1.
          1    1    1    2  501    0 -0.15169992610E+02 -0.73151364129E+02  0.88225496948E+02  0.11560704590E+03  0.00000000000E+00 0. -1.
<scales pt_clust_5="13000.00000" pt_clust_6="13000.00000" pt_clust_7="13000.00000" pt_clust_8="13000.00000" pt_clust_9="74.70777"></scales>
<clustering>
<clus scale="   74.708">  1  9  2 -1</clus>
<clus scale="   92.119">  5  6 -1 -1</clus>
<clus scale="   93.334">  1  5  2 -1</clus>
<clus scale="  115.852">  7  8 -1 -1</clus>
<clus scale="   74.708">  1  5  2 -1</clus>
</clustering>
</event>
<event>
 9    1  0.1601012E-005  0.1972558E+03  0.7546771E-02  0.1152090E+00
          2   -1    0    0  502    0 -0.00000000000E+00  0.00000000000E+00  0.16183349605E+04  0.16183349605E+04  0.00000000000E+00 0. -1.
         21   -1    0    0  501  502  0.00000000000E+00 -0.00000000000E+00 -0.75883768285E+02  0.75883768285E+02  0.00000000000E+00 0. -1.
         23    2    1    2    0    0  0.56242739316E+02 -0.17748728153E+03  0.10455844590E+04  0.10659542722E+04  0.91360104590E+02 0.  0.
         23    2    1    2    0    0 -0.19356507784E+02  0.15838031512E+03  0.53877292567E+03  0.56925768412E+03  0.91208809272E+02 0.  0.
        -13    1    4    4    0    0  0.65991946954E+01  0.15702430423E+03  0.47753339434E+03  0.50273086657E+03  0.00000000000E+00 0. -1.
         13    1    4    4    0    0 -0.25955702479E+02  0.13560108882E+01  0.61239531326E+02  0.66526817553E+02  0.00000000000E+00 0.  1.
        -13    1    3    3    0    0 -0.41458475011E+01 -0.12855960380E+03  0.59868527606E+03  0.61234697644E+03  0.00000000000E+00 0.  1.
         13    1    3    3    0    0  0.60388586817E+02 -0.48927677722E+02  0.44689918291E+03  0.45360729574E+03  0.00000000000E+00 0. -1.
          2    1    1    2  501    0 -0.36886231533E+02  0.19106966405E+02 -0.41906192390E+02  0.59006772514E+02  0.00000000000E+00 0. -1.
<scales pt_clust_5="13000.00000" pt_clust_6="13000.00000" pt_clust_7="13000.00000" pt_clust_8="13000.00000" pt_clust_9="41.54119"></scales>
<clustering>
<clus scale="   41.541">  2  9  1 -1</clus>
<clus scale="   91.209">  5  6 -1 -1</clus>
<clus scale="   91.360">  7  8 -1 -1</clus>
<clus scale="  197.186">  2  5  1 -1</clus>
<clus scale="   41.541">  2  5  1 -1</clus>
</clustering>
</event>
<event>
 9    1  0.1601012E-005  0.1353415E+03  0.7546771E-02  0.1219826E+00
          2   -1    0    0  502    0 -0.00000000000E+00  0.00000000000E+00  0.99026506521E+03  0.99026506521E+03  0.00000000000E+00 0. -1.
         21   -1    0    0  501  502  0.00000000000E+00 -0.00000000000E+00 -0.37955456673E+02  0.37955456673E+02  0.00000000000E+00 0. -1.
         23    2    1    2    0    0 -0.43426996916E+02 -0.73396453345E+02  0.49761218500E+03  0.51291380265E+03  0.90497175997E+02 0.  0.
         23    2    1    2    0    0  0.57929089582E+02  0.13751887742E+03  0.29581158688E+03  0.34335700259E+03  0.90123888253E+02 0.  0.
        -13    1    3    3    0    0 -0.18110268388E+02  0.19438040397E+02  0.14469078620E+03  0.14710962867E+03  0.00000000000E+00 0. -1.
         13    1    3    3    0    0 -0.25316728528E+02 -0.92834493742E+02  0.35292139880E+03  0.36580417398E+03  0.00000000000E+00 0.  1.
        -13    1    4    4    0    0  0.63401638631E+02  0.89288945897E+02  0.26266705385E+03  0.28458085814E+03  0.00000000000E+00 0. -1.
         13    1    4    4    0    0 -0.54725490492E+01  0.48229931522E+02  0.33144533030E+02  0.58776144459E+02  0.00000000000E+00 0.  1.
          2    1    1    2  501    0 -0.14502092666E+02 -0.64122424074E+02  0.15888583666E+03  0.17194971664E+03  0.00000000000E+00 0. -1.
<scales pt_clust_5="13000.00000" pt_clust_6="13000.00000" pt_clust_7="13000.00000" pt_clust_8="13000.00000" pt_clust_9="65.74189"></scales>
<clustering>
<clus scale="   65.742">  2  9  1 -1</clus>
<clus scale="   90.124">  7  8 -1 -1</clus>
<clus scale="   90.497">  5  6 -1 -1</clus>
<clus scale="  135.092">  2  7  1 -1</clus>
<clus scale="   65.742">  2  5  1 -1</clus>
</clustering>
</event>
<event>
 9    1  0.1601012E-005  0.1932044E+03  0.7546771E-02  0.1155711E+00
         21   -1    0    0  501  502  0.00000000000E+00  0.00000000000E+00  0.80895377151E+02  0.80895377151E+02  0.00000000000E+00 0. -1.
         -2   -1    0    0    0  501 -0.00000000000E+00 -0.00000000000E+00 -0.65488968944E+03  0.65488968944E+03  0.00000000000E+00 0.  1.
         23    2    1    2    0    0 -0.13941478243E+03 -0.11276461391E+03 -0.30217545533E+03  0.36285343936E+03  0.90555358433E+02 0.  0.
         23    2    1    2    0    0  0.81237380921E+02  0.14369524893E+03 -0.18940570583E+03  0.26741744947E+03  0.91595492545E+02 0.  0.
        -11    1    3    3    0    0 -0.12349365484E+03 -0.78467410509E+02 -0.16484543668E+03  0.22041287460E+03  0.00000000000E+00 0. -1.
         11    1    3    3    0    0 -0.15921127592E+02 -0.34297203403E+02 -0.13733001866E+03  0.14244056476E+03  0.00000000000E+00 0.  1.
        -13    1    4    4    0    0 -0.12027517419E+02  0.16501957265E+02  0.66260769127E+00  0.20430732189E+02  0.00000000000E+00 0. -1.
         13    1    4    4    0    0  0.93264898340E+02  0.12719329167E+03 -0.19006831352E+03  0.24698671728E+03  0.00000000000E+00 0.  1.
         -2    1    1    2    0  502  0.58177401511E+02 -0.30930635022E+02 -0.82413151123E+02  0.10551417776E+03  0.00000000000E+00 0.  1.
<scales pt_clust_5="13000.00000" pt_clust_6="13000.00000" pt_clust_7="13000.00000" pt_clust_8="13000.00000" pt_clust_9="65.88868"></scales>
<clustering>
<clus scale="   65.889">  1  9  2 -1</clus>
<clus scale="   90.555">  5  6 -1 -1</clus>
<clus scale="   91.595">  7  8 -1 -1</clus>
<clus scale="  192.713">  2  5  1 -1</clus>
<clus scale="   65.889">  1  5  2 -1</clus>
</clustering>
</event>
<event>
 9    1  0.1601012E-005  0.1153168E+03  0.7546771E-02  0.1251503E+00
         21   -1    0    0  501  502  0.00000000000E+00  0.00000000000E+00  0.41635312002E+02  0.41635312002E+02  0.00000000000E+00 0. -1.
          2   -1    0    0  502    0 -0.00000000000E+00 -0.00000000000E+00 -0.50507795193E+03  0.50507795193E+03  0.00000000000E+00 0. -1.
         23    2    1    2    0    0  0.55205240059E+02  0.65782286444E+02 -0.27466382460E+03  0.30133493368E+03  0.89373362776E+02 0.  0.
         23    2    1    2    0    0 -0.79885381612E+01 -0.61607003180E+02 -0.14675856976E+03  0.18203363066E+03  0.87971161811E+02 0.  0.
        -11    1    3    3    0    0 -0.21157819208E+02 -0.21489168209E+01 -0.57958516990E+02  0.61737029802E+02  0.00000000000E+00 0.  1.
         11    1    3    3    0    0  0.76363059267E+02  0.67931203265E+02 -0.21670530761E+03  0.23959790388E+03  0.00000000000E+00 0. -1.
        -13    1    4    4    0    0 -0.37415404314E+02 -0.12229115621E+02 -0.23031728662E+02  0.45606186795E+02  0.00000000000E+00 0.  1.
         13    1    4    4    0    0  0.29426866153E+02 -0.49377887559E+02 -0.12372684110E+03  0.13642744386E+03  0.00000000000E+00 0. -1.
          2    1    1    2  501    0 -0.47216701898E+02 -0.41752832641E+01 -0.42020245569E+02  0.63344699590E+02  0.00000000000E+00 0. -1.
<scales pt_clust_5="13000.00000" pt_clust_6="13000.00000" pt_clust_7="13000.00000" pt_clust_8="13000.00000" pt_clust_9="47.40095"></scales>
<clustering>
<clus scale="   47.401">  1  9  2 -1</clus>
<clus scale="   87.971">  7  8 -1 -1</clus>
<clus scale="   89.373">  5  6 -1 -1</clus>
<clus scale="  114.233">  1  7  2 -1</clus>
<clus scale="   47.401">  1  5  2 -1</clus>
</clustering>
</event>
<event>
 9    1  0.1601012E-005  0.1016522E+03  0.7546771E-02  0.1277154E+00
         -1   -1    0    0    0  501 -0.00000000000E+00  0.00000000000E+00  0.38472475507E+03  0.38472475507E+03  0.00000000000E+00 0.  1.
         21   -1    0    0  501  502  0.00000000000E+00 -0.00000000000E+00 -0.11587763849E+03  0.11587763849E+03  0.00000000000E+00 0. -1.
         23    2    1    2    0    0 -0.42374988329E+01 -0.46524866884E+02  0.30643989633E+03  0.32288080409E+03  0.90355320561E+02 0.  0.
         23    2    1    2    0    0 -0.45520318349E+02  0.47106381403E+02 -0.56329603583E+02  0.12454972570E+03  0.89713429206E+02 0.  0.
        -11    1    3    3    0    0 -0.37082663680E+02 -0.44085690043E+02  0.11493207370E+03  0.12856147781E+03  0.00000000000E+00 0.  1.
         11    1    3    3    0    0  0.32845164847E+02 -0.24391768406E+01  0.19150782264E+03  0.19431932629E+03  0.00000000000E+00 0. -1.
        -11    1    4    4    0    0  0.16748444204E+02 -0.14032011489E+02 -0.24396088845E+01  0.21985436571E+02  0.00000000000E+00 0.  1.
         11    1    4    4    0    0 -0.62268762553E+02  0.61138392892E+02 -0.53889994698E+02  0.10256428913E+03  0.00000000000E+00 0. -1.
         -1    1    1    2    0  502  0.49757817182E+02 -0.58151451902E+00  0.18736823831E+02  0.53171863773E+02  0.00000000000E+00 0.  1.
<scales pt_clust_5="13000.00000" pt_clust_6="13000.00000" pt_clust_7="13000.00000" pt_clust_8="13000.00000" pt_clust_9="49.76122"></scales>
<clustering>
<clus scale="   49.761">  2  9  1 -1</clus>
<clus scale="   89.713">  7  8 -1 -1</clus>
<clus scale="   90.355">  5  6 -1 -1</clus>
<clus scale="  101.082">  2  7  1 -1</clus>
<clus scale="   49.761">  2  5  1 -1</clus>
</clustering>
</event>
<event>
 9    1  0.1601012E-005  0.2634323E+03  0.7546771E-02  0.1105102E+00
         21   -1    0    0  501  502  0.00000000000E+00  0.00000000000E+00  0.10170351667E+04  0.10170351667E+04  0.00000000000E+00 0. -1.
         -2   -1    0    0    0  501 -0.00000000000E+00 -0.00000000000E+00 -0.42669578556E+03  0.42669578556E+03  0.00000000000E+00 0.  1.
         23    2    1    2    0    0  0.24217864740E+03 -0.41726969437E+02 -0.35017779403E+03  0.43689286225E+03  0.88652402191E+02 0.  0.
         23    2    1    2    0    0 -0.28667072413E+03  0.28461724414E+02  0.70391162096E+03  0.76572048406E+03  0.88578303023E+02 0.  0.
        -11    1    4    4    0    0 -0.58053744555E+02 -0.29709113640E+02  0.16628884449E+03  0.17861928365E+03  0.00000000000E+00 0.  1.
         11    1    4    4    0    0 -0.22861697957E+03  0.58170838054E+02  0.53762277646E+03  0.58710120041E+03  0.00000000000E+00 0. -1.
        -11    1    3    3    0    0  0.18525015131E+03 -0.60880322490E+02 -0.22291190600E+03  0.29616507232E+03  0.00000000000E+00 0.  1.
         11    1    3    3    0    0  0.56928496087E+02  0.19153353054E+02 -0.12726588804E+03  0.14072778993E+03  0.00000000000E+00 0. -1.
         -2    1    1    2    0  502  0.44492076729E+02  0.13265245022E+02  0.23660555420E+03  0.24111760594E+03  0.00000000000E+00 0.  1.
<scales pt_clust_5="13000.00000" pt_clust_6="13000.00000" pt_clust_7="13000.00000" pt_clust_8="13000.00000" pt_clust_9="46.42749"></scales>
<clustering>
<clus scale="   46.427">  1  9  2 -1</clus>
<clus scale="   88.578">  5  6 -1 -1</clus>
<clus scale="   88.652">  7  8 -1 -1</clus>
<clus scale="  263.407">  1  5  2 -1</clus>
<clus scale="   46.427">  1  5  2 -1</clus>
</clustering>
</event>
<event>
 9    1  0.1601012E-005  0.9466832E+02  0.7546771E-02  0.1293239E+00
         21   -1    0    0  501  502  0.00000000000E+00  0.00000000000E+00  0.51159058426E+02  0.51159058426E+02  0.00000000000E+00 0. -1.
          1   -1    0    0  502    0 -0.00000000000E+00 -0.00000000000E+00 -0.36892415809E+03  0.36892415809E+03  0.00000000000E+00 0. -1.
         23    2    1    2    0    0 -0.23820824473E+02  0.12666084771E+02 -0.22445790867E+03  0.24476051925E+03  0.93800307228E+02 0.  0.
         23    2    1    2    0    0 -0.10804330807E+02  0.67115453409E+01 -0.98817036481E+02  0.13526333726E+03  0.91485437651E+02 0.  0.
        -11    1    3    3    0    0 -0.46802799283E+01  0.52661029552E+02 -0.13295883573E+03  0.14308438438E+03  0.00000000000E+00 0.  1.
         11    1    3    3    0    0 -0.19140544545E+02 -0.39994944781E+02 -0.91499072936E+02  0.10167613487E+03  0.00000000000E+00 0. -1.
        -13    1    4    4    0    0  0.33295561225E+02  0.27647658114E+02 -0.41294722907E+02  0.59818404664E+02  0.00000000000E+00 0.  1.
         13    1    4    4    0    0 -0.44099892033E+02 -0.20936112773E+02 -0.57522313574E+02  0.75444932595E+02  0.00000000000E+00 0. -1.
          1    1    1    2  501    0  0.34625155281E+02 -0.19377630111E+02  0.55098454886E+01  0.40059360008E+02  0.00000000000E+00 0. -1.
<scales pt_clust_5="13000.00000" pt_clust_6="13000.00000" pt_clust_7="13000.00000" pt_clust_8="13000.00000" pt_clust_9="39.67863"></scales>
<clustering>
<clus scale="   39.679">  1  9  2 -1</clus>
<clus scale="   91.485">  7  8 -1 -1</clus>
<clus scale="   92.375">  1  7  2 -1</clus>
<clus scale="   93.800">  5  6 -1 -1</clus>
<clus scale="   39.679">  1  5  2 -1</clus>
</clustering>
</event>
<event>
 9    1  0.1601012E-005  0.9114664E+02  0.7546771E-02  0.1301583E+00
         21   -1    0    0  501  502  0.00000000000E+00  0.00000000000E+00  0.13295659038E+03  0.13295659038E+03  0.00000000000E+00 0.  1.
          2   -1    0    0  502    0 -0.00000000000E+00 -0.00000000000E+00 -0.13251853812E+03  0.13251853812E+03  0.00000000000E+00 0. -1.
         23    2    1    2    0    0 -0.89970082565E+01 -0.36249527202E+00 -0.68245302691E+02  0.11421333703E+03  0.91138287538E+02 0.  0.
         23    2    1    2    0    0 -0.29823356898E+02 -0.60411136967E+01  0.58888672351E+02  0.11071598077E+03  0.88680465695E+02 0.  0.
        -13    1    4    4    0    0 -0.53774889571E+02 -0.77171121508E+01  0.66181345341E+02  0.85622795093E+02  0.00000000000E+00 0.  1.
         13    1    4    4    0    0  0.23951532673E+02  0.16759984541E+01 -0.72926729905E+01  0.25093185680E+02  0.00000000000E+00 0. -1.
        -13    1    3    3    0    0  0.19244929723E+02 -0.36539996085E+02 -0.49934744166E+02  0.64799824914E+02  0.00000000000E+00 0.  1.
         13    1    3    3    0    0 -0.28241937980E+02  0.36177500813E+02 -0.18310558525E+02  0.49413512114E+02  0.00000000000E+00 0. -1.
          2    1    1    2  501    0  0.38820365154E+02  0.64036089688E+01  0.97946826019E+01  0.40545810706E+02  0.00000000000E+00 0. -1.
<scales pt_clust_5="13000.00000" pt_clust_6="13000.00000" pt_clust_7="13000.00000" pt_clust_8="13000.00000" pt_clust_9="39.34497"></scales>
<clustering>
<clus scale="   39.345">  1  9  2 -1</clus>
<clus scale="   88.680">  5  6 -1 -1</clus>
<clus scale="   88.689">  1  5  2 -1</clus>
<clus scale="   91.138">  7  8 -1 -1</clus>
<clus scale="   39.345">  1  5  2 -1</clus>
</clustering>
</event>
<event>
 9    1  0.1601012E-005  0.9704500E+02  0.7546771E-02  0.1294182E+00
         21   -1    0    0  501  502  0.00000000000E+00  0.00000000000E+00  0.35615935727E+02  0.35615935727E+02  0.00000000000E+00 0.  1.
          3   -1    0    0  502    0 -0.00000000000E+00 -0.00000000000E+00 -0.32685039857E+03  0.32685039857E+03  0.00000000000E+00 0. -1.
         23    2    1    2    0    0 -0.24683111245E+02  0.38053290172E+01 -0.15514992716E+03  0.17639659548E+03  0.80128162899E+02 0.  0.
         23    2    1    2    0    0  0.20840610423E+02 -0.24558653024E+02 -0.13141158579E+03  0.16445257594E+03  0.93478266847E+02 0.  0.
        -11    1    3    3    0    0 -0.31602065140E+02 -0.26801224501E+02 -0.42094388353E+02  0.59067196367E+02  0.00000000000E+00 0.  1.
         11    1    3    3    0    0  0.69189538949E+01  0.30606553518E+02 -0.11305553881E+03  0.11732939912E+03  0.00000000000E+00 0. -1.
        -11    1    4    4    0    0  0.28677416332E+02 -0.52107914147E+02 -0.11939913603E+03  0.13339333795E+03  0.00000000000E+00 0.  1.
         11    1    4    4    0    0 -0.78368059085E+01  0.27549261123E+02 -0.12012449752E+02  0.31059237987E+02  0.00000000000E+00 0. -1.
          3    1    1    2  501    0  0.38425008215E+01  0.20753324007E+02 -0.46729498885E+01  0.21617162870E+02  0.00000000000E+00 0. -1.
<scales pt_clust_5="13000.00000" pt_clust_6="13000.00000" pt_clust_7="13000.00000" pt_clust_8="13000.00000" pt_clust_9="21.10605"></scales>
<clustering>
<clus scale="   21.106">  1  9  2 -1</clus>
<clus scale="   80.128">  5  6 -1 -1</clus>
<clus scale="   84.262">  2  5  1 -1</clus>
<clus scale="   93.478">  7  8 -1 -1</clus>
<clus scale="   21.106">  1  5  2 -1</clus>
</clustering>
</event>
<event>
 9    1  0.1601012E-005  0.1397653E+03  0.7546771E-02  0.1213791E+00
         21   -1    0    0  501  502  0.00000000000E+00  0.00000000000E+00  0.75335784796E+02  0.75335784796E+02  0.00000000000E+00 0.  1.
          2   -1    0    0  502    0 -0.00000000000E+00 -0.00000000000E+00 -0.33340217782E+03  0.33340217782E+03  0.00000000000E+00 0. -1.
         23    2    1    2    0    0 -0.44952211829E+02 -0.93300453509E+02 -0.16951947807E+03  0.21923120042E+03  0.92735051741E+02 0.  0.
         23    2    1    2    0    0  0.23711215548E+02  0.10552266869E+03 -0.67793235967E+02  0.15739325011E+03  0.92083967037E+02 0.  0.
        -13    1    4    4    0    0 -0.80975825019E+01  0.89360822355E+02 -0.11105133172E+02  0.90411566722E+02  0.00000000000E+00 0.  1.
         13    1    4    4    0    0  0.31808798050E+02  0.16161846337E+02 -0.56688102795E+02  0.66981683383E+02  0.00000000000E+00 0. -1.
        -13    1    3    3    0    0 -0.53821340792E+02 -0.52297408056E+02 -0.44240274009E+02  0.87114622529E+02  0.00000000000E+00 0.  1.
         13    1    3    3    0    0  0.88691289627E+01 -0.41003045454E+02 -0.12527920406E+03  0.13211657789E+03  0.00000000000E+00 0. -1.
          2    1    1    2  501    0  0.21240996282E+02 -0.12222215183E+02 -0.20753678993E+02  0.32113512090E+02  0.00000000000E+00 0. -1.
<scales pt_clust_5="13000.00000" pt_clust_6="13000.00000" pt_clust_7="13000.00000" pt_clust_8="13000.00000" pt_clust_9="24.50639"></scales>
<clustering>
<clus scale="   24.506">  1  9  2 -1</clus>
<clus scale="   92.084">  5  6 -1 -1</clus>
<clus scale="   92.735">  7  8 -1 -1</clus>
<clus scale="  139.334">  1  5  2 -1</clus>
<clus scale="   24.506">  1  5  2 -1</clus>
</clustering>
</event>
<event>
 9    1  0.1601012E-005  0.1013881E+03  0.7546771E-02  0.1279564E+00
         -3   -1    0    0    0  501 -0.00000000000E+00  0.00000000000E+00  0.16890873520E+03  0.16890873520E+03  0.00000000000E+00 0.  1.
         21   -1    0    0  501  502  0.00000000000E+00 -0.00000000000E+00 -0.10856098758E+03  0.10856098758E+03  0.00000000000E+00 0. -1.
         23    2    1    2    0    0 -0.25034272029E+02 -0.36934972897E+02  0.10546387295E+03  0.14511167956E+03  0.89128357153E+02 0.  0.
         23    2    1    2    0    0  0.78627816300E+01  0.21410874667E+02 -0.20327303126E+02  0.98441330296E+02  0.93580165468E+02 0.  0.
        -11    1    3    3    0    0  0.12818112448E+02  0.16886016772E+02  0.47201037486E+00  0.21205290919E+02  0.00000000000E+00 0.  1.
         11    1    3    3    0    0 -0.37852384477E+02 -0.53820989669E+02  0.10499186258E+03  0.12390638865E+03  0.00000000000E+00 0. -1.
        -13    1    4    4    0    0 -0.40876528519E+02  0.63977405293E+01 -0.23064640396E+02  0.47368758736E+02  0.00000000000E+00 0. -1.
         13    1    4    4    0    0  0.48739310149E+02  0.15013134138E+02  0.27373372697E+01  0.51072571560E+02  0.00000000000E+00 0.  1.
         -3    1    1    2    0  502  0.17171490399E+02  0.15524098230E+02 -0.24788822211E+02  0.33916712915E+02  0.00000000000E+00 0.  1.
<scales pt_clust_5="13000.00000" pt_clust_6="13000.00000" pt_clust_7="13000.00000" pt_clust_8="13000.00000" pt_clust_9="23.14860"></scales>
<clustering>
<clus scale="   23.149">  2  9  1 -1</clus>
<clus scale="   89.128">  5  6 -1 -1</clus>
<clus scale="   93.580">  7  8 -1 -1</clus>
<clus scale="   97.294">  1  5  2 -1</clus>
<clus scale="   23.149">  2  5  1 -1</clus>
</clustering>
</event>
<event>
 9    1  0.1601012E-005  0.1016526E+03  0.7546771E-02  0.1278506E+00
          2   -1    0    0  502    0 -0.00000000000E+00  0.00000000000E+00  0.28317024365E+03  0.28317024365E+03  0.00000000000E+00 0. -1.
         21   -1    0    0  501  502  0.00000000000E+00 -0.00000000000E+00 -0.47108087924E+02  0.47108087924E+02  0.00000000000E+00 0. -1.
         23    2    1    2    0    0  0.37443161298E+02  0.37598437637E+02  0.12852795504E+03  0.16472933462E+03  0.88321490118E+02 0.  0.
         23    2    1    2    0    0 -0.14265028281E+02 -0.27992940901E+02  0.67177887220E+02  0.11802928048E+03  0.91820187030E+02 0.  0.
        -13    1    4    4    0    0 -0.49364866233E+02  0.32157575637E+01  0.41049389974E+02  0.64282840106E+02  0.00000000000E+00 0.  1.
         13    1    4    4    0    0  0.35099837952E+02 -0.31208698464E+02  0.26128497246E+02  0.53746440370E+02  0.00000000000E+00 0. -1.
        -13    1    3    3    0    0  0.25256373420E+01  0.60728780721E+02  0.82868498322E+02  0.10276941017E+03  0.00000000000E+00 0. -1.
         13    1    3    3    0    0  0.34917523956E+02 -0.23130343084E+02  0.45659456718E+02  0.61959924453E+02  0.00000000000E+00 0.  1.
          2    1    1    2  501    0 -0.23178133017E+02 -0.96054967362E+01  0.40356313460E+02  0.47519716474E+02  0.00000000000E+00 0. -1.
<scales pt_clust_5="13000.00000" pt_clust_6="13000.00000" pt_clust_7="13000.00000" pt_clust_8="13000.00000" pt_clust_9="25.08968"></scales>
<clustering>
<clus scale="   25.090">  2  9  1 -1</clus>
<clus scale="   88.321">  7  8 -1 -1</clus>
<clus scale="   91.820">  5  6 -1 -1</clus>
<clus scale="   98.504">  1  7  2 -1</clus>
<clus scale="   25.090">  2  5  1 -1</clus>
</clustering>
</event>
<event>
 9    1  0.1601012E-005  0.4428875E+03  0.7546771E-02  0.1030218E+00
         21   -1    0    0  501  502  0.00000000000E+00  0.00000000000E+00  0.35221682064E+03  0.35221682064E+03  0.00000000000E+00 0.  1.
          2   -1    0    0  502    0 -0.00000000000E+00 -0.00000000000E+00 -0.88173177993E+03  0.88173177993E+03  0.00000000000E+00 0. -1.
         23    2    1    2    0    0 -0.31682938636E+03 -0.28377474944E+03 -0.48245616086E+03  0.64994867886E+03  0.93596845627E+02 0.  0.
         23    2    1    2    0    0  0.34379412407E+03  0.26540926350E+03 -0.15216517380E+03  0.47394657874E+03  0.11329008114E+03 0.  0.
        -11    1    4    4    0    0  0.17148291261E+02  0.56154927532E+02 -0.36545134110E+02  0.69159139717E+02  0.00000000000E+00 0. -1.
         11    1    4    4    0    0  0.32664583281E+03  0.20925433597E+03 -0.11562003969E+03  0.40478743903E+03  0.00000000000E+00 0.  1.
        -13    1    3    3    0    0 -0.11360946112E+03 -0.12755366345E+03 -0.13259773271E+03  0.21623876950E+03  0.00000000000E+00 0.  1.
         13    1    3    3    0    0 -0.20321992525E+03 -0.15622108599E+03 -0.34985842815E+03  0.43370990936E+03  0.00000000000E+00 0. -1.
          2    1    1    2  501    0 -0.26964737709E+02  0.18365485940E+02  0.10510637537E+03  0.11005334296E+03  0.00000000000E+00 0. -1.
<scales pt_clust_5="13000.00000" pt_clust_6="13000.00000" pt_clust_7="13000.00000" pt_clust_8="13000.00000" pt_clust_9="32.62496"></scales>
<clustering>
<clus scale="   32.625">  1  9  2 -1</clus>
<clus scale="   93.597">  7  8 -1 -1</clus>
<clus scale="  113.290">  5  6 -1 -1</clus>
<clus scale="  438.264">  2  7  1 -1</clus>
<clus scale="   32.625">  1  5  2 -1</clus>
</clustering>
</event>
<event>
 9    1  0.1601012E-005  0.1276991E+03  0.7546771E-02  0.1235876E+00
          1   -1    0    0  502    0 -0.00000000000E+00  0.00000000000E+00  0.43880524198E+03  0.43880524198E+03  0.00000000000E+00 0. -1.
         21   -1    0    0  501  502  0.00000000000E+00 -0.00000000000E+00 -0.41289942228E+02  0.41289942228E+02  0.00000000000E+00 0.  1.
         23    2    1    2    0    0  0.22015785270E+02  0.80774558533E+02  0.21649348439E+03  0.25528309152E+03  0.10625819462E+03 0.  0.
         23    2    1    2    0    0 -0.17740619279E+02 -0.56345956784E+02  0.14842796788E+03  0.18385610996E+03  0.91008851783E+02 0.  0.
        -11    1    3    3    0    0  0.25018108952E+02  0.19916529712E+02  0.17094284824E+01  0.32023367672E+02  0.00000000000E+00 0.  1.
         11    1    3    3    0    0 -0.30023236824E+01  0.60858028820E+02  0.21478405591E+03  0.22325972385E+03  0.00000000000E+00 0. -1.
        -13    1    4    4    0    0  0.16827714004E+02  0.14151236001E+02  0.67962114214E+02  0.71430234547E+02  0.00000000000E+00 0. -1.
         13    1    4    4    0    0 -0.34568333283E+02 -0.70497192785E+02  0.80465853667E+02  0.11242587542E+03  0.00000000000E+00 0.  1.
          1    1    1    2  501    0 -0.42751659906E+01 -0.24428601749E+02  0.32593847479E+02  0.40955982727E+02  0.00000000000E+00 0. -1.
<scales pt_clust_5="13000.00000" pt_clust_6="13000.00000" pt_clust_7="13000.00000" pt_clust_8="13000.00000" pt_clust_9="24.79987"></scales>
<clustering>
<clus scale="   24.800">  2  9  1 -1</clus>
<clus scale="   91.009">  7  8 -1 -1</clus>
<clus scale="  106.258">  5  6 -1 -1</clus>
<clus scale="  115.321">  2  7  1 -1</clus>
<clus scale="   24.800">  2  5  1 -1</clus>
</clustering>
</event>
<event>
 9    1  0.1601012E-005  0.1348933E+03  0.7546771E-02  0.1221406E+00
         21   -1    0    0  501  502  0.00000000000E+00  0.00000000000E+00  0.51168458027E+02  0.51168458027E+02  0.00000000000E+00 0.  1.
          1   -1    0    0  502    0 -0.00000000000E+00 -0.00000000000E+00 -0.65481800565E+03  0.65481800565E+03  0.00000000000E+00 0. -1.
         23    2    1    2    0    0  0.94865690770E+02  0.63170676554E+01 -0.40467057392E+03  0.42593817876E+03  0.92874399571E+02 0.  0.
         23    2    1    2    0    0 -0.91733897326E+02  0.18496456704E+02 -0.21249813653E+03  0.25161789827E+03  0.96947830690E+02 0.  0.
        -11    1    4    4    0    0 -0.83434851317E+02 -0.10393091920E+02 -0.81075118450E+02  0.11680139385E+03  0.00000000000E+00 0.  1.
         11    1    4    4    0    0 -0.82990460083E+01  0.28889548624E+02 -0.13142301808E+03  0.13481650442E+03  0.00000000000E+00 0. -1.
        -11    1    3    3    0    0  0.71872367447E+02  0.16701953268E+02 -0.38965148302E+03  0.39657643735E+03  0.00000000000E+00 0. -1.
         11    1    3    3    0    0  0.22993323324E+02 -0.10384885613E+02 -0.15019090902E+02  0.29361741402E+02  0.00000000000E+00 0.  1.
          1    1    1    2  501    0 -0.31317934445E+01 -0.24813524359E+02  0.13519162826E+02  0.28430386646E+02  0.00000000000E+00 0. -1.
<scales pt_clust_5="13000.00000" pt_clust_6="13000.00000" pt_clust_7="13000.00000" pt_clust_8="13000.00000" pt_clust_9="25.01038"></scales>
<clustering>
<clus scale="   25.010">  1  9  2 -1</clus>
<clus scale="   92.874">  7  8 -1 -1</clus>
<clus scale="   96.948">  5  6 -1 -1</clus>
<clus scale="  131.996">  2  7  1 -1</clus>
<clus scale="   25.010">  1  5  2 -1</clus>
</clustering>
</event>
<event>
 9    1  0.1601012E-005  0.1752970E+03  0.7546771E-02  0.1172682E+00
          2   -1    0    0  502    0 -0.00000000000E+00  0.00000000000E+00  0.60571535327E+03  0.60571535327E+03  0.00000000000E+00 0. -1.
         21   -1    0    0  501  502  0.00000000000E+00 -0.00000000000E+00 -0.93154747228E+02  0.93154747228E+02  0.00000000000E+00 0. -1.
         23    2    1    2    0    0 -0.22947391459E+02 -0.16880861344E+03  0.42244140771E+03  0.46419040766E+03  0.89403919808E+02 0.  0.
         23    2    1    2    0    0 -0.10165711803E+02  0.99163986771E+02  0.34261272277E+02  0.13945910926E+03  0.91313582830E+02 0.  0.
        -11    1    4    4    0    0  0.21086103586E+02  0.46498300201E+02  0.54769805805E+02  0.74876213272E+02  0.00000000000E+00 0.  1.
         11    1    4    4    0    0 -0.31251815388E+02  0.52665686570E+02 -0.20508533528E+02  0.64582895990E+02  0.00000000000E+00 0. -1.
        -13    1    3    3    0    0 -0.20407964715E+01 -0.78821558465E+02  0.92430659237E+02  0.12149250881E+03  0.00000000000E+00 0.  1.
         13    1    3    3    0    0 -0.20906594987E+02 -0.89987054978E+02  0.33001074847E+03  0.34269789886E+03  0.00000000000E+00 0. -1.
          2    1    1    2  501    0  0.33113103262E+02  0.69644626672E+02  0.55857926059E+02  0.95220583571E+02  0.00000000000E+00 0. -1.
<scales pt_clust_5="13000.00000" pt_clust_6="13000.00000" pt_clust_7="13000.00000" pt_clust_8="13000.00000" pt_clust_9="77.11583"></scales>
<clustering>
<clus scale="   77.116">  2  9  1 -1</clus>
<clus scale="   89.404">  7  8 -1 -1</clus>
<clus scale="   91.314">  5  6 -1 -1</clus>
<clus scale="  174.310">  1  7  2 -1</clus>
<clus scale="   77.116">  2  5  1 -1</clus>
</clustering>
</event>
<event>
 9    1  0.1601012E-005  0.1424459E+03  0.7546771E-02  0.1210869E+00
          2   -1    0    0  502    0 -0.00000000000E+00  0.00000000000E+00  0.64891343554E+03  0.64891343554E+03  0.00000000000E+00 0. -1.
         21   -1    0    0  501  502  0.00000000000E+00 -0.00000000000E+00 -0.10536101924E+03  0.10536101924E+03  0.00000000000E+00 0. -1.
         23    2    1    2    0    0 -0.77091452197E+02  0.59737648716E+02  0.37944341580E+03  0.40204176211E+03  0.90269563012E+02 0.  0.
         23    2    1    2    0    0  0.53504425017E+02 -0.14268851588E+03  0.19111612978E+03  0.26186356494E+03  0.93938360208E+02 0.  0.
        -11    1    4    4    0    0  0.21481165040E+02 -0.32056406804E+02 -0.16053049394E+00  0.38588592080E+02  0.00000000000E+00 0.  1.
         11    1    4    4    0    0  0.32023259977E+02 -0.11063210908E+03  0.19127666028E+03  0.22327497286E+03  0.00000000000E+00 0. -1.
        -13    1    3    3    0    0 -0.30389058396E+02 -0.11289520441E+02  0.36942932709E+02  0.49150060215E+02  0.00000000000E+00 0.  1.
         13    1    3    3    0    0 -0.46702393801E+02  0.71027169157E+02  0.34250048309E+03  0.35289170189E+03  0.00000000000E+00 0. -1.
          2    1    1    2  501    0  0.23587027180E+02  0.82950867167E+02 -0.27007129279E+02  0.90369127730E+02  0.00000000000E+00 0. -1.
<scales pt_clust_5="13000.00000" pt_clust_6="13000.00000" pt_clust_7="13000.00000" pt_clust_8="13000.00000" pt_clust_9="86.23917"></scales>
<clustering>
<clus scale="   86.239">  2  9  1 -1</clus>
<clus scale="   90.270">  7  8 -1 -1</clus>
<clus scale="   93.938">  5  6 -1 -1</clus>
<clus scale="  140.054">  1  7  2 -1</clus>
<clus scale="   86.239">  2  5  1 -1</clus>
</clustering>
</event>
<event>
 9    1  0.1601012E-005  0.1061688E+03  0.7546771E-02  0.1268582E+00
          3   -1    0    0  502    0 -0.00000000000E+00  0.00000000000E+00  0.36516084070E+03  0.36516084070E+03  0.00000000000E+00 0. -1.
         21   -1    0    0  501  502  0.00000000000E+00 -0.00000000000E+00 -0.11016083143E+03  0.11016083143E+03  0.00000000000E+00 0. -1.
         23    2    1    2    0    0 -0.43342599008E+02 -0.32079842575E+02  0.25154065249E+03  0.27241300646E+03  0.89601612967E+02 0.  0.
         23    2    1    2    0    0  0.73134964051E+02 -0.18400253732E+02  0.49465060864E+02  0.12839457341E+03  0.91384254284E+02 0.  0.
        -11    1    4    4    0    0  0.89346729534E+01  0.34185976820E+02  0.11730908047E+02  0.37230680836E+02  0.00000000000E+00 0.  1.
         11    1    4    4    0    0  0.64200291097E+02 -0.52586230552E+02  0.37734152817E+02  0.91163892575E+02  0.00000000000E+00 0. -1.
        -13    1    3    3    0    0  0.24791863222E+02 -0.16013340942E+02  0.40842942831E+02  0.50390570043E+02  0.00000000000E+00 0.  1.
         13    1    3    3    0    0 -0.68134462230E+02 -0.16066501633E+02  0.21069770966E+03  0.22202243642E+03  0.00000000000E+00 0. -1.
          3    1    1    2  501    0 -0.29792365043E+02  0.50480096308E+02 -0.46005704080E+02  0.74514092265E+02  0.00000000000E+00 0. -1.
<scales pt_clust_5="13000.00000" pt_clust_6="13000.00000" pt_clust_7="13000.00000" pt_clust_8="13000.00000" pt_clust_9="58.61591"></scales>
<clustering>
<clus scale="   58.616">  2  9  1 -1</clus>
<clus scale="   89.602">  7  8 -1 -1</clus>
<clus scale="   91.384">  5  6 -1 -1</clus>
<clus scale="  104.638">  1  7  2 -1</clus>
<clus scale="   58.616">  2  5  1 -1</clus>
</clustering>
</event>
<event>
 9    1  0.1601012E-005  0.9338139E+02  0.7546771E-02  0.1296400E+00
         -1   -1    0    0    0  501 -0.00000000000E+00  0.00000000000E+00  0.13472771935E+03  0.13472771935E+03  0.00000000000E+00 0.  1.
         21   -1    0    0  501  502  0.00000000000E+00 -0.00000000000E+00 -0.32040380660E+03  0.32040380660E+03  0.00000000000E+00 0.  1.
         23    2    1    2    0    0  0.18101495754E+02 -0.30420338398E+01  0.98389739657E+02  0.13368898779E+03  0.88630053972E+02 0.  0.
         23    2    1    2    0    0 -0.29921783059E+02 -0.14385332710E+02 -0.11276255998E+03  0.14884983392E+03  0.91316084164E+02 0.  0.
        -13    1    4    4    0    0 -0.32789559232E+02  0.33636627937E+02 -0.40412865131E+02  0.61965939045E+02  0.00000000000E+00 0.  1.
         13    1    4    4    0    0  0.28677761731E+01 -0.48021960647E+02 -0.72349694847E+02  0.86883894876E+02  0.00000000000E+00 0. -1.
        -13    1    3    3    0    0 -0.34720048987E+02 -0.11447063554E+02  0.46698686182E+02  0.59306697402E+02  0.00000000000E+00 0.  1.
         13    1    3    3    0    0  0.52821544741E+02  0.84050297140E+01  0.51691053475E+02  0.74382290383E+02  0.00000000000E+00 0. -1.
         -1    1    1    2    0  502  0.11820287305E+02  0.17427366549E+02 -0.17130326693E+03  0.17259270425E+03  0.00000000000E+00 0.  1.
<scales pt_clust_5="13000.00000" pt_clust_6="13000.00000" pt_clust_7="13000.00000" pt_clust_8="13000.00000" pt_clust_9="21.05783"></scales>
<clustering>
<clus scale="   21.058">  2  9  1 -1</clus>
<clus scale="   88.630">  7  8 -1 -1</clus>
<clus scale="   90.757">  1  7  2 -1</clus>
<clus scale="   91.316">  5  6 -1 -1</clus>
<clus scale="   21.058">  2  5  1 -1</clus>
</clustering>
</event>
<event>
 9    1  0.1906517E-005  0.1114600E+03  0.7546771E-02  0.1264116E+00
          1   -1    0    0  502    0 -0.00000000000E+00  0.00000000000E+00  0.55658713307E+03  0.55658713307E+03  0.00000000000E+00 0. -1.
         21   -1    0    0  501  502  0.00000000000E+00 -0.00000000000E+00 -0.11091666802E+03  0.11091666802E+03  0.00000000000E+00 0. -1.
         23    2    1    2    0    0  0.11293560817E+02 -0.13468288128E+02  0.31273298565E+03  0.32708904420E+03  0.94214559487E+02 0.  0.
         23    2    1    2    0    0 -0.84425671594E+02 -0.26424479403E+02  0.19279509073E+03  0.23783468006E+03  0.10756133549E+03 0.  0.
        -11    1    4    4    0    0  0.24349036942E+02  0.53679886499E+01  0.24621404946E+02  0.35041468058E+02  0.00000000000E+00 0.  1.
         11    1    4    4    0    0 -0.10877470854E+03 -0.31792468053E+02  0.16817368578E+03  0.20279321200E+03  0.00000000000E+00 0. -1.
        -13    1    3    3    0    0  0.31478863633E+02  0.24893099698E+02  0.23208781514E+03  0.23553203435E+03  0.00000000000E+00 0.  1.
         13    1    3    3    0    0 -0.20185302816E+02 -0.38361387827E+02  0.80645170513E+02  0.91557009851E+02  0.00000000000E+00 0. -1.
          1    1    1    2  501    0  0.73132110777E+02  0.39892767532E+02 -0.59857611329E+02  0.10258007683E+03  0.00000000000E+00 0. -1.
<scales pt_clust_5="13000.00000" pt_clust_6="13000.00000" pt_clust_7="13000.00000" pt_clust_8="13000.00000" pt_clust_9="83.30509"></scales>
<clustering>
<clus scale="   83.305">  2  9  1 -1</clus>
<clus scale="   94.215">  7  8 -1 -1</clus>
<clus scale="   98.642">  1  7  2 -1</clus>
<clus scale="  107.561">  5  6 -1 -1</clus>
<clus scale="   83.305">  2  5  1 -1</clus>
</clustering>
</event>
<event>
 9    1  0.1601012E-005  0.1391892E+03  0.7546771E-02  0.1231653E+00
          1   -1    0    0  502    0 -0.00000000000E+00  0.00000000000E+00  0.25487863425E+03  0.25487863425E+03  0.00000000000E+00 0. -1.
         21   -1    0    0  501  502  0.00000000000E+00 -0.00000000000E+00 -0.16700780104E+03  0.16700780104E+03  0.00000000000E+00 0. -1.
         23    2    1    2    0    0  0.31795453248E+02 -0.17599490424E+02  0.12170318041E+02  0.97875284770E+02  0.90059768027E+02 0.  0.
         23    2    1    2    0    0  0.13275124371E+02  0.11135757668E+03  0.14010393674E+03  0.20166027633E+03  0.91983776539E+02 0.  0.
        -11    1    4    4    0    0  0.38441240171E+01  0.24100122283E+02 -0.11115660859E+02  0.26816992744E+02  0.00000000000E+00 0.  1.
         11    1    4    4    0    0  0.94310003539E+01  0.87257454402E+02  0.15121959760E+03  0.17484328358E+03  0.00000000000E+00 0. -1.
        -11    1    3    3    0    0  0.19631892681E+02 -0.51912003544E+02 -0.82885528733E+01  0.56115661192E+02  0.00000000000E+00 0.  1.
         11    1    3    3    0    0  0.12163560567E+02  0.34312513120E+02  0.20458870914E+02  0.41759623578E+02  0.00000000000E+00 0. -1.
          1    1    1    2  501    0 -0.45070577619E+02 -0.93758086260E+02 -0.64403421564E+02  0.12235087419E+03  0.00000000000E+00 0. -1.
<scales pt_clust_5="13000.00000" pt_clust_6="13000.00000" pt_clust_7="13000.00000" pt_clust_8="13000.00000" pt_clust_9="104.46352"></scales>
<clustering>
<clus scale="   90.060">  7  8 -1 -1</clus>
<clus scale="   91.984">  5  6 -1 -1</clus>
<clus scale="   97.116">  1  7  2 -1</clus>
<clus scale="  104.464">  2  9  1 -1</clus>
<clus scale="  104.464">  2  5  1 -1</clus>
</clustering>
</event>
<event>
 9    1  0.1601012E-005  0.1577577E+03  0.7546771E-02  0.1192373E+00
          1   -1    0    0  502    0 -0.00000000000E+00  0.00000000000E+00  0.21870008588E+03  0.21870008588E+03  0.00000000000E+00 0. -1.
         21   -1    0    0  501  502  0.00000000000E+00 -0.00000000000E+00 -0.18384855246E+03  0.18384855246E+03  0.00000000000E+00 0. -1.
         23    2    1    2    0    0 -0.13401675634E+03  0.42389279864E+01  0.10982211612E+03  0.19255001067E+03  0.83881761606E+02 0.  0.
         23    2    1    2    0    0  0.11627534258E+03 -0.30297799897E+02 -0.27580789717E+02  0.15308101136E+03  0.90747915168E+02 0.  0.
        -11    1    3    3    0    0 -0.57311872020E+02 -0.31541869802E+02  0.78772773041E+02  0.10239477525E+03  0.00000000000E+00 0.  1.
         11    1    3    3    0    0 -0.76704884320E+02  0.35780797788E+02  0.31049343077E+02  0.90155235425E+02  0.00000000000E+00 0. -1.
        -11    1    4    4    0    0  0.12414862334E+02  0.26071938836E+02  0.74574040922E+01  0.29824279995E+02  0.00000000000E+00 0.  1.
         11    1    4    4    0    0  0.10386048025E+03 -0.56369738733E+02 -0.35038193809E+02  0.12325673137E+03  0.00000000000E+00 0. -1.
          1    1    1    2  501    0  0.17741413758E+02  0.26058871911E+02 -0.47389792979E+02  0.56917616306E+02  0.00000000000E+00 0. -1.
<scales pt_clust_5="13000.00000" pt_clust_6="13000.00000" pt_clust_7="13000.00000" pt_clust_8="13000.00000" pt_clust_9="31.52495"></scales>
<clustering>
<clus scale="   31.525">  2  9  1 -1</clus>
<clus scale="   83.882">  5  6 -1 -1</clus>
<clus scale="   90.748">  7  8 -1 -1</clus>
<clus scale="  153.911">  1  5  2 -1</clus>
<clus scale="   31.525">  2  5  1 -1</clus>
</clustering>
</event>
<event>
 9    1  0.1601012E-005  0.9213464E+02  0.7546771E-02  0.1298239E+00
         21   -1    0    0  501  502  0.00000000000E+00  0.00000000000E+00  0.54844790017E+02  0.54844790017E+02  0.00000000000E+00 0.  1.
         -4   -1    0    0    0  501 -0.00000000000E+00 -0.00000000000E+00 -0.39172955393E+03  0.39172955393E+03  0.00000000000E+00 0.  1.
         23    2    1    2    0    0  0.21794754086E+02  0.13136789793E+02 -0.17893658974E+03  0.20232334906E+03  0.90933205570E+02 0.  0.
         23    2    1    2    0    0  0.20491758575E+02 -0.16501644737E+02 -0.17495381761E+03  0.19854909875E+03  0.90114870419E+02 0.  0.
        -11    1    3    3    0    0  0.44747534792E+02  0.13001778778E+02 -0.17221250906E+03  0.17840553915E+03  0.00000000000E+00 0.  1.
         11    1    3    3    0    0 -0.22952780707E+02  0.13501101522E+00 -0.67240806835E+01  0.23917809916E+02  0.00000000000E+00 0. -1.
        -13    1    4    4    0    0  0.35266649360E+02 -0.35969878838E+02 -0.16437007570E+03  0.17191594029E+03  0.00000000000E+00 0.  1.
         13    1    4    4    0    0 -0.14774890786E+02  0.19468234101E+02 -0.10583741908E+02  0.26633158459E+02  0.00000000000E+00 0. -1.
         -4    1    1    2    0  502 -0.42286512660E+02  0.33648549440E+01  0.17005643435E+02  0.45701896136E+02  0.00000000000E+00 0.  1.
<scales pt_clust_5="13000.00000" pt_clust_6="13000.00000" pt_clust_7="13000.00000" pt_clust_8="13000.00000" pt_clust_9="42.42018"></scales>
<clustering>
<clus scale="   42.420">  1  9  2 -1</clus>
<clus scale="   90.115">  7  8 -1 -1</clus>
<clus scale="   90.933">  5  6 -1 -1</clus>
<clus scale="   91.327">  1  7  2 -1</clus>
<clus scale="   42.420">  1  5  2 -1</clus>
</clustering>
</event>
<event>
 9    1  0.1601012E-005  0.1475660E+03  0.7546771E-02  0.1203623E+00
         21   -1    0    0  501  502  0.00000000000E+00  0.00000000000E+00  0.11081016856E+03  0.11081016856E+03  0.00000000000E+00 0.  1.
          2   -1    0    0  502    0 -0.00000000000E+00 -0.00000000000E+00 -0.27818549652E+03  0.27818549652E+03  0.00000000000E+00 0.  1.
         23    2    1    2    0    0 -0.10727614612E+03 -0.46665267315E+02 -0.14481717782E+03  0.20778039937E+03  0.92276002689E+02 0.  0.
         23    2    1    2    0    0  0.11139717817E+03  0.22178040468E+02 -0.39461427009E+02  0.15117649155E+03  0.91629310779E+02 0.  0.
        -13    1    3    3    0    0 -0.75287804766E+02 -0.45362625997E+02 -0.15142824738E+03  0.17509007821E+03  0.00000000000E+00 0.  1.
         13    1    3    3    0    0 -0.31988341353E+02 -0.13026413175E+01  0.66110695602E+01  0.32690321161E+02  0.00000000000E+00 0. -1.
        -13    1    4    4    0    0  0.36455246260E+02 -0.31240767374E+02  0.62540964735E+01  0.48415743810E+02  0.00000000000E+00 0.  1.
         13    1    4    4    0    0  0.74941931907E+02  0.53418807842E+02 -0.45715523482E+02  0.10276074774E+03  0.00000000000E+00 0. -1.
          2    1    1    2  501    0 -0.41210320486E+01  0.24487226847E+02  0.16903276864E+02  0.30038774151E+02  0.00000000000E+00 0.  1.
<scales pt_clust_5="13000.00000" pt_clust_6="13000.00000" pt_clust_7="13000.00000" pt_clust_8="13000.00000" pt_clust_9="24.83158"></scales>
<clustering>
<clus scale="   24.832">  1  9  2 -1</clus>
<clus scale="   91.629">  7  8 -1 -1</clus>
<clus scale="   92.276">  5  6 -1 -1</clus>
<clus scale="  147.162">  1  7  2 -1</clus>
<clus scale="   24.832">  1  5  2 -1</clus>
</clustering>
</event>
<event>
 9    1  0.1601012E-005  0.1168159E+03  0.7546771E-02  0.1248452E+00
         21   -1    0    0  501  502  0.00000000000E+00  0.00000000000E+00  0.34259915032E+03  0.34259915032E+03  0.00000000000E+00 0. -1.
          2   -1    0    0  502    0 -0.00000000000E+00 -0.00000000000E+00 -0.29094276159E+03  0.29094276159E+03  0.00000000000E+00 0. -1.
         23    2    1    2    0    0  0.59862605604E+02 -0.43586230057E+02 -0.25360393125E+03  0.27925887284E+03  0.90483551633E+02 0.  0.
         23    2    1    2    0    0 -0.72183150316E+02  0.21964784174E+02  0.12300642608E+03  0.17033803481E+03  0.90507493143E+02 0.  0.
        -11    1    3    3    0    0  0.65695435397E+02 -0.15146139809E+02 -0.23569422507E+03  0.24514702428E+03  0.00000000000E+00 0. -1.
         11    1    3    3    0    0 -0.58328297935E+01 -0.28440090248E+02 -0.17909706177E+02  0.34111848558E+02  0.00000000000E+00 0.  1.
        -13    1    4    4    0    0 -0.20346566170E+02  0.10248877013E+02 -0.11639855212E+02  0.25583363037E+02  0.00000000000E+00 0. -1.
         13    1    4    4    0    0 -0.51836584146E+02  0.11715907160E+02  0.13464628129E+03  0.14475467178E+03  0.00000000000E+00 0.  1.
          2    1    1    2  501    0  0.12320544713E+02  0.21621445884E+02  0.18225389390E+03  0.18394500425E+03  0.00000000000E+00 0. -1.
<scales pt_clust_5="13000.00000" pt_clust_6="13000.00000" pt_clust_7="13000.00000" pt_clust_8="13000.00000" pt_clust_9="24.88539"></scales>
<clustering>
<clus scale="   24.885">  1  9  2 -1</clus>
<clus scale="   90.484">  5  6 -1 -1</clus>
<clus scale="   90.507">  7  8 -1 -1</clus>
<clus scale="  116.797">  2  5  1 -1</clus>
<clus scale="   24.885">  1  5  2 -1</clus>
</clustering>
</event>
<event>
 9    1  0.1601012E-005  0.1180429E+03  0.7546771E-02  0.1246853E+00
         21   -1    0    0  501  502  0.00000000000E+00  0.00000000000E+00  0.54568077636E+03  0.54568077636E+03  0.00000000000E+00 0. -1.
          2   -1    0    0  502    0 -0.00000000000E+00 -0.00000000000E+00 -0.16660669206E+03  0.16660669206E+03  0.00000000000E+00 0. -1.
         23    2    1    2    0    0 -0.43675817743E+02 -0.13142283823E+02 -0.11839938275E+02  0.10302116136E+03  0.91612656717E+02 0.  0.
         23    2    1    2    0    0  0.10527995488E+03 -0.18008647819E+02 -0.60735081141E+02  0.15237204890E+03  0.90112767731E+02 0.  0.
        -11    1    3    3    0    0 -0.20140759563E+01  0.37049123492E+02 -0.47961399746E+01  0.37412524803E+02  0.00000000000E+00 0.  1.
         11    1    3    3    0    0 -0.41661741787E+02 -0.50191407315E+02 -0.70437983001E+01  0.65608636561E+02  0.00000000000E+00 0. -1.
        -13    1    4    4    0    0  0.10025065962E+02 -0.40355391369E+02 -0.22897021779E+02  0.47469286559E+02  0.00000000000E+00 0.  1.
         13    1    4    4    0    0  0.95254888917E+02  0.22346743549E+02 -0.37838059362E+02  0.10490276234E+03  0.00000000000E+00 0. -1.
          2    1    1    2  501    0 -0.61604137136E+02  0.31150931642E+02  0.45164910371E+03  0.45689425816E+03  0.00000000000E+00 0. -1.
<scales pt_clust_5="13000.00000" pt_clust_6="13000.00000" pt_clust_7="13000.00000" pt_clust_8="13000.00000" pt_clust_9="69.03224"></scales>
<clustering>
<clus scale="   69.032">  1  9  2 -1</clus>
<clus scale="   90.113">  7  8 -1 -1</clus>
<clus scale="   91.613">  5  6 -1 -1</clus>
<clus scale="  116.883">  1  7  2 -1</clus>
<clus scale="   69.032">  1  5  2 -1</clus>
</clustering>
</event>
<event>
 9    1  0.1601012E-005  0.1026505E+03  0.7546771E-02  0.1276509E+00
         21   -1    0    0  501  502  0.00000000000E+00  0.00000000000E+00  0.15160178519E+03  0.15160178519E+03  0.00000000000E+00 0.  1.
          3   -1    0    0  502    0 -0.00000000000E+00 -0.00000000000E+00 -0.98830845869E+02  0.98830845869E+02  0.00000000000E+00 0. -1.
         23    2    1    2    0    0 -0.12318096154E+02 -0.24860344736E+02 -0.13921423599E+02  0.10096498985E+03  0.96074715234E+02 0.  0.
         23    2    1    2    0    0  0.11598442810E+02  0.51536104094E+02  0.48034052104E+02  0.11690621309E+03  0.92570506090E+02 0.  0.
        -11    1    4    4    0    0 -0.91171273915E+01  0.19565896195E+02 -0.25911494284E+02  0.33724647394E+02  0.00000000000E+00 0. -1.
         11    1    4    4    0    0  0.20715570202E+02  0.31970207899E+02  0.73945546388E+02  0.83181565701E+02  0.00000000000E+00 0.  1.
        -13    1    3    3    0    0 -0.48378884624E+02 -0.12718640598E+02  0.16043479669E+02  0.52532594987E+02  0.00000000000E+00 0. -1.
         13    1    3    3    0    0  0.36060788470E+02 -0.12141704138E+02 -0.29964903268E+02  0.48432394864E+02  0.00000000000E+00 0.  1.
          3    1    1    2  501    0  0.71965334395E+00 -0.26675759358E+02  0.18658310814E+02  0.32561428112E+02  0.00000000000E+00 0. -1.
<scales pt_clust_5="13000.00000" pt_clust_6="13000.00000" pt_clust_7="13000.00000" pt_clust_8="13000.00000" pt_clust_9="26.68546"></scales>
<clustering>
<clus scale="   26.685">  1  9  2 -1</clus>
<clus scale="   92.571">  5  6 -1 -1</clus>
<clus scale="   96.075">  7  8 -1 -1</clus>
<clus scale="   99.378">  1  5  2 -1</clus>
<clus scale="   26.685">  1  5  2 -1</clus>
</clustering>
</event>
<event>
 9    1  0.1601012E-005  0.1069564E+03  0.7546771E-02  0.1270426E+00
         -1   -1    0    0    0  501 -0.00000000000E+00  0.00000000000E+00  0.29931804393E+03  0.29931804393E+03  0.00000000000E+00 0.  1.
         21   -1    0    0  501  502  0.00000000000E+00 -0.00000000000E+00 -0.10897823794E+03  0.10897823794E+03  0.00000000000E+00 0.  1.
         23    2    1    2    0    0 -0.16702948142E+01 -0.50036947605E+02  0.13511030429E+03  0.17285808934E+03  0.95491563577E+02 0.  0.
         23    2    1    2    0    0  0.53506216919E+02  0.29674498631E+02  0.11331400687E+03  0.15496831066E+03  0.86206856096E+02 0.  0.
        -11    1    4    4    0    0  0.34304506988E+02  0.58417252768E+02  0.55356419229E+02  0.87485471768E+02  0.00000000000E+00 0.  1.
         11    1    4    4    0    0  0.19201709931E+02 -0.28742754137E+02  0.57957587646E+02  0.67482838895E+02  0.00000000000E+00 0. -1.
        -11    1    3    3    0    0  0.31019561787E+01  0.26183789084E+02  0.60936120677E+02  0.66395961821E+02  0.00000000000E+00 0.  1.
         11    1    3    3    0    0 -0.47722509928E+01 -0.76220736690E+02  0.74174183609E+02  0.10646212752E+03  0.00000000000E+00 0. -1.
         -1    1    1    2    0  502 -0.51835922105E+02  0.20362448974E+02 -0.58084505167E+02  0.80469881877E+02  0.00000000000E+00 0.  1.
<scales pt_clust_5="13000.00000" pt_clust_6="13000.00000" pt_clust_7="13000.00000" pt_clust_8="13000.00000" pt_clust_9="55.69194"></scales>
<clustering>
<clus scale="   55.692">  2  9  1 -1</clus>
<clus scale="   86.207">  5  6 -1 -1</clus>
<clus scale="   95.492">  7  8 -1 -1</clus>
<clus scale="   98.756">  2  5  1 -1</clus>
<clus scale="   55.692">  2  5  1 -1</clus>
</clustering>
</event>
<event>
 9    1  0.1601012E-005  0.1165776E+03  0.7546771E-02  0.1249894E+00
         -2   -1    0    0    0  501 -0.00000000000E+00  0.00000000000E+00  0.39997624853E+03  0.39997624853E+03  0.00000000000E+00 0.  1.
         21   -1    0    0  501  502  0.00000000000E+00 -0.00000000000E+00 -0.14053859099E+03  0.14053859099E+03  0.00000000000E+00 0. -1.
         23    2    1    2    0    0 -0.65744788833E+02 -0.19911349073E+02  0.28293670367E+03  0.30512469018E+03  0.91263679493E+02 0.  0.
         23    2    1    2    0    0  0.58830602882E+02  0.38917456595E+02  0.71849767517E+02  0.13791997773E+03  0.94254564360E+02 0.  0.
        -11    1    3    3    0    0 -0.47817731464E+02 -0.54490981590E+02  0.15002492919E+03  0.16662317334E+03  0.00000000000E+00 0.  1.
         11    1    3    3    0    0 -0.17927057369E+02  0.34579632517E+02  0.13291177448E+03  0.13850151684E+03  0.00000000000E+00 0. -1.
        -11    1    4    4    0    0  0.62832137065E+02  0.65514853658E+02  0.57177932564E+02  0.10728182265E+03  0.00000000000E+00 0. -1.
         11    1    4    4    0    0 -0.40015341829E+01 -0.26597397062E+02  0.14671834953E+02  0.30638155088E+02  0.00000000000E+00 0.  1.
         -2    1    1    2    0  502  0.69141859512E+01 -0.19006107522E+02 -0.95348813646E+02  0.97470171613E+02  0.00000000000E+00 0.  1.
<scales pt_clust_5="13000.00000" pt_clust_6="13000.00000" pt_clust_7="13000.00000" pt_clust_8="13000.00000" pt_clust_9="20.22469"></scales>
<clustering>
<clus scale="   20.225">  2  9  1 -1</clus>
<clus scale="   91.264">  5  6 -1 -1</clus>
<clus scale="   94.255">  7  8 -1 -1</clus>
<clus scale="  114.173">  1  5  2 -1</clus>
<clus scale="   20.225">  2  5  1 -1</clus>
</clustering>
</event>
<event>
 9    1  0.1601012E-005  0.1293450E+03  0.7546771E-02  0.1229032E+00
         21   -1    0    0  501  502  0.00000000000E+00  0.00000000000E+00  0.79772963111E+02  0.79772963111E+02  0.00000000000E+00 0. -1.
          3   -1    0    0  502    0 -0.00000000000E+00 -0.00000000000E+00 -0.34602965872E+03  0.34602965872E+03  0.00000000000E+00 0. -1.
         23    2    1    2    0    0  0.87610199732E+02  0.56409612112E+02 -0.17586810056E+03  0.22297639058E+03  0.89057793177E+02 0.  0.
         23    2    1    2    0    0 -0.31290562269E+02 -0.71988789852E+02 -0.44006711958E+02  0.12822132912E+03  0.91338017233E+02 0.  0.
        -11    1    4    4    0    0 -0.34288340986E+02 -0.21342310608E+02 -0.62336441243E+02  0.74276621197E+02  0.00000000000E+00 0.  1.
         11    1    4    4    0    0  0.29977787171E+01 -0.50646479244E+02  0.18329729285E+02  0.53944707921E+02  0.00000000000E+00 0. -1.
        -13    1    3    3    0    0  0.73111601554E+02  0.15591405521E+02 -0.16042790384E+03  0.17699014249E+03  0.00000000000E+00 0.  1.
         13    1    3    3    0    0  0.14498598178E+02  0.40818206591E+02 -0.15440196716E+02  0.45986248086E+02  0.00000000000E+00 0. -1.
          3    1    1    2  501    0 -0.56319637463E+02  0.15579177740E+02 -0.46381883088E+02  0.74604902130E+02  0.00000000000E+00 0. -1.
<scales pt_clust_5="13000.00000" pt_clust_6="13000.00000" pt_clust_7="13000.00000" pt_clust_8="13000.00000" pt_clust_9="58.43468"></scales>
<clustering>
<clus scale="   58.435">  1  9  2 -1</clus>
<clus scale="   89.058">  7  8 -1 -1</clus>
<clus scale="   91.338">  5  6 -1 -1</clus>
<clus scale="  127.745">  2  7  1 -1</clus>
<clus scale="   58.435">  1  5  2 -1</clus>
</clustering>
</event>
<event>
 9    1  0.1601012E-005  0.1230563E+03  0.7546771E-02  0.1238270E+00
         -2   -1    0    0    0  501 -0.00000000000E+00  0.00000000000E+00  0.12149972510E+03  0.12149972510E+03  0.00000000000E+00 0.  1.
         21   -1    0    0  501  502  0.00000000000E+00 -0.00000000000E+00 -0.25359379088E+03  0.25359379088E+03  0.00000000000E+00 0. -1.
         23    2    1    2    0    0  0.31699427258E+02  0.72038904648E+02  0.40487469174E+02  0.12684488671E+03  0.90862162931E+02 0.  0.
         23    2    1    2    0    0 -0.54905314183E+02 -0.76699363084E+02 -0.82363644752E+02  0.15497751491E+03  0.91306485683E+02 0.  0.
        -13    1    3    3    0    0 -0.28675537113E+02  0.36780103593E+01  0.76127546922E+01  0.29895956632E+02  0.00000000000E+00 0.  1.
         13    1    3    3    0    0  0.60374964371E+02  0.68360894289E+02  0.32874714482E+02  0.96948930077E+02  0.00000000000E+00 0. -1.
        -13    1    4    4    0    0 -0.17655217368E+02 -0.38691239737E+02  0.14101757831E+02  0.44806007483E+02  0.00000000000E+00 0.  1.
         13    1    4    4    0    0 -0.37250096815E+02 -0.38008123347E+02 -0.96465402583E+02  0.11017150743E+03  0.00000000000E+00 0. -1.
         -2    1    1    2    0  502  0.23205886925E+02  0.46604584360E+01 -0.90217890206E+02  0.93271114361E+02  0.00000000000E+00 0.  1.
<scales pt_clust_5="13000.00000" pt_clust_6="13000.00000" pt_clust_7="13000.00000" pt_clust_8="13000.00000" pt_clust_9="23.66924"></scales>
<clustering>
<clus scale="   23.669">  2  9  1 -1</clus>
<clus scale="   90.862">  5  6 -1 -1</clus>
<clus scale="   91.306">  7  8 -1 -1</clus>
<clus scale="  122.727">  1  5  2 -1</clus>
<clus scale="   23.669">  2  5  1 -1</clus>
</clustering>
</event>
<event>
 9    1  0.1601012E-005  0.2057228E+03  0.7546771E-02  0.1145110E+00
         21   -1    0    0  501  502  0.00000000000E+00  0.00000000000E+00  0.63417935474E+03  0.63417935474E+03  0.00000000000E+00 0. -1.
          2   -1    0    0  502    0 -0.00000000000E+00 -0.00000000000E+00 -0.97125250508E+02  0.97125250508E+02  0.00000000000E+00 0. -1.
         23    2    1    2    0    0 -0.17628006395E+03  0.69433770972E+01  0.99169879964E+02  0.22173209494E+03  0.90595725073E+02 0.  0.
         23    2    1    2    0    0  0.20424644988E+03  0.15663038365E+02  0.38359125239E+03  0.44445035158E+03  0.91825503295E+02 0.  0.
        -11    1    4    4    0    0  0.14139303107E+03 -0.26649276029E+02  0.20502803005E+03  0.25047687768E+03  0.00000000000E+00 0.  1.
         11    1    4    4    0    0  0.62853418810E+02  0.42312314394E+02  0.17856322234E+03  0.19397347390E+03  0.00000000000E+00 0. -1.
        -13    1    3    3    0    0 -0.26197251614E+02 -0.30083638315E+02  0.37416159085E+01  0.40066456993E+02  0.00000000000E+00 0.  1.
         13    1    3    3    0    0 -0.15008281233E+03  0.37027015412E+02  0.95428264055E+02  0.18166563794E+03  0.00000000000E+00 0. -1.
          2    1    1    2  501    0 -0.27966385930E+02 -0.22606415462E+02  0.54292971881E+02  0.65122158730E+02  0.00000000000E+00 0. -1.
<scales pt_clust_5="13000.00000" pt_clust_6="13000.00000" pt_clust_7="13000.00000" pt_clust_8="13000.00000" pt_clust_9="35.96066"></scales>
<clustering>
<clus scale="   35.961">  1  9  2 -1</clus>
<clus scale="   90.596">  7  8 -1 -1</clus>
<clus scale="   91.826">  5  6 -1 -1</clus>
<clus scale="  205.177">  2  7  1 -1</clus>
<clus scale="   35.961">  1  5  2 -1</clus>
</clustering>
</event>
<event>
 9    1  0.1601012E-005  0.1079685E+03  0.7546771E-02  0.1264418E+00
          1   -1    0    0  502    0 -0.00000000000E+00  0.00000000000E+00  0.46073246111E+03  0.46073246111E+03  0.00000000000E+00 0. -1.
         21   -1    0    0  501  502  0.00000000000E+00 -0.00000000000E+00 -0.77861746369E+02  0.77861746369E+02  0.00000000000E+00 0. -1.
         23    2    1    2    0    0 -0.27632583365E+02 -0.66399939234E+02  0.26650567451E+03  0.29079838767E+03  0.91465382146E+02 0.  0.
         23    2    1    2    0    0  0.11606417274E+02  0.38542092345E+02  0.16295118368E+03  0.19119929701E+03  0.91563535929E+02 0.  0.
        -13    1    3    3    0    0 -0.23481383902E+02  0.72721843280E+01  0.15241470315E+02  0.28923389708E+02  0.00000000000E+00 0.  1.
         13    1    3    3    0    0 -0.41511994630E+01 -0.73672123562E+02  0.25126420420E+03  0.26187499796E+03  0.00000000000E+00 0. -1.
        -13    1    4    4    0    0  0.12605461542E+01 -0.20215778409E+02  0.10866400020E+03  0.11053565765E+03  0.00000000000E+00 0. -1.
         13    1    4    4    0    0  0.10345871120E+02  0.58757870754E+02  0.54287183475E+02  0.80663639358E+02  0.00000000000E+00 0.  1.
          1    1    1    2  501    0  0.16026166091E+02  0.27857846889E+02 -0.46586143440E+02  0.56596522804E+02  0.00000000000E+00 0. -1.
<scales pt_clust_5="13000.00000" pt_clust_6="13000.00000" pt_clust_7="13000.00000" pt_clust_8="13000.00000" pt_clust_9="32.13872"></scales>
<clustering>
<clus scale="   32.139">  2  9  1 -1</clus>
<clus scale="   91.465">  5  6 -1 -1</clus>
<clus scale="   91.564">  7  8 -1 -1</clus>
<clus scale="  107.885">  1  5  2 -1</clus>
<clus scale="   32.139">  2  5  1 -1</clus>
</clustering>
</event>
<event>
 9    1  0.1601012E-005  0.1335953E+03  0.7546771E-02  0.1223165E+00
         -1   -1    0    0    0  501 -0.00000000000E+00  0.00000000000E+00  0.28894564095E+02  0.28894564095E+02  0.00000000000E+00 0.  1.
         21   -1    0    0  501  502  0.00000000000E+00 -0.00000000000E+00 -0.99142860102E+03  0.99142860102E+03  0.00000000000E+00 0.  1.
         23    2    1    2    0    0 -0.32970838526E+02  0.69258356255E+02 -0.26548813985E+03  0.29168067476E+03  0.93326670990E+02 0.  0.
         23    2    1    2    0    0  0.51461211247E+02 -0.11968192751E+03 -0.49866598388E+03  0.52312115234E+03  0.89531874316E+02 0.  0.
        -11    1    4    4    0    0  0.31645529094E+02 -0.11326581844E+03 -0.48285756060E+03  0.49697284530E+03  0.00000000000E+00 0.  1.
         11    1    4    4    0    0  0.19815682153E+02 -0.64161090677E+01 -0.15808423281E+02  0.26148307046E+02  0.00000000000E+00 0. -1.
        -13    1    3    3    0    0  0.10973191465E+02  0.75457204714E+02 -0.17526821127E+03  0.19113646056E+03  0.00000000000E+00 0.  1.
         13    1    3    3    0    0 -0.43944029991E+02 -0.61988484591E+01 -0.90219928584E+02  0.10054421419E+03  0.00000000000E+00 0. -1.
         -1    1    1    2    0  502 -0.18490372721E+02  0.50423571253E+02 -0.19837991320E+03  0.20552133802E+03  0.00000000000E+00 0.  1.
<scales pt_clust_5="13000.00000" pt_clust_6="13000.00000" pt_clust_7="13000.00000" pt_clust_8="13000.00000" pt_clust_9="53.70689"></scales>
<clustering>
<clus scale="   53.707">  2  9  1 -1</clus>
<clus scale="   89.532">  5  6 -1 -1</clus>
<clus scale="   93.327">  7  8 -1 -1</clus>
<clus scale="  130.973">  2  5  1 -1</clus>
<clus scale="   53.707">  2  5  1 -1</clus>
</clustering>
</event>
<event>
 9    1  0.1601012E-005  0.1926788E+03  0.7546771E-02  0.1156073E+00
          2   -1    0    0  502    0 -0.00000000000E+00  0.00000000000E+00  0.92564810611E+03  0.92564810611E+03  0.00000000000E+00 0. -1.
         21   -1    0    0  501  502  0.00000000000E+00 -0.00000000000E+00 -0.10598714385E+03  0.10598714385E+03  0.00000000000E+00 0.  1.
         23    2    1    2    0    0 -0.14968564160E+03 -0.64252827813E+02  0.65360907476E+03  0.67965793713E+03  0.90531053815E+02 0.  0.
         23    2    1    2    0    0  0.17157633210E+03  0.96182352638E+02  0.20421083167E+03  0.29761922322E+03  0.90474612818E+02 0.  0.
        -11    1    4    4    0    0  0.10261142329E+03  0.86707263442E+02  0.83209304037E+02  0.15802228324E+03  0.00000000000E+00 0.  1.
         11    1    4    4    0    0  0.68964908817E+02  0.94750891966E+01  0.12100152763E+03  0.13959693998E+03  0.00000000000E+00 0. -1.
        -11    1    3    3    0    0 -0.61432875603E+02 -0.67745124452E+02  0.24256295220E+03  0.25922998645E+03  0.00000000000E+00 0.  1.
         11    1    3    3    0    0 -0.88252766000E+02  0.34922966391E+01  0.41104612256E+03  0.42042795068E+03  0.00000000000E+00 0. -1.
          2    1    1    2  501    0 -0.21890690499E+02 -0.31929524825E+02 -0.38158944168E+02  0.54358089610E+02  0.00000000000E+00 0. -1.
<scales pt_clust_5="13000.00000" pt_clust_6="13000.00000" pt_clust_7="13000.00000" pt_clust_8="13000.00000" pt_clust_9="38.71301"></scales>
<clustering>
<clus scale="   38.713">  2  9  1 -1</clus>
<clus scale="   90.475">  5  6 -1 -1</clus>
<clus scale="   90.531">  7  8 -1 -1</clus>
<clus scale="  192.652">  2  5  1 -1</clus>
<clus scale="   38.713">  2  5  1 -1</clus>
</clustering>
</event>
<event>
 9    1  0.1601012E-005  0.1346604E+03  0.7546771E-02  0.1222513E+00
         -1   -1    0    0    0  501 -0.00000000000E+00  0.00000000000E+00  0.35611924348E+02  0.35611924348E+02  0.00000000000E+00 0.  1.
         21   -1    0    0  501  502  0.00000000000E+00 -0.00000000000E+00 -0.80250030790E+03  0.80250030790E+03  0.00000000000E+00 0.  1.
         23    2    1    2    0    0  0.18226945733E+02  0.75019839736E+02 -0.24422854270E+03  0.27436475176E+03  0.98327198843E+02 0.  0.
         23    2    1    2    0    0  0.25712918851E+02 -0.11394746885E+03 -0.31868971924E+03  0.35149790448E+03  0.91337067225E+02 0.  0.
        -11    1    3    3    0    0 -0.22000521614E+02  0.80114369544E+02 -0.14405263710E+03  0.16629340761E+03  0.00000000000E+00 0. -1.
         11    1    3    3    0    0  0.40227467347E+02 -0.50945298078E+01 -0.10017590560E+03  0.10807134415E+03  0.00000000000E+00 0.  1.
        -13    1    4    4    0    0 -0.30770424549E+02 -0.14970832961E+02 -0.79259736706E+02  0.86331053099E+02  0.00000000000E+00 0. -1.
         13    1    4    4    0    0  0.56483343400E+02 -0.98976635888E+02 -0.23942998254E+03  0.26516685138E+03  0.00000000000E+00 0.  1.
         -1    1    1    2    0  502 -0.43939864585E+02  0.38927629113E+02 -0.20397012161E+03  0.21224957601E+03  0.00000000000E+00 0.  1.
<scales pt_clust_5="13000.00000" pt_clust_6="13000.00000" pt_clust_7="13000.00000" pt_clust_8="13000.00000" pt_clust_9="58.70325"></scales>
<clustering>
<clus scale="   58.703">  2  9  1 -1</clus>
<clus scale="   91.337">  7  8 -1 -1</clus>
<clus scale="   98.327">  5  6 -1 -1</clus>
<clus scale="  129.644">  2  7  1 -1</clus>
<clus scale="   58.703">  2  5  1 -1</clus>
</clustering>
</event>
<event>
 9    1  0.1601012E-005  0.1069634E+03  0.7546771E-02  0.1266707E+00
         21   -1    0    0  501  502  0.00000000000E+00  0.00000000000E+00  0.13036830032E+03  0.13036830032E+03  0.00000000000E+00 0.  1.
          1   -1    0    0  502    0 -0.00000000000E+00 -0.00000000000E+00 -0.16124605063E+03  0.16124605063E+03  0.00000000000E+00 0. -1.
         23    2    1    2    0    0  0.46527380821E+02  0.12724298650E+02 -0.56367758496E+02  0.11756061796E+03  0.91194680519E+02 0.  0.
         23    2    1    2    0    0 -0.64270515134E+02  0.13896377796E+01 -0.28121095627E+02  0.11584572265E+03  0.92178116858E+02 0.  0.
        -11    1    4    4    0    0 -0.84515184399E+02  0.15599322695E+02 -0.13174832133E+02  0.86946716236E+02  0.00000000000E+00 0.  1.
         11    1    4    4    0    0  0.20244669265E+02 -0.14209684916E+02 -0.14946263495E+02  0.28899006410E+02  0.00000000000E+00 0. -1.
        -11    1    3    3    0    0 -0.11291322875E+02 -0.20604966826E+02  0.80194773258E+01  0.24826813060E+02  0.00000000000E+00 0.  1.
         11    1    3    3    0    0  0.57818703696E+02  0.33329265476E+02 -0.64387235822E+02  0.92733804899E+02  0.00000000000E+00 0. -1.
          1    1    1    2  501    0  0.17743134313E+02 -0.14113936430E+02  0.53611103810E+02  0.58208010347E+02  0.00000000000E+00 0. -1.
<scales pt_clust_5="13000.00000" pt_clust_6="13000.00000" pt_clust_7="13000.00000" pt_clust_8="13000.00000" pt_clust_9="22.67205"></scales>
<clustering>
<clus scale="   22.672">  1  9  2 -1</clus>
<clus scale="   91.195">  7  8 -1 -1</clus>
<clus scale="   92.178">  5  6 -1 -1</clus>
<clus scale="  106.117">  2  7  1 -1</clus>
<clus scale="   22.672">  1  5  2 -1</clus>
</clustering>
</event>
<event>
 9    1  0.1601012E-005  0.1218550E+03  0.7546771E-02  0.1240130E+00
         21   -1    0    0  501  502  0.00000000000E+00  0.00000000000E+00  0.18255741418E+03  0.18255741418E+03  0.00000000000E+00 0. -1.
          2   -1    0    0  502    0 -0.00000000000E+00 -0.00000000000E+00 -0.40076106320E+03  0.40076106320E+03  0.00000000000E+00 0. -1.
         23    2    1    2    0    0 -0.18798937188E+02  0.11643535336E+03 -0.24373603088E+03  0.28549144769E+03  0.90484929160E+02 0.  0.
         23    2    1    2    0    0 -0.52909687178E+02 -0.34269260939E+02 -0.87391111117E+02  0.14083942248E+03  0.90690238620E+02 0.  0.
        -11    1    4    4    0    0 -0.40321398238E+02  0.60285614222E+01  0.31988025957E+01  0.40894878001E+02  0.00000000000E+00 0. -1.
         11    1    4    4    0    0 -0.12588288939E+02 -0.40297822362E+02 -0.90589913713E+02  0.99944544483E+02  0.00000000000E+00 0.  1.
        -11    1    3    3    0    0 -0.15231590090E+02  0.33688287630E+02 -0.17197368620E+03  0.17590295849E+03  0.00000000000E+00 0.  1.
         11    1    3    3    0    0 -0.35673470979E+01  0.82747065729E+02 -0.71762344683E+02  0.10958848921E+03  0.00000000000E+00 0. -1.
          2    1    1    2  501    0  0.71708624366E+02 -0.82166092419E+02  0.11292349297E+03  0.15698760721E+03  0.00000000000E+00 0. -1.
<scales pt_clust_5="13000.00000" pt_clust_6="13000.00000" pt_clust_7="13000.00000" pt_clust_8="13000.00000" pt_clust_9="109.05684"></scales>
<clustering>
<clus scale="   90.485">  7  8 -1 -1</clus>
<clus scale="   90.690">  5  6 -1 -1</clus>
<clus scale="  109.057">  1  9  2 -1</clus>
<clus scale="  121.702">  2  7  1 -1</clus>
<clus scale="  109.057">  1  5  2 -1</clus>
</clustering>
</event>
<event>
 9    1  0.1601012E-005  0.1852155E+03  0.7546771E-02  0.1184421E+00
         21   -1    0    0  501  502  0.00000000000E+00  0.00000000000E+00  0.10366062031E+03  0.10366062031E+03  0.00000000000E+00 0.  1.
         -1   -1    0    0    0  501 -0.00000000000E+00 -0.00000000000E+00 -0.81435742900E+03  0.81435742900E+03  0.00000000000E+00 0.  1.
         23    2    1    2    0    0  0.67570670777E+02  0.38324156879E+01 -0.11318616518E+03  0.16024084884E+03  0.91024934447E+02 0.  0.
         23    2    1    2    0    0  0.10290719153E+03 -0.47175321947E+00 -0.56813177504E+03  0.58475375263E+03  0.92591170118E+02 0.  0.
        -11    1    3    3    0    0  0.89735120918E+02  0.61627586670E+01 -0.99306266406E+02  0.13398546962E+03  0.00000000000E+00 0.  1.
         11    1    3    3    0    0 -0.22164450141E+02 -0.23303429791E+01 -0.13879898772E+02  0.26255379228E+02  0.00000000000E+00 0. -1.
        -13    1    4    4    0    0  0.61527424838E+02 -0.43414261301E+02 -0.25054819437E+03  0.26161960896E+03  0.00000000000E+00 0.  1.
         13    1    4    4    0    0  0.41379766689E+02  0.42942508082E+02 -0.31758358067E+03  0.32313414367E+03  0.00000000000E+00 0. -1.
         -1    1    1    2    0  502 -0.17047786230E+03 -0.33606624684E+01 -0.29378868474E+02  0.17302344783E+03  0.00000000000E+00 0.  1.
<scales pt_clust_5="13000.00000" pt_clust_6="13000.00000" pt_clust_7="13000.00000" pt_clust_8="13000.00000" pt_clust_9="160.41091"></scales>
<clustering>
<clus scale="   91.025">  5  6 -1 -1</clus>
<clus scale="   92.591">  7  8 -1 -1</clus>
<clus scale="  113.429">  2  5  1 -1</clus>
<clus scale="  160.411">  1  9  2 -1</clus>
<clus scale="  160.411">  1  5  2 -1</clus>
</clustering>
</event>
<event>
 9    1  0.1601012E-005  0.1047509E+03  0.7546771E-02  0.1271347E+00
          1   -1    0    0  502    0 -0.00000000000E+00  0.00000000000E+00  0.53046705486E+03  0.53046705486E+03  0.00000000000E+00 0. -1.
         21   -1    0    0  501  502  0.00000000000E+00 -0.00000000000E+00 -0.28703215507E+02  0.28703215507E+02  0.00000000000E+00 0.  1.
         23    2    1    2    0    0  0.44931923944E+02  0.26731986784E+02  0.30846036261E+03  0.32595133071E+03  0.91449427480E+02 0.  0.
         23    2    1    2    0    0 -0.53087152593E+02 -0.20466737923E+01  0.15953277921E+03  0.19060048773E+03  0.89751900477E+02 0.  0.
        -11    1    3    3    0    0  0.25040852576E+02 -0.26976949906E+02  0.19937865259E+03  0.20274774286E+03  0.00000000000E+00 0. -1.
         11    1    3    3    0    0  0.19891071369E+02  0.53708936691E+02  0.10908171001E+03  0.12320358785E+03  0.00000000000E+00 0.  1.
        -13    1    4    4    0    0 -0.70539777985E+02  0.18647540104E+02  0.13764648936E+03  0.15578878991E+03  0.00000000000E+00 0.  1.
         13    1    4    4    0    0  0.17452625393E+02 -0.20694213896E+02  0.21886289850E+02  0.34811697822E+02  0.00000000000E+00 0. -1.
          1    1    1    2  501    0  0.81552286484E+01 -0.24685312992E+02  0.33770697537E+02  0.42618451919E+02  0.00000000000E+00 0. -1.
<scales pt_clust_5="13000.00000" pt_clust_6="13000.00000" pt_clust_7="13000.00000" pt_clust_8="13000.00000" pt_clust_9="25.99755"></scales>
<clustering>
<clus scale="   25.998">  2  9  1 -1</clus>
<clus scale="   89.752">  7  8 -1 -1</clus>
<clus scale="   91.449">  5  6 -1 -1</clus>
<clus scale="  103.272">  2  7  1 -1</clus>
<clus scale="   25.998">  2  5  1 -1</clus>
</clustering>
</event>
<event>
 9    1  0.1601012E-005  0.1030150E+03  0.7546771E-02  0.1274537E+00
         -1   -1    0    0    0  501 -0.00000000000E+00  0.00000000000E+00  0.15296589522E+03  0.15296589522E+03  0.00000000000E+00 0.  1.
         21   -1    0    0  501  502  0.00000000000E+00 -0.00000000000E+00 -0.36196928401E+03  0.36196928401E+03  0.00000000000E+00 0.  1.
         23    2    1    2    0    0 -0.37341379971E+02  0.38869872506E+02  0.69831285715E+02  0.12695721854E+03  0.91304333015E+02 0.  0.
         23    2    1    2    0    0  0.61406431231E+02  0.33935235106E+02 -0.17559727809E+02  0.11568343604E+03  0.90288223793E+02 0.  0.
        -11    1    4    4    0    0  0.83298738019E+02  0.28795675564E+02 -0.16750625180E+01  0.88151440834E+02  0.00000000000E+00 0.  1.
         11    1    4    4    0    0 -0.21892306787E+02  0.51395595418E+01 -0.15884665291E+02  0.27531995209E+02  0.00000000000E+00 0. -1.
        -13    1    3    3    0    0  0.12597984862E+01 -0.28379449904E+02  0.16574560290E+02  0.32889151979E+02  0.00000000000E+00 0.  1.
         13    1    3    3    0    0 -0.38601178458E+02  0.67249322410E+02  0.53256725426E+02  0.94068066558E+02  0.00000000000E+00 0. -1.
         -1    1    1    2    0  502 -0.24065051260E+02 -0.72805107612E+02 -0.26127494669E+03  0.27229452465E+03  0.00000000000E+00 0.  1.
<scales pt_clust_5="13000.00000" pt_clust_6="13000.00000" pt_clust_7="13000.00000" pt_clust_8="13000.00000" pt_clust_9="76.67927"></scales>
<clustering>
<clus scale="   76.679">  2  9  1 -1</clus>
<clus scale="   90.288">  5  6 -1 -1</clus>
<clus scale="   91.304">  7  8 -1 -1</clus>
<clus scale="  102.115">  2  5  1 -1</clus>
<clus scale="   76.679">  2  5  1 -1</clus>
</clustering>
</event>
<event>
 9    1  0.1601012E-005  0.1212700E+03  0.7546771E-02  0.1241249E+00
         21   -1    0    0  501  502  0.00000000000E+00  0.00000000000E+00  0.61646682203E+02  0.61646682203E+02  0.00000000000E+00 0.  1.
          1   -1    0    0  502    0 -0.00000000000E+00 -0.00000000000E+00 -0.60539102624E+03  0.60539102624E+03  0.00000000000E+00 0. -1.
         23    2    1    2    0    0  0.21325261445E+02 -0.71113592532E+02 -0.44097811322E+03  0.45660581322E+03  0.92278180021E+02 0.  0.
         23    2    1    2    0    0 -0.51981460132E+02  0.84461746620E+02 -0.11240275429E+03  0.17563479304E+03  0.91527823718E+02 0.  0.
        -11    1    3    3    0    0  0.44975912409E+02 -0.31618841711E+01 -0.20515186967E+03  0.21004789891E+03  0.00000000000E+00 0.  1.
         11    1    3    3    0    0 -0.23650650964E+02 -0.67951708361E+02 -0.23582624355E+03  0.24655791431E+03  0.00000000000E+00 0. -1.
        -13    1    4    4    0    0 -0.69852911343E+01  0.39086200022E+02 -0.10382549980E+03  0.11115871416E+03  0.00000000000E+00 0. -1.
         13    1    4    4    0    0 -0.44996168998E+02  0.45375546598E+02 -0.85772544908E+01  0.64476078883E+02  0.00000000000E+00 0.  1.
          1    1    1    2  501    0  0.30656198687E+02 -0.13348154088E+02  0.96365234762E+01  0.34797102181E+02  0.00000000000E+00 0. -1.
<scales pt_clust_5="13000.00000" pt_clust_6="13000.00000" pt_clust_7="13000.00000" pt_clust_8="13000.00000" pt_clust_9="33.43614"></scales>
<clustering>
<clus scale="   33.436">  1  9  2 -1</clus>
<clus scale="   91.528">  7  8 -1 -1</clus>
<clus scale="   92.278">  5  6 -1 -1</clus>
<clus scale="  120.700">  1  7  2 -1</clus>
<clus scale="   33.436">  1  5  2 -1</clus>
</clustering>
</event>
<event>
 9    1  0.1601012E-005  0.2274949E+03  0.7546771E-02  0.1128657E+00
          1   -1    0    0  502    0 -0.00000000000E+00  0.00000000000E+00  0.85061312744E+03  0.85061312744E+03  0.00000000000E+00 0. -1.
         21   -1    0    0  501  502  0.00000000000E+00 -0.00000000000E+00 -0.33113973966E+03  0.33113973966E+03  0.00000000000E+00 0. -1.
         23    2    1    2    0    0  0.20465338729E+03 -0.62811771367E+02  0.68123147174E+03  0.72009700390E+03  0.92924966432E+02 0.  0.
         23    2    1    2    0    0 -0.16020235245E+03  0.81434151962E+02  0.77150691822E+02  0.21793452499E+03  0.96160870930E+02 0.  0.
        -11    1    3    3    0    0  0.93251938892E+02 -0.47661599773E+02  0.19834078867E+03  0.22429137444E+03  0.00000000000E+00 0.  1.
         11    1    3    3    0    0  0.11140144840E+03 -0.15150171594E+02  0.48289068307E+03  0.49580562946E+03  0.00000000000E+00 0. -1.
        -13    1    4    4    0    0 -0.11202038358E+03  0.54592972577E+01  0.56714219361E+02  0.12567765490E+03  0.00000000000E+00 0.  1.
         13    1    4    4    0    0 -0.48181968863E+02  0.75974854704E+02  0.20436472461E+02  0.92256870083E+02  0.00000000000E+00 0. -1.
          1    1    1    2  501    0 -0.44451034848E+02 -0.18622380595E+02 -0.23890877577E+03  0.24372133821E+03  0.00000000000E+00 0. -1.
<scales pt_clust_5="13000.00000" pt_clust_6="13000.00000" pt_clust_7="13000.00000" pt_clust_8="13000.00000" pt_clust_9="48.19427"></scales>
<clustering>
<clus scale="   48.194">  2  9  1 -1</clus>
<clus scale="   92.925">  5  6 -1 -1</clus>
<clus scale="   96.161">  7  8 -1 -1</clus>
<clus scale="  226.146">  1  5  2 -1</clus>
<clus scale="   48.194">  2  5  1 -1</clus>
</clustering>
</event>
<event>
 9    1  0.1601012E-005  0.1606913E+03  0.7546771E-02  0.1188232E+00
         21   -1    0    0  501  502  0.00000000000E+00  0.00000000000E+00  0.82030332800E+02  0.82030332800E+02  0.00000000000E+00 0. -1.
          2   -1    0    0  502    0 -0.00000000000E+00 -0.00000000000E+00 -0.71337077098E+03  0.71337077098E+03  0.00000000000E+00 0.  1.
         23    2    1    2    0    0 -0.11242921806E+03 -0.57978655967E+02 -0.45308743984E+03  0.47908923556E+03  0.90754690588E+02 0.  0.
         23    2    1    2    0    0  0.14733533236E+03  0.22105087880E+02 -0.19612583121E+03  0.26316313487E+03  0.92699292416E+02 0.  0.
        -13    1    4    4    0    0  0.76071175117E+02 -0.35392723258E+02 -0.94082704475E+02  0.12605960425E+03  0.00000000000E+00 0. -1.
         13    1    4    4    0    0  0.71264157245E+02  0.57497811138E+02 -0.10204312674E+03  0.13710353062E+03  0.00000000000E+00 0.  1.
        -13    1    3    3    0    0 -0.12481965020E+02 -0.52508863501E+02 -0.12722852196E+03  0.13820302817E+03  0.00000000000E+00 0. -1.
         13    1    3    3    0    0 -0.99947253042E+02 -0.54697924659E+01 -0.32585891788E+03  0.34088620738E+03  0.00000000000E+00 0.  1.
          2    1    1    2  501    0 -0.34906114300E+02  0.35873568088E+02  0.17872832866E+02  0.53148733357E+02  0.00000000000E+00 0.  1.
<scales pt_clust_5="13000.00000" pt_clust_6="13000.00000" pt_clust_7="13000.00000" pt_clust_8="13000.00000" pt_clust_9="50.05347"></scales>
<clustering>
<clus scale="   50.053">  1  9  2 -1</clus>
<clus scale="   90.755">  7  8 -1 -1</clus>
<clus scale="   92.699">  5  6 -1 -1</clus>
<clus scale="  159.577">  2  7  1 -1</clus>
<clus scale="   50.053">  1  5  2 -1</clus>
</clustering>
</event>
<event>
 9    1  0.1601012E-005  0.1160758E+03  0.7546771E-02  0.1259392E+00
          1   -1    0    0  502    0 -0.00000000000E+00  0.00000000000E+00  0.24328962158E+03  0.24328962158E+03  0.00000000000E+00 0. -1.
         21   -1    0    0  501  502  0.00000000000E+00 -0.00000000000E+00 -0.76947463796E+02  0.76947463796E+02  0.00000000000E+00 0.  1.
         23    2    1    2    0    0  0.18591877018E+02 -0.27104126375E+02  0.14197891139E+03  0.18470061635E+03  0.11347252903E+03 0.  0.
         23    2    1    2    0    0  0.17439717560E+02  0.16969631118E+02  0.14925878354E+02  0.96935332801E+02  0.92636735542E+02 0.  0.
        -13    1    3    3    0    0  0.20100855178E+02 -0.68919651169E+02  0.63870607080E+02  0.96090671477E+02  0.00000000000E+00 0.  1.
         13    1    3    3    0    0 -0.15089781596E+01  0.41815524794E+02  0.78108304308E+02  0.88609944875E+02  0.00000000000E+00 0. -1.
        -13    1    4    4    0    0  0.47127556515E+02  0.26872794300E+02  0.30222392229E+02  0.62101100220E+02  0.00000000000E+00 0.  1.
         13    1    4    4    0    0 -0.29687838955E+02 -0.99031631822E+01 -0.15296513874E+02  0.34834232581E+02  0.00000000000E+00 0. -1.
          1    1    1    2  501    0 -0.36031594578E+02  0.10134495257E+02  0.94373680368E+01  0.38601136219E+02  0.00000000000E+00 0. -1.
<scales pt_clust_5="13000.00000" pt_clust_6="13000.00000" pt_clust_7="13000.00000" pt_clust_8="13000.00000" pt_clust_9="37.42972"></scales>
<clustering>
<clus scale="   37.430">  2  9  1 -1</clus>
<clus scale="   92.637">  7  8 -1 -1</clus>
<clus scale="   95.808">  2  7  1 -1</clus>
<clus scale="  113.473">  5  6 -1 -1</clus>
<clus scale="   37.430">  2  5  1 -1</clus>
</clustering>
</event>
<event>
 9    1  0.1601012E-005  0.1497930E+03  0.7546771E-02  0.1200764E+00
         21   -1    0    0  501  502  0.00000000000E+00  0.00000000000E+00  0.80008665504E+02  0.80008665504E+02  0.00000000000E+00 0. -1.
          2   -1    0    0  502    0 -0.00000000000E+00 -0.00000000000E+00 -0.66711163395E+03  0.66711163395E+03  0.00000000000E+00 0. -1.
         23    2    1    2    0    0  0.55366109947E+02  0.10016499094E+03 -0.40559338169E+03  0.43113589604E+03  0.90960090406E+02 0.  0.
         23    2    1    2    0    0 -0.13135200225E+03 -0.77949936873E+02 -0.10781767077E+03  0.20782774418E+03  0.90764420156E+02 0.  0.
        -13    1    3    3    0    0  0.63655628501E+02  0.28417465951E+02 -0.25104318517E+03  0.26054226573E+03  0.00000000000E+00 0. -1.
         13    1    3    3    0    0 -0.82895185540E+01  0.71747524986E+02 -0.15455019651E+03  0.17059363031E+03  0.00000000000E+00 0.  1.
        -13    1    4    4    0    0 -0.17565589807E+02  0.20325146369E+02 -0.11173100809E+02  0.29094667929E+02  0.00000000000E+00 0.  1.
         13    1    4    4    0    0 -0.11378641244E+03 -0.98275083241E+02 -0.96644569960E+02  0.17873307625E+03  0.00000000000E+00 0. -1.
          2    1    1    2  501    0  0.75985892299E+02 -0.22215054065E+02 -0.73691915995E+02  0.10815665924E+03  0.00000000000E+00 0. -1.
<scales pt_clust_5="13000.00000" pt_clust_6="13000.00000" pt_clust_7="13000.00000" pt_clust_8="13000.00000" pt_clust_9="79.16669"></scales>
<clustering>
<clus scale="   79.167">  1  9  2 -1</clus>
<clus scale="   90.764">  7  8 -1 -1</clus>
<clus scale="   90.960">  5  6 -1 -1</clus>
<clus scale="  149.674">  1  7  2 -1</clus>
<clus scale="   79.167">  1  5  2 -1</clus>
</clustering>
</event>
<event>
 9    1  0.1601012E-005  0.1836158E+03  0.7546771E-02  0.1165458E+00
         21   -1    0    0  501  502  0.00000000000E+00  0.00000000000E+00  0.65184238801E+03  0.65184238801E+03  0.00000000000E+00 0. -1.
          1   -1    0    0  502    0 -0.00000000000E+00 -0.00000000000E+00 -0.48876264511E+03  0.48876264511E+03  0.00000000000E+00 0. -1.
         23    2    1    2    0    0  0.13438791869E+03 -0.11797901252E+03 -0.39518475873E+03  0.44485531338E+03  0.98722318795E+02 0.  0.
         23    2    1    2    0    0 -0.34630083229E+02  0.91495272601E+02  0.49472313090E+01  0.13288826622E+03  0.89800827552E+02 0.  0.
        -11    1    3    3    0    0  0.67349991173E+02 -0.23246646282E+01 -0.17156117461E+03  0.18432216907E+03  0.00000000000E+00 0.  1.
         11    1    3    3    0    0  0.67037927520E+02 -0.11565434789E+03 -0.22362358411E+03  0.26053314431E+03  0.00000000000E+00 0. -1.
        -13    1    4    4    0    0 -0.63637120568E+02  0.78253379443E+02  0.52665796544E+01  0.10100005629E+03  0.00000000000E+00 0.  1.
         13    1    4    4    0    0  0.29007037339E+02  0.13241893158E+02 -0.31934834544E+00  0.31888209936E+02  0.00000000000E+00 0. -1.
          1    1    1    2  501    0 -0.99757835465E+02  0.26483739917E+02  0.55331727032E+03  0.56286145352E+03  0.00000000000E+00 0. -1.
<scales pt_clust_5="13000.00000" pt_clust_6="13000.00000" pt_clust_7="13000.00000" pt_clust_8="13000.00000" pt_clust_9="103.21344"></scales>
<clustering>
<clus scale="   89.801">  7  8 -1 -1</clus>
<clus scale="   98.722">  5  6 -1 -1</clus>
<clus scale="  103.213">  1  9  2 -1</clus>
<clus scale="  178.977">  1  7  2 -1</clus>
<clus scale="  103.213">  1  5  2 -1</clus>
</clustering>
</event>
<event>
 9    1  0.1601012E-005  0.2782493E+03  0.7546771E-02  0.1097200E+00
          2   -1    0    0  502    0 -0.00000000000E+00  0.00000000000E+00  0.19445193448E+03  0.19445193448E+03  0.00000000000E+00 0. -1.
         21   -1    0    0  501  502  0.00000000000E+00 -0.00000000000E+00 -0.57505011521E+03  0.57505011521E+03  0.00000000000E+00 0.  1.
         23    2    1    2    0    0 -0.13924200806E+03 -0.21010430367E+03 -0.59213182364E+02  0.27472720051E+03  0.91851393591E+02 0.  0.
         23    2    1    2    0    0  0.17444314407E+03  0.20467441171E+03 -0.15993463684E+03  0.32944238733E+03  0.10310758063E+03 0.  0.
        -11    1    4    4    0    0  0.12407965264E+03  0.11467390023E+03 -0.44643987381E+02  0.17475396763E+03  0.00000000000E+00 0. -1.
         11    1    4    4    0    0  0.50363491437E+02  0.90000511484E+02 -0.11529064946E+03  0.15468841970E+03  0.00000000000E+00 0.  1.
        -11    1    3    3    0    0 -0.35438088696E+02 -0.44396980439E+02 -0.55114037108E+02  0.79148639211E+02  0.00000000000E+00 0.  1.
         11    1    3    3    0    0 -0.10380391937E+03 -0.16570732323E+03 -0.40991452565E+01  0.19557856130E+03  0.00000000000E+00 0. -1.
          2    1    1    2  501    0 -0.35201136012E+02  0.54298919629E+01 -0.16145036152E+03  0.16533246184E+03  0.00000000000E+00 0. -1.
<scales pt_clust_5="13000.00000" pt_clust_6="13000.00000" pt_clust_7="13000.00000" pt_clust_8="13000.00000" pt_clust_9="35.61746"></scales>
<clustering>
<clus scale="   35.617">  2  9  1 -1</clus>
<clus scale="   91.851">  7  8 -1 -1</clus>
<clus scale="  103.108">  5  6 -1 -1</clus>
<clus scale="  274.278">  1  7  2 -1</clus>
<clus scale="   35.617">  2  5  1 -1</clus>
</clustering>
</event>
<event>
 9    1  0.1601012E-005  0.9846705E+02  0.7546771E-02  0.1286878E+00
         21   -1    0    0  501  502  0.00000000000E+00  0.00000000000E+00  0.14121894556E+03  0.14121894556E+03  0.00000000000E+00 0. -1.
         -4   -1    0    0    0  501 -0.00000000000E+00 -0.00000000000E+00 -0.16843349177E+03  0.16843349177E+03  0.00000000000E+00 0.  1.
         23    2    1    2    0    0 -0.43560067615E+01 -0.16116303956E+02 -0.11815495554E+03  0.15402399338E+03  0.97386277119E+02 0.  0.
         23    2    1    2    0    0 -0.23826842207E+02  0.56890778686E+01  0.79289176266E+02  0.12339877979E+03  0.91325797915E+02 0.  0.
        -13    1    3    3    0    0 -0.45302823752E+02 -0.26406903554E+02 -0.86894939769E+02  0.10149089098E+03  0.00000000000E+00 0.  1.
         13    1    3    3    0    0  0.40946816991E+02  0.10290599598E+02 -0.31260015770E+02  0.52533102399E+02  0.00000000000E+00 0. -1.
        -13    1    4    4    0    0  0.30978187479E+02 -0.14497906990E+02  0.17666041078E+02  0.38495797354E+02  0.00000000000E+00 0. -1.
         13    1    4    4    0    0 -0.54805029686E+02  0.20186984858E+02  0.61623135189E+02  0.84902982439E+02  0.00000000000E+00 0.  1.
         -4    1    1    2    0  502  0.28182848969E+02  0.10427226087E+02  0.11651233056E+02  0.32229664156E+02  0.00000000000E+00 0.  1.
<scales pt_clust_5="13000.00000" pt_clust_6="13000.00000" pt_clust_7="13000.00000" pt_clust_8="13000.00000" pt_clust_9="30.04996"></scales>
<clustering>
<clus scale="   30.050">  1  9  2 -1</clus>
<clus scale="   91.326">  7  8 -1 -1</clus>
<clus scale="   92.477">  1  7  2 -1</clus>
<clus scale="   97.386">  5  6 -1 -1</clus>
<clus scale="   30.050">  1  5  2 -1</clus>
</clustering>
</event>
<event>
 9    1  0.1601012E-005  0.9709435E+02  0.7546771E-02  0.1286535E+00
          2   -1    0    0  502    0 -0.00000000000E+00  0.00000000000E+00  0.59766318619E+02  0.59766318619E+02  0.00000000000E+00 0. -1.
         21   -1    0    0  501  502  0.00000000000E+00 -0.00000000000E+00 -0.33440694123E+03  0.33440694123E+03  0.00000000000E+00 0.  1.
         23    2    1    2    0    0 -0.75666433002E+00  0.41006929570E+02 -0.60570185135E+02  0.11744335465E+03  0.91880647635E+02 0.  0.
         23    2    1    2    0    0 -0.50039805300E+02  0.24083978518E+00 -0.97248603186E+02  0.14283068649E+03  0.91865521631E+02 0.  0.
        -11    1    4    4    0    0 -0.59107322735E+02 -0.18099298428E+02 -0.10425600258E+03  0.12120467927E+03  0.00000000000E+00 0.  1.
         11    1    4    4    0    0  0.90675174355E+01  0.18340138213E+02  0.70073993901E+01  0.21626007221E+02  0.00000000000E+00 0. -1.
        -11    1    3    3    0    0 -0.42611033359E+02  0.14338207041E+01 -0.30862207875E+02  0.52632992320E+02  0.00000000000E+00 0.  1.
         11    1    3    3    0    0  0.41854369028E+02  0.39573108866E+02 -0.29707977260E+02  0.64810362327E+02  0.00000000000E+00 0. -1.
          2    1    1    2  501    0  0.50796469630E+02 -0.41247769355E+02 -0.11682183429E+03  0.13389921871E+03  0.00000000000E+00 0. -1.
<scales pt_clust_5="13000.00000" pt_clust_6="13000.00000" pt_clust_7="13000.00000" pt_clust_8="13000.00000" pt_clust_9="65.43439"></scales>
<clustering>
<clus scale="   65.434">  2  9  1 -1</clus>
<clus scale="   91.866">  5  6 -1 -1</clus>
<clus scale="   91.881">  7  8 -1 -1</clus>
<clus scale="   97.080">  2  5  1 -1</clus>
<clus scale="   65.434">  2  5  1 -1</clus>
</clustering>
</event>
<event>
 9    1  0.1601012E-005  0.1188436E+03  0.7546771E-02  0.1245091E+00
          1   -1    0    0  502    0 -0.00000000000E+00  0.00000000000E+00  0.64616230454E+03  0.64616230454E+03  0.00000000000E+00 0. -1.
         21   -1    0    0  501  502  0.00000000000E+00 -0.00000000000E+00 -0.66560645625E+02  0.66560645625E+02  0.00000000000E+00 0.  1.
         23    2    1    2    0    0  0.58071311398E+02 -0.41058621844E+02  0.48133779377E+03  0.49508466396E+03  0.91458543283E+02 0.  0.
         23    2    1    2    0    0 -0.97511137843E+02  0.52389625994E+02  0.45438018497E+02  0.15074686943E+03  0.91689204389E+02 0.  0.
        -11    1    4    4    0    0 -0.80322486077E+02  0.42103582403E+02 -0.10534109539E+02  0.91298307128E+02  0.00000000000E+00 0.  1.
         11    1    4    4    0    0 -0.17188651766E+02  0.10286043591E+02  0.55972128036E+02  0.59448562297E+02  0.00000000000E+00 0. -1.
        -13    1    3    3    0    0  0.46170707932E+02  0.22056698836E+02  0.23555729768E+03  0.24105076794E+03  0.00000000000E+00 0. -1.
         13    1    3    3    0    0  0.11900603466E+02 -0.63115320680E+02  0.24578049609E+03  0.25403389602E+03  0.00000000000E+00 0.  1.
          1    1    1    2  501    0  0.39439826445E+02 -0.11331004150E+02  0.52825846646E+02  0.66891416780E+02  0.00000000000E+00 0. -1.
<scales pt_clust_5="13000.00000" pt_clust_6="13000.00000" pt_clust_7="13000.00000" pt_clust_8="13000.00000" pt_clust_9="41.03525"></scales>
<clustering>
<clus scale="   41.035">  2  9  1 -1</clus>
<clus scale="   91.459">  7  8 -1 -1</clus>
<clus scale="   91.689">  5  6 -1 -1</clus>
<clus scale="  118.666">  1  7  2 -1</clus>
<clus scale="   41.035">  2  5  1 -1</clus>
</clustering>
</event>
<event>
 9    1  0.1601012E-005  0.1050747E+03  0.7546771E-02  0.1271608E+00
          1   -1    0    0  502    0 -0.00000000000E+00  0.00000000000E+00  0.10365795440E+03  0.10365795440E+03  0.00000000000E+00 0. -1.
         21   -1    0    0  501  502  0.00000000000E+00 -0.00000000000E+00 -0.27922936960E+03  0.27922936960E+03  0.00000000000E+00 0.  1.
         23    2    1    2    0    0 -0.74531670822E+02 -0.16030953738E+02  0.42338133074E+01  0.11739864270E+03  0.89177097393E+02 0.  0.
         23    2    1    2    0    0  0.21668347105E+02 -0.53150305937E+02 -0.65916719321E+02  0.12213188791E+03  0.85303645119E+02 0.  0.
        -11    1    4    4    0    0  0.39334058386E+02 -0.64164908053E+01 -0.59706944575E+02  0.71786201557E+02  0.00000000000E+00 0. -1.
         11    1    4    4    0    0 -0.17665711281E+02 -0.46733815132E+02 -0.62097747452E+01  0.50345686352E+02  0.00000000000E+00 0.  1.
        -13    1    3    3    0    0 -0.25144408610E+02  0.34805158893E+02 -0.12210239877E+02  0.44640008152E+02  0.00000000000E+00 0. -1.
         13    1    3    3    0    0 -0.49387262212E+02 -0.50836112631E+02  0.16444053185E+02  0.72758634548E+02  0.00000000000E+00 0.  1.
          1    1    1    2  501    0  0.52863323717E+02  0.69181259675E+02 -0.11388850919E+03  0.14335679339E+03  0.00000000000E+00 0. -1.
<scales pt_clust_5="13000.00000" pt_clust_6="13000.00000" pt_clust_7="13000.00000" pt_clust_8="13000.00000" pt_clust_9="87.06651"></scales>
<clustering>
<clus scale="   85.304">  5  6 -1 -1</clus>
<clus scale="   87.067">  2  9  1 -1</clus>
<clus scale="   89.177">  7  8 -1 -1</clus>
<clus scale="  101.808">  2  5  1 -1</clus>
<clus scale="   87.067">  2  5  1 -1</clus>
</clustering>
</event>
<event>
 9    1  0.1601012E-005  0.1726234E+03  0.7546771E-02  0.1175140E+00
         21   -1    0    0  501  502  0.00000000000E+00  0.00000000000E+00  0.21389587443E+02  0.21389587443E+02  0.00000000000E+00 0.  1.
          1   -1    0    0  502    0 -0.00000000000E+00 -0.00000000000E+00 -0.21369705592E+04  0.21369705592E+04  0.00000000000E+00 0. -1.
         23    2    1    2    0    0  0.39141374694E+00  0.12859958778E+03 -0.88160940059E+03  0.89579203113E+03  0.93114019596E+02 0.  0.
         23    2    1    2    0    0 -0.53265325047E+02 -0.16831617010E+03 -0.86611913601E+03  0.88881890621E+03  0.93108336334E+02 0.  0.
        -11    1    4    4    0    0 -0.36800543718E+02 -0.85271870362E+01 -0.20610427663E+03  0.20953750448E+03  0.00000000000E+00 0. -1.
         11    1    4    4    0    0 -0.16464781330E+02 -0.15978898306E+03 -0.66001485938E+03  0.67928140173E+03  0.00000000000E+00 0.  1.
        -11    1    3    3    0    0  0.36892568027E+02  0.11157207137E+03 -0.69733221695E+03  0.70716448545E+03  0.00000000000E+00 0. -1.
         11    1    3    3    0    0 -0.36501154280E+02  0.17027516407E+02 -0.18427718364E+03  0.18862754568E+03  0.00000000000E+00 0.  1.
          1    1    1    2  501    0  0.52873911300E+02  0.39716582323E+02 -0.36785243518E+03  0.37374920933E+03  0.00000000000E+00 0. -1.
<scales pt_clust_5="13000.00000" pt_clust_6="13000.00000" pt_clust_7="13000.00000" pt_clust_8="13000.00000" pt_clust_9="66.12913"></scales>
<clustering>
<clus scale="   66.129">  1  9  2 -1</clus>
<clus scale="   93.108">  5  6 -1 -1</clus>
<clus scale="   93.114">  7  8 -1 -1</clus>
<clus scale="  172.620">  1  5  2 -1</clus>
<clus scale="   66.129">  1  5  2 -1</clus>
</clustering>
</event>
<event>
 9    1  0.1601012E-005  0.2308470E+03  0.7546771E-02  0.1126211E+00
         21   -1    0    0  501  502  0.00000000000E+00  0.00000000000E+00  0.25165538759E+03  0.25165538759E+03  0.00000000000E+00 0.  1.
          3   -1    0    0  502    0 -0.00000000000E+00 -0.00000000000E+00 -0.59095842656E+03  0.59095842656E+03  0.00000000000E+00 0. -1.
         23    2    1    2    0    0  0.20462995310E+03  0.31677179348E+02 -0.45589545842E+03  0.50906399694E+03  0.91807530046E+02 0.  0.
         23    2    1    2    0    0 -0.22734518193E+03 -0.42680617540E+02  0.40023530153E+02  0.25292815707E+03  0.94145115735E+02 0.  0.
        -11    1    4    4    0    0 -0.71234131342E+02 -0.12136770361E+02 -0.31114668446E+02  0.78674806993E+02  0.00000000000E+00 0. -1.
         11    1    4    4    0    0 -0.15611105058E+03 -0.30543847179E+02  0.71138198599E+02  0.17425335008E+03  0.00000000000E+00 0.  1.
        -13    1    3    3    0    0  0.63486618875E+02  0.54274325281E+02 -0.17291491980E+03  0.19203078568E+03  0.00000000000E+00 0.  1.
         13    1    3    3    0    0  0.14114333422E+03 -0.22597145933E+02 -0.28298053862E+03  0.31703321126E+03  0.00000000000E+00 0. -1.
          3    1    1    2  501    0  0.22715228830E+02  0.11003438191E+02  0.76568889304E+02  0.80621660130E+02  0.00000000000E+00 0. -1.
<scales pt_clust_5="13000.00000" pt_clust_6="13000.00000" pt_clust_7="13000.00000" pt_clust_8="13000.00000" pt_clust_9="25.23999"></scales>
<clustering>
<clus scale="   25.240">  1  9  2 -1</clus>
<clus scale="   91.808">  7  8 -1 -1</clus>
<clus scale="   94.145">  5  6 -1 -1</clus>
<clus scale="  229.904">  2  7  1 -1</clus>
<clus scale="   25.240">  1  5  2 -1</clus>
</clustering>
</event>
<event>
 9    1  0.1601012E-005  0.1299769E+03  0.7546771E-02  0.1227635E+00
         21   -1    0    0  501  502  0.00000000000E+00  0.00000000000E+00  0.41072712696E+03  0.41072712696E+03  0.00000000000E+00 0.  1.
         -1   -1    0    0    0  501 -0.00000000000E+00 -0.00000000000E+00 -0.85350519932E+02  0.85350519932E+02  0.00000000000E+00 0.  1.
         23    2    1    2    0    0 -0.71399990547E+02  0.13760149680E+02  0.69983142252E+02  0.13614872596E+03  0.91386733234E+02 0.  0.
         23    2    1    2    0    0  0.13163128763E+03  0.47766094323E+02  0.16962220716E+03  0.23839704659E+03  0.91940540614E+02 0.  0.
        -11    1    4    4    0    0  0.12665630523E+03  0.95696532058E+01  0.11357594484E+03  0.17039041394E+03  0.00000000000E+00 0.  1.
         11    1    4    4    0    0  0.49749824068E+01  0.38196441117E+02  0.56046262322E+02  0.68006632649E+02  0.00000000000E+00 0. -1.
        -11    1    3    3    0    0 -0.66067763306E+02 -0.28650450875E+02  0.31379167697E+02  0.78552210974E+02  0.00000000000E+00 0. -1.
         11    1    3    3    0    0 -0.53322272407E+01  0.42410600555E+02  0.38603974555E+02  0.57596514983E+02  0.00000000000E+00 0.  1.
         -1    1    1    2    0  502 -0.60231297086E+02 -0.61526244002E+02  0.85771257620E+02  0.12153187435E+03  0.00000000000E+00 0.  1.
<scales pt_clust_5="13000.00000" pt_clust_6="13000.00000" pt_clust_7="13000.00000" pt_clust_8="13000.00000" pt_clust_9="86.10045"></scales>
<clustering>
<clus scale="   86.100">  1  9  2 -1</clus>
<clus scale="   91.387">  7  8 -1 -1</clus>
<clus scale="   91.941">  5  6 -1 -1</clus>
<clus scale="  129.586">  2  7  1 -1</clus>
<clus scale="   86.100">  1  5  2 -1</clus>
</clustering>
</event>
<event>
 9    1  0.1601012E-005  0.1646912E+03  0.7546771E-02  0.1184135E+00
         21   -1    0    0  501  502  0.00000000000E+00  0.00000000000E+00  0.54367760731E+02  0.54367760731E+02  0.00000000000E+00 0. -1.
          1   -1    0    0  502    0 -0.00000000000E+00 -0.00000000000E+00 -0.81442677736E+03  0.81442677736E+03  0.00000000000E+00 0. -1.
         23    2    1    2    0    0  0.10115272471E+03 -0.72111090719E+02 -0.32312721350E+03  0.35715858591E+03  0.87858842837E+02 0.  0.
         23    2    1    2    0    0 -0.16091926626E+03  0.40099062271E+02 -0.25751266317E+03  0.31983387388E+03  0.92076001987E+02 0.  0.
        -11    1    4    4    0    0 -0.99299764111E+02 -0.20365285932E+02 -0.16188432778E+03  0.19100189424E+03  0.00000000000E+00 0.  1.
         11    1    4    4    0    0 -0.61619502153E+02  0.60464348203E+02 -0.95628335385E+02  0.12883197964E+03  0.00000000000E+00 0. -1.
        -13    1    3    3    0    0  0.41383021239E+02 -0.80834690774E+02 -0.17423527386E+03  0.19648087015E+03  0.00000000000E+00 0. -1.
         13    1    3    3    0    0  0.59769703474E+02  0.87236000550E+01 -0.14889193964E+03  0.16067771576E+03  0.00000000000E+00 0.  1.
          1    1    1    2  501    0  0.59766541551E+02  0.32012028449E+02 -0.17941913996E+03  0.19180207829E+03  0.00000000000E+00 0. -1.
<scales pt_clust_5="13000.00000" pt_clust_6="13000.00000" pt_clust_7="13000.00000" pt_clust_8="13000.00000" pt_clust_9="67.79981"></scales>
<clustering>
<clus scale="   67.800">  1  9  2 -1</clus>
<clus scale="   87.859">  7  8 -1 -1</clus>
<clus scale="   92.076">  5  6 -1 -1</clus>
<clus scale="  162.371">  2  7  1 -1</clus>
<clus scale="   67.800">  1  5  2 -1</clus>
</clustering>
</event>
<event>
 9    1  0.1601012E-005  0.1500649E+03  0.7546771E-02  0.1203074E+00
          1   -1    0    0  502    0 -0.00000000000E+00  0.00000000000E+00  0.82268384213E+03  0.82268384213E+03  0.00000000000E+00 0. -1.
         21   -1    0    0  501  502  0.00000000000E+00 -0.00000000000E+00 -0.40099076020E+02  0.40099076020E+02  0.00000000000E+00 0.  1.
         23    2    1    2    0    0 -0.68342615870E+02 -0.76062028159E+02  0.32700544826E+03  0.35776442479E+03  0.10298871384E+03 0.  0.
         23    2    1    2    0    0  0.11501353097E+03  0.48656168287E+02  0.26123095457E+03  0.30327474059E+03  0.90213201032E+02 0.  0.
        -13    1    3    3    0    0 -0.60967847259E+01 -0.66605271794E+02  0.87575161097E+02  0.11019456364E+03  0.00000000000E+00 0.  1.
         13    1    3    3    0    0 -0.62245831144E+02 -0.94567563651E+01  0.23943028716E+03  0.24756986114E+03  0.00000000000E+00 0. -1.
        -13    1    4    4    0    0  0.18116767355E+02 -0.22443905195E+02  0.24752412712E+02  0.38008263244E+02  0.00000000000E+00 0. -1.
         13    1    4    4    0    0  0.96896763612E+02  0.71100073481E+02  0.23647854185E+03  0.26526647735E+03  0.00000000000E+00 0.  1.
          1    1    1    2  501    0 -0.46670915096E+02  0.27405859873E+02  0.19434836328E+03  0.20174375277E+03  0.00000000000E+00 0. -1.
<scales pt_clust_5="13000.00000" pt_clust_6="13000.00000" pt_clust_7="13000.00000" pt_clust_8="13000.00000" pt_clust_9="54.12262"></scales>
<clustering>
<clus scale="   54.123">  2  9  1 -1</clus>
<clus scale="   90.213">  7  8 -1 -1</clus>
<clus scale="  102.989">  5  6 -1 -1</clus>
<clus scale="  141.602">  2  7  1 -1</clus>
<clus scale="   54.123">  2  5  1 -1</clus>
</clustering>
</event>
<event>
 9    1  0.1601012E-005  0.1888630E+03  0.7546771E-02  0.1160281E+00
         21   -1    0    0  501  502  0.00000000000E+00  0.00000000000E+00  0.29103630844E+03  0.29103630844E+03  0.00000000000E+00 0. -1.
          2   -1    0    0  502    0 -0.00000000000E+00 -0.00000000000E+00 -0.86881651185E+03  0.86881651185E+03  0.00000000000E+00 0. -1.
         23    2    1    2    0    0  0.11354807570E+03 -0.25332594474E+02 -0.28176096625E+03  0.31853611286E+03  0.92418111057E+02 0.  0.
         23    2    1    2    0    0 -0.23350457294E+03  0.79376709784E+02 -0.51986522780E+03  0.58166818508E+03  0.85164398814E+02 0.  0.
        -13    1    3    3    0    0  0.49706389280E+02 -0.57158651301E+02 -0.12248427895E+03  0.14401470461E+03  0.00000000000E+00 0. -1.
         13    1    3    3    0    0  0.63841686417E+02  0.31826056827E+02 -0.15927668730E+03  0.17452140824E+03  0.00000000000E+00 0.  1.
        -13    1    4    4    0    0 -0.12737785515E+03  0.85109265496E+02 -0.33643978520E+03  0.36967612057E+03  0.00000000000E+00 0.  1.
         13    1    4    4    0    0 -0.10612671779E+03 -0.57325557123E+01 -0.18342544260E+03  0.21199206451E+03  0.00000000000E+00 0. -1.
          2    1    1    2  501    0  0.11995649724E+03 -0.54044115311E+02  0.22384599065E+03  0.25964852235E+03  0.00000000000E+00 0. -1.
<scales pt_clust_5="13000.00000" pt_clust_6="13000.00000" pt_clust_7="13000.00000" pt_clust_8="13000.00000" pt_clust_9="131.56872"></scales>
<clustering>
<clus scale="   85.164">  7  8 -1 -1</clus>
<clus scale="   92.418">  5  6 -1 -1</clus>
<clus scale="  131.569">  1  9  2 -1</clus>
<clus scale="  185.421">  1  7  2 -1</clus>
<clus scale="  131.569">  1  5  2 -1</clus>
</clustering>
</event>
<event>
 9    1  0.1601012E-005  0.9504343E+02  0.7546771E-02  0.1291654E+00
         -1   -1    0    0    0  501 -0.00000000000E+00  0.00000000000E+00  0.16265793224E+03  0.16265793224E+03  0.00000000000E+00 0.  1.
         21   -1    0    0  501  502  0.00000000000E+00 -0.00000000000E+00 -0.50702590772E+03  0.50702590772E+03  0.00000000000E+00 0. -1.
         23    2    1    2    0    0  0.17538904842E+01  0.25487989653E+02  0.13204910186E+03  0.16229929549E+03  0.90837119429E+02 0.  0.
         23    2    1    2    0    0 -0.25407567323E+02  0.14724538544E+02 -0.43312888176E+03  0.44374169942E+03  0.91889667910E+02 0.  0.
        -11    1    4    4    0    0 -0.59317244758E+02  0.68379739151E+01 -0.31413422769E+03  0.31975866903E+03  0.00000000000E+00 0.  1.
         11    1    4    4    0    0  0.33909677435E+02  0.78865646294E+01 -0.11899465408E+03  0.12398303039E+03  0.00000000000E+00 0. -1.
        -11    1    3    3    0    0  0.30361016085E+02 -0.26388877243E+01  0.74109976558E+01  0.31363639973E+02  0.00000000000E+00 0.  1.
         11    1    3    3    0    0 -0.28607125601E+02  0.28126877377E+02  0.12463810420E+03  0.13093565551E+03  0.00000000000E+00 0. -1.
         -1    1    1    2    0  502  0.23653676839E+02 -0.40212528197E+02 -0.43288195568E+02  0.63642845062E+02  0.00000000000E+00 0.  1.
<scales pt_clust_5="13000.00000" pt_clust_6="13000.00000" pt_clust_7="13000.00000" pt_clust_8="13000.00000" pt_clust_9="46.65344"></scales>
<clustering>
<clus scale="   46.653">  2  9  1 -1</clus>
<clus scale="   90.837">  7  8 -1 -1</clus>
<clus scale="   91.890">  5  6 -1 -1</clus>
<clus scale="   94.026">  1  7  2 -1</clus>
<clus scale="   46.653">  2  5  1 -1</clus>
</clustering>
</event>
<event>
 9    1  0.1601012E-005  0.1002180E+03  0.7546771E-02  0.1281441E+00
          1   -1    0    0  502    0 -0.00000000000E+00  0.00000000000E+00  0.59718493754E+03  0.59718493754E+03  0.00000000000E+00 0. -1.
         21   -1    0    0  501  502  0.00000000000E+00 -0.00000000000E+00 -0.77252603989E+02  0.77252603989E+02  0.00000000000E+00 0. -1.
         23    2    1    2    0    0 -0.35755514073E+02 -0.37356531444E+02  0.37578090629E+03  0.38989499332E+03  0.90182310083E+02 0.  0.
         23    2    1    2    0    0 -0.11028546103E+02  0.43766849750E+02  0.19313032372E+03  0.21650746339E+03  0.86827379293E+02 0.  0.
        -11    1    3    3    0    0  0.15291187718E+02  0.21285386764E+02  0.94700363637E+02  0.98260098639E+02  0.00000000000E+00 0.  1.
         11    1    3    3    0    0 -0.51046701791E+02 -0.58641918208E+02  0.28108054266E+03  0.29163489468E+03  0.00000000000E+00 0. -1.
        -13    1    4    4    0    0 -0.40918867472E+02  0.12226878319E+01  0.11989975307E+03  0.12669569633E+03  0.00000000000E+00 0. -1.
         13    1    4    4    0    0  0.29890321369E+02  0.42544161918E+02  0.73230570650E+02  0.89811767061E+02  0.00000000000E+00 0.  1.
          1    1    1    2  501    0  0.46784060175E+02 -0.64103183064E+01 -0.48978896469E+02  0.68035084821E+02  0.00000000000E+00 0. -1.
<scales pt_clust_5="13000.00000" pt_clust_6="13000.00000" pt_clust_7="13000.00000" pt_clust_8="13000.00000" pt_clust_9="47.22119"></scales>
<clustering>
<clus scale="   47.221">  2  9  1 -1</clus>
<clus scale="   86.827">  7  8 -1 -1</clus>
<clus scale="   90.182">  5  6 -1 -1</clus>
<clus scale="   97.210">  2  7  1 -1</clus>
<clus scale="   47.221">  2  5  1 -1</clus>
</clustering>
</event>
<event>
 9    1  0.1601012E-005  0.1202469E+03  0.7546771E-02  0.1243840E+00
          1   -1    0    0  502    0 -0.00000000000E+00  0.00000000000E+00  0.24628459062E+03  0.24628459062E+03  0.00000000000E+00 0. -1.
         21   -1    0    0  501  502  0.00000000000E+00 -0.00000000000E+00 -0.94802443776E+02  0.94802443776E+02  0.00000000000E+00 0.  1.
         23    2    1    2    0    0  0.62232297314E+02  0.12829145457E+02  0.96011728423E+02  0.14645773224E+03  0.90521652308E+02 0.  0.
         23    2    1    2    0    0 -0.96753523022E+02  0.15932906474E+02  0.61747754411E+02  0.14925997769E+03  0.94077914725E+02 0.  0.
        -11    1    3    3    0    0  0.13344842361E+02 -0.34592591739E+02  0.56910310409E+02  0.67922865456E+02  0.00000000000E+00 0. -1.
         11    1    3    3    0    0  0.48887454953E+02  0.47421737196E+02  0.39101418014E+02  0.78534866786E+02  0.00000000000E+00 0.  1.
        -11    1    4    4    0    0 -0.27871798172E+02  0.60976605040E+01 -0.25083602603E+02  0.37989547464E+02  0.00000000000E+00 0.  1.
         11    1    4    4    0    0 -0.68881724850E+02  0.98352459698E+01  0.86831357014E+02  0.11127043022E+03  0.00000000000E+00 0. -1.
          1    1    1    2  501    0  0.34521225707E+02 -0.28762051931E+02 -0.62773359879E+01  0.45369324468E+02  0.00000000000E+00 0. -1.
<scales pt_clust_5="13000.00000" pt_clust_6="13000.00000" pt_clust_7="13000.00000" pt_clust_8="13000.00000" pt_clust_9="44.93296"></scales>
<clustering>
<clus scale="   44.933">  2  9  1 -1</clus>
<clus scale="   90.522">  5  6 -1 -1</clus>
<clus scale="   94.078">  7  8 -1 -1</clus>
<clus scale="  117.485">  1  5  2 -1</clus>
<clus scale="   44.933">  2  5  1 -1</clus>
</clustering>
</event>
<event>
 9    1  0.1601012E-005  0.1253933E+03  0.7546771E-02  0.1234706E+00
         21   -1    0    0  501  502  0.00000000000E+00  0.00000000000E+00  0.18748865966E+03  0.18748865966E+03  0.00000000000E+00 0. -1.
          1   -1    0    0  502    0 -0.00000000000E+00 -0.00000000000E+00 -0.24446851978E+03  0.24446851978E+03  0.00000000000E+00 0. -1.
         23    2    1    2    0    0 -0.22600636060E+02  0.68311470371E+02 -0.12974302765E+03  0.17465202760E+03  0.92156561283E+02 0.  0.
         23    2    1    2    0    0  0.47682208255E+02 -0.11117384127E+03 -0.18187456920E+02  0.15367945912E+03  0.93023527132E+02 0.  0.
        -13    1    4    4    0    0  0.29725392283E+02 -0.69940379517E+02 -0.56421347893E+02  0.94650008618E+02  0.00000000000E+00 0. -1.
         13    1    4    4    0    0  0.17956815972E+02 -0.41233461753E+02  0.38233890972E+02  0.59029450505E+02  0.00000000000E+00 0.  1.
        -13    1    3    3    0    0 -0.34414255921E+02  0.24613205905E+02 -0.58055854146E+01  0.42706624047E+02  0.00000000000E+00 0.  1.
         13    1    3    3    0    0  0.11813619861E+02  0.43698264466E+02 -0.12393744224E+03  0.13194540356E+03  0.00000000000E+00 0. -1.
          1    1    1    2  501    0 -0.25081572195E+02  0.42862370900E+02  0.90950624454E+02  0.10362569272E+03  0.00000000000E+00 0. -1.
<scales pt_clust_5="13000.00000" pt_clust_6="13000.00000" pt_clust_7="13000.00000" pt_clust_8="13000.00000" pt_clust_9="49.66154"></scales>
<clustering>
<clus scale="   49.662">  1  9  2 -1</clus>
<clus scale="   92.157">  7  8 -1 -1</clus>
<clus scale="   93.024">  5  6 -1 -1</clus>
<clus scale="  124.751">  2  7  1 -1</clus>
<clus scale="   49.662">  1  5  2 -1</clus>
</clustering>
</event>
<event>
 9    1  0.1601012E-005  0.2475369E+03  0.7546771E-02  0.1122948E+00
         21   -1    0    0  501  502  0.00000000000E+00  0.00000000000E+00  0.14183422171E+03  0.14183422171E+03  0.00000000000E+00 0. -1.
          1   -1    0    0  502    0 -0.00000000000E+00 -0.00000000000E+00 -0.20566609584E+04  0.20566609584E+04  0.00000000000E+00 0. -1.
         23    2    1    2    0    0  0.28010339035E+02 -0.17763776151E+03 -0.39806813492E+03  0.44646897610E+03  0.92393469343E+02 0.  0.
         23    2    1    2    0    0  0.14423409443E+03  0.31934134737E+03 -0.14829458183E+04  0.15264350796E+04  0.89963225645E+02 0.  0.
        -11    1    4    4    0    0  0.11578326116E+03  0.15158885666E+03 -0.83644103413E+03  0.85791523392E+03  0.00000000000E+00 0. -1.
         11    1    4    4    0    0  0.28450833275E+02  0.16775249071E+03 -0.64650478420E+03  0.66851984567E+03  0.00000000000E+00 0.  1.
        -13    1    3    3    0    0 -0.32532565379E+02 -0.50335567386E+02 -0.96792584567E+02  0.11384569198E+03  0.00000000000E+00 0.  1.
         13    1    3    3    0    0  0.60542904414E+02 -0.12730219412E+03 -0.30127555035E+03  0.33262328413E+03  0.00000000000E+00 0. -1.
          1    1    1    2  501    0 -0.17224443347E+03 -0.14170358586E+03 -0.33812783474E+02  0.22559112446E+03  0.00000000000E+00 0. -1.
<scales pt_clust_5="13000.00000" pt_clust_6="13000.00000" pt_clust_7="13000.00000" pt_clust_8="13000.00000" pt_clust_9="230.61039"></scales>
<clustering>
<clus scale="   89.963">  5  6 -1 -1</clus>
<clus scale="   92.393">  7  8 -1 -1</clus>
<clus scale="  202.179">  2  7  1 -1</clus>
<clus scale="  230.610">  1  9  2 -1</clus>
<clus scale="  230.610">  1  5  2 -1</clus>
</clustering>
</event>
<event>
 9    1  0.1771541E-005  0.1158000E+03  0.7546771E-02  0.1250310E+00
          2   -1    0    0  502    0 -0.00000000000E+00  0.00000000000E+00  0.66574844036E+03  0.66574844036E+03  0.00000000000E+00 0. -1.
         21   -1    0    0  501  502  0.00000000000E+00 -0.00000000000E+00 -0.13750822987E+03  0.13750822987E+03  0.00000000000E+00 0. -1.
         23    2    1    2    0    0 -0.60219960823E+02  0.44312097879E+02  0.59321492903E+03  0.60483545003E+03  0.91279591870E+02 0.  0.
         23    2    1    2    0    0  0.25284690892E+02 -0.42302445149E+02  0.21052298544E+02  0.10554948361E+03  0.90932292159E+02 0.  0.
        -11    1    4    4    0    0 -0.34101921212E+02 -0.15189265187E+02  0.14065367473E+02  0.39893475274E+02  0.00000000000E+00 0. -1.
         11    1    4    4    0    0  0.59386612104E+02 -0.27113179962E+02  0.69869310707E+01  0.65656008336E+02  0.00000000000E+00 0.  1.
        -13    1    3    3    0    0 -0.47021748006E+02 -0.19720971611E+02  0.21132694850E+03  0.21739144571E+03  0.00000000000E+00 0.  1.
         13    1    3    3    0    0 -0.13198212817E+02  0.64033069490E+02  0.38188798053E+03  0.38744400432E+03  0.00000000000E+00 0. -1.
          2    1    1    2  501    0  0.34935269931E+02 -0.20096527295E+01 -0.86027017086E+02  0.92871736594E+02  0.00000000000E+00 0. -1.
<scales pt_clust_5="13000.00000" pt_clust_6="13000.00000" pt_clust_7="13000.00000" pt_clust_8="13000.00000" pt_clust_9="34.99302"></scales>
<clustering>
<clus scale="   34.993">  2  9  1 -1</clus>
<clus scale="   90.932">  5  6 -1 -1</clus>
<clus scale="   91.280">  7  8 -1 -1</clus>
<clus scale="  115.526">  2  5  1 -1</clus>
<clus scale="   34.993">  2  5  1 -1</clus>
</clustering>
</event>
<event>
 9    1  0.1601012E-005  0.1100997E+03  0.7546771E-02  0.1262013E+00
          4   -1    0    0  502    0 -0.00000000000E+00  0.00000000000E+00  0.31386777091E+03  0.31386777091E+03  0.00000000000E+00 0. -1.
         21   -1    0    0  501  502  0.00000000000E+00 -0.00000000000E+00 -0.81725709348E+02  0.81725709348E+02  0.00000000000E+00 0.  1.
         23    2    1    2    0    0  0.37312841541E+02 -0.30728423370E+02  0.18909610805E+03  0.21487278728E+03  0.89869307810E+02 0.  0.
         23    2    1    2    0    0 -0.75104084095E+02  0.48365479948E+02  0.49007658400E+02  0.13859248742E+03  0.93948304349E+02 0.  0.
        -11    1    4    4    0    0 -0.35047903481E+02 -0.26813177226E+02  0.12103796944E+02  0.45758102144E+02  0.00000000000E+00 0.  1.
         11    1    4    4    0    0 -0.40056180615E+02  0.75178657174E+02  0.36903861456E+02  0.92834385280E+02  0.00000000000E+00 0. -1.
        -13    1    3    3    0    0  0.57806191548E+02  0.61905102457E+01  0.12823544213E+03  0.14079846170E+03  0.00000000000E+00 0. -1.
         13    1    3    3    0    0 -0.20493350007E+02 -0.36918933615E+02  0.60860665917E+02  0.74074325577E+02  0.00000000000E+00 0.  1.
          4    1    1    2  501    0  0.37791242554E+02 -0.17637056578E+02 -0.59617048847E+01  0.42128205559E+02  0.00000000000E+00 0. -1.
<scales pt_clust_5="13000.00000" pt_clust_6="13000.00000" pt_clust_7="13000.00000" pt_clust_8="13000.00000" pt_clust_9="41.70424"></scales>
<clustering>
<clus scale="   41.704">  2  9  1 -1</clus>
<clus scale="   89.869">  7  8 -1 -1</clus>
<clus scale="   93.948">  5  6 -1 -1</clus>
<clus scale="  106.640">  1  7  2 -1</clus>
<clus scale="   41.704">  2  5  1 -1</clus>
</clustering>
</event>
<event>
 9    1  0.1601012E-005  0.1923729E+03  0.7546771E-02  0.1156887E+00
         21   -1    0    0  501  502  0.00000000000E+00  0.00000000000E+00  0.17641231081E+03  0.17641231081E+03  0.00000000000E+00 0.  1.
         -3   -1    0    0    0  501 -0.00000000000E+00 -0.00000000000E+00 -0.33109635705E+03  0.33109635705E+03  0.00000000000E+00 0.  1.
         23    2    1    2    0    0  0.95355791866E+02  0.14723652841E+03 -0.21009765296E+03  0.28810813359E+03  0.89966385504E+02 0.  0.
         23    2    1    2    0    0 -0.88168781351E+02 -0.11683019471E+03  0.25914623157E+02  0.17643091382E+03  0.95043522970E+02 0.  0.
        -11    1    3    3    0    0  0.14122491096E+02  0.58918205913E+02 -0.20946911715E+02  0.64105950216E+02  0.00000000000E+00 0.  1.
         11    1    3    3    0    0  0.81233300770E+02  0.88318322500E+02 -0.18915074125E+03  0.22400218338E+03  0.00000000000E+00 0. -1.
        -13    1    4    4    0    0 -0.62242250018E+02 -0.12784244644E+02  0.27389222968E+02  0.69193237626E+02  0.00000000000E+00 0.  1.
         13    1    4    4    0    0 -0.25926531334E+02 -0.10404595006E+03 -0.14745998108E+01  0.10723767620E+03  0.00000000000E+00 0. -1.
         -3    1    1    2    0  502 -0.71870105150E+01 -0.30406333707E+02  0.29498983568E+02  0.42969620445E+02  0.00000000000E+00 0.  1.
<scales pt_clust_5="13000.00000" pt_clust_6="13000.00000" pt_clust_7="13000.00000" pt_clust_8="13000.00000" pt_clust_9="31.24417"></scales>
<clustering>
<clus scale="   31.244">  1  9  2 -1</clus>
<clus scale="   89.966">  5  6 -1 -1</clus>
<clus scale="   95.044">  7  8 -1 -1</clus>
<clus scale="  189.916">  2  5  1 -1</clus>
<clus scale="   31.244">  1  5  2 -1</clus>
</clustering>
</event>
<event>
 9    1  0.1601012E-005  0.1123996E+03  0.7546771E-02  0.1256989E+00
         21   -1    0    0  501  502  0.00000000000E+00  0.00000000000E+00  0.34772194089E+03  0.34772194089E+03  0.00000000000E+00 0. -1.
         -1   -1    0    0    0  501 -0.00000000000E+00 -0.00000000000E+00 -0.60627614117E+02  0.60627614117E+02  0.00000000000E+00 0.  1.
         23    2    1    2    0    0 -0.15598714935E+02  0.60295428115E+02  0.68046575204E+02  0.12964259317E+03  0.91093397164E+02 0.  0.
         23    2    1    2    0    0 -0.35890180551E+02 -0.66729167260E+02  0.14525575928E+03  0.18849744192E+03  0.93226408192E+02 0.  0.
        -11    1    4    4    0    0  0.29601688542E+02 -0.70421791034E+01  0.48885530516E+02  0.57581658059E+02  0.00000000000E+00 0.  1.
         11    1    4    4    0    0 -0.65491869094E+02 -0.59686988156E+02  0.96370228765E+02  0.13091578386E+03  0.00000000000E+00 0. -1.
        -13    1    3    3    0    0  0.16940413098E+02  0.56777101900E+02  0.75601525067E+02  0.96053149291E+02  0.00000000000E+00 0.  1.
         13    1    3    3    0    0 -0.32539128033E+02  0.35183262146E+01 -0.75549498630E+01  0.33589443877E+02  0.00000000000E+00 0. -1.
         -1    1    1    2    0  502  0.51488895487E+02  0.64337391446E+01  0.73791992290E+02  0.90209519919E+02  0.00000000000E+00 0.  1.
<scales pt_clust_5="13000.00000" pt_clust_6="13000.00000" pt_clust_7="13000.00000" pt_clust_8="13000.00000" pt_clust_9="51.88930"></scales>
<clustering>
<clus scale="   51.889">  1  9  2 -1</clus>
<clus scale="   91.093">  7  8 -1 -1</clus>
<clus scale="   93.226">  5  6 -1 -1</clus>
<clus scale="  110.637">  2  7  1 -1</clus>
<clus scale="   51.889">  1  5  2 -1</clus>
</clustering>
</event>
<event>
 9    1  0.1601012E-005  0.1169257E+03  0.7546771E-02  0.1248278E+00
         21   -1    0    0  501  502  0.00000000000E+00  0.00000000000E+00  0.55306933762E+02  0.55306933762E+02  0.00000000000E+00 0. -1.
          1   -1    0    0  502    0 -0.00000000000E+00 -0.00000000000E+00 -0.42235636014E+03  0.42235636014E+03  0.00000000000E+00 0. -1.
         23    2    1    2    0    0  0.83321303442E+02  0.35941348710E+02 -0.25263435194E+03  0.28333149814E+03  0.90655401960E+02 0.  0.
         23    2    1    2    0    0 -0.45403839633E+02 -0.24824895307E+02 -0.11438637811E+03  0.15481837499E+03  0.90590847529E+02 0.  0.
        -11    1    4    4    0    0  0.25241443916E+02 -0.13110028514E+02 -0.14530500173E+02  0.31939611361E+02  0.00000000000E+00 0.  1.
         11    1    4    4    0    0 -0.70645283549E+02 -0.11714866792E+02 -0.99855877934E+02  0.12287876362E+03  0.00000000000E+00 0. -1.
        -11    1    3    3    0    0  0.27128848593E+02 -0.30778207642E+02 -0.79173525802E+02  0.89172415464E+02  0.00000000000E+00 0.  1.
         11    1    3    3    0    0  0.56192454848E+02  0.66719556352E+02 -0.17346082614E+03  0.19415908268E+03  0.00000000000E+00 0. -1.
          1    1    1    2  501    0 -0.37917463808E+02 -0.11116453403E+02 -0.28696330723E-01  0.39513420776E+02  0.00000000000E+00 0. -1.
<scales pt_clust_5="13000.00000" pt_clust_6="13000.00000" pt_clust_7="13000.00000" pt_clust_8="13000.00000" pt_clust_9="39.51341"></scales>
<clustering>
<clus scale="   39.513">  1  9  2 -1</clus>
<clus scale="   90.591">  5  6 -1 -1</clus>
<clus scale="   90.655">  7  8 -1 -1</clus>
<clus scale="  116.876">  1  5  2 -1</clus>
<clus scale="   39.513">  1  5  2 -1</clus>
</clustering>
</event>
<event>
 9    1  0.1601012E-005  0.1045887E+03  0.7546771E-02  0.1273110E+00
         21   -1    0    0  501  502  0.00000000000E+00  0.00000000000E+00  0.16106015207E+03  0.16106015207E+03  0.00000000000E+00 0.  1.
         -1   -1    0    0    0  501 -0.00000000000E+00 -0.00000000000E+00 -0.32700301835E+03  0.32700301835E+03  0.00000000000E+00 0.  1.
         23    2    1    2    0    0 -0.17499819233E+02 -0.43688014714E+02 -0.22717125423E+03  0.25099128986E+03  0.95786024743E+02 0.  0.
         23    2    1    2    0    0 -0.83079371299E+01 -0.13511439217E+02  0.11974082537E+03  0.15127256149E+03  0.91071080979E+02 0.  0.
        -13    1    4    4    0    0 -0.24967181215E+02 -0.46934079424E+02  0.54729072863E+02  0.76298357555E+02  0.00000000000E+00 0.  1.
         13    1    4    4    0    0  0.16659244085E+02  0.33422640207E+02  0.65011752504E+02  0.74974203934E+02  0.00000000000E+00 0. -1.
        -13    1    3    3    0    0 -0.52790541268E+00  0.27797562567E+02 -0.10323650168E+03  0.10691472513E+03  0.00000000000E+00 0. -1.
         13    1    3    3    0    0 -0.16971913820E+02 -0.71485577281E+02 -0.12393475255E+03  0.14407656474E+03  0.00000000000E+00 0.  1.
         -1    1    1    2    0  502  0.25807756363E+02  0.57199453931E+02 -0.58512437416E+02  0.85799319058E+02  0.00000000000E+00 0.  1.
<scales pt_clust_5="13000.00000" pt_clust_6="13000.00000" pt_clust_7="13000.00000" pt_clust_8="13000.00000" pt_clust_9="62.75207"></scales>
<clustering>
<clus scale="   62.752">  1  9  2 -1</clus>
<clus scale="   91.071">  5  6 -1 -1</clus>
<clus scale="   95.786">  7  8 -1 -1</clus>
<clus scale="  100.288">  1  5  2 -1</clus>
<clus scale="   62.752">  1  5  2 -1</clus>
</clustering>
</event>
<event>
 9    1  0.1601012E-005  0.1063381E+03  0.7546771E-02  0.1275152E+00
         21   -1    0    0  501  502  0.00000000000E+00  0.00000000000E+00  0.20947964469E+03  0.20947964469E+03  0.00000000000E+00 0. -1.
          1   -1    0    0  502    0 -0.00000000000E+00 -0.00000000000E+00 -0.22453263150E+03  0.22453263150E+03  0.00000000000E+00 0. -1.
         23    2    1    2    0    0 -0.24707730204E+02 -0.54461051993E+02 -0.18451210686E+03  0.21483367533E+03  0.92370516728E+02 0.  0.
         23    2    1    2    0    0  0.25550086631E+02  0.60048054641E+00  0.68829281430E+02  0.10503818232E+03  0.75115792349E+02 0.  0.
        -11    1    4    4    0    0  0.40109333441E+02 -0.21675969476E+02  0.20763884326E+02  0.50097356957E+02  0.00000000000E+00 0. -1.
         11    1    4    4    0    0 -0.14559246810E+02  0.22276450023E+02  0.48065397104E+02  0.54940825367E+02  0.00000000000E+00 0.  1.
        -13    1    3    3    0    0  0.23582159104E+02 -0.24568274605E+02 -0.13582077948E+03  0.14002500664E+03  0.00000000000E+00 0.  1.
         13    1    3    3    0    0 -0.48289889308E+02 -0.29892777388E+02 -0.48691327385E+02  0.74808668694E+02  0.00000000000E+00 0. -1.
          1    1    1    2  501    0 -0.84235642680E+00  0.53860571447E+02  0.10062983863E+03  0.11414041854E+03  0.00000000000E+00 0. -1.
<scales pt_clust_5="13000.00000" pt_clust_6="13000.00000" pt_clust_7="13000.00000" pt_clust_8="13000.00000" pt_clust_9="53.86716"></scales>
<clustering>
<clus scale="   53.867">  1  9  2 -1</clus>
<clus scale="   75.116">  5  6 -1 -1</clus>
<clus scale="   91.749">  1  5  2 -1</clus>
<clus scale="   92.371">  7  8 -1 -1</clus>
<clus scale="   53.867">  1  5  2 -1</clus>
</clustering>
</event>
<event>
 9    1  0.1601012E-005  0.1424481E+03  0.7546771E-02  0.1211617E+00
         21   -1    0    0  501  502  0.00000000000E+00  0.00000000000E+00  0.62864523999E+02  0.62864523999E+02  0.00000000000E+00 0.  1.
          1   -1    0    0  502    0 -0.00000000000E+00 -0.00000000000E+00 -0.49568128129E+03  0.49568128129E+03  0.00000000000E+00 0. -1.
         23    2    1    2    0    0  0.40998956572E+02 -0.95114502102E+02 -0.31200706435E+03  0.34141107299E+03  0.92116391616E+02 0.  0.
         23    2    1    2    0    0 -0.59555935015E+02  0.10509814752E+03 -0.12748425748E+03  0.19503078612E+03  0.84807084748E+02 0.  0.
        -11    1    4    4    0    0 -0.44410287587E+02  0.15291788399E+02 -0.12992034468E+02  0.48733001094E+02  0.00000000000E+00 0.  1.
         11    1    4    4    0    0 -0.15145647428E+02  0.89806359117E+02 -0.11449222302E+03  0.14629778503E+03  0.00000000000E+00 0. -1.
        -13    1    3    3    0    0  0.69697420666E+02 -0.74672489723E+02 -0.21075930444E+03  0.23420759077E+03  0.00000000000E+00 0.  1.
         13    1    3    3    0    0 -0.28698464095E+02 -0.20442012378E+02 -0.10124775992E+03  0.10720348222E+03  0.00000000000E+00 0. -1.
          1    1    1    2  501    0  0.18556978443E+02 -0.99836454151E+01  0.66745645426E+01  0.22103946176E+02  0.00000000000E+00 0. -1.
<scales pt_clust_5="13000.00000" pt_clust_6="13000.00000" pt_clust_7="13000.00000" pt_clust_8="13000.00000" pt_clust_9="21.07213"></scales>
<clustering>
<clus scale="   21.072">  1  9  2 -1</clus>
<clus scale="   84.807">  5  6 -1 -1</clus>
<clus scale="   92.116">  7  8 -1 -1</clus>
<clus scale="  137.834">  1  5  2 -1</clus>
<clus scale="   21.072">  1  5  2 -1</clus>
</clustering>
</event>
<event>
 9    1  0.1601012E-005  0.9696328E+02  0.7546771E-02  0.1286977E+00
         21   -1    0    0  501  502  0.00000000000E+00  0.00000000000E+00  0.28993055529E+03  0.28993055529E+03  0.00000000000E+00 0. -1.
          1   -1    0    0  502    0 -0.00000000000E+00 -0.00000000000E+00 -0.15374205988E+03  0.15374205988E+03  0.00000000000E+00 0. -1.
         23    2    1    2    0    0  0.44884997681E+02 -0.85725506274E+01 -0.41504443407E+02  0.10948362919E+03  0.90420653594E+02 0.  0.
         23    2    1    2    0    0 -0.10440724109E+02 -0.52250103276E+02 -0.34944357328E+02  0.11035774840E+03  0.90103509975E+02 0.  0.
        -11    1    3    3    0    0 -0.27046997758E+02  0.45789995953E+01 -0.55073891168E+01  0.27979254098E+02  0.00000000000E+00 0.  1.
         11    1    3    3    0    0  0.71931995439E+02 -0.13151550223E+02 -0.35997054290E+02  0.81504375089E+02  0.00000000000E+00 0. -1.
        -11    1    4    4    0    0 -0.42806105157E+02 -0.26230813401E+02  0.77498326249E+01  0.50798406630E+02  0.00000000000E+00 0.  1.
         11    1    4    4    0    0  0.32365381048E+02 -0.26019289874E+02 -0.42694189953E+02  0.59559341767E+02  0.00000000000E+00 0. -1.
          1    1    1    2  501    0 -0.34444273572E+02  0.60822653903E+02  0.21263729615E+03  0.22383123759E+03  0.00000000000E+00 0. -1.
<scales pt_clust_5="13000.00000" pt_clust_6="13000.00000" pt_clust_7="13000.00000" pt_clust_8="13000.00000" pt_clust_9="69.89852"></scales>
<clustering>
<clus scale="   69.899">  1  9  2 -1</clus>
<clus scale="   90.104">  7  8 -1 -1</clus>
<clus scale="   90.421">  5  6 -1 -1</clus>
<clus scale="   96.668">  1  7  2 -1</clus>
<clus scale="   69.899">  1  5  2 -1</clus>
</clustering>
</event>
<event>
 9    1  0.1601012E-005  0.1055686E+03  0.7546771E-02  0.1274608E+00
          2   -1    0    0  502    0 -0.00000000000E+00  0.00000000000E+00  0.11357568804E+04  0.11357568804E+04  0.00000000000E+00 0. -1.
         21   -1    0    0  501  502  0.00000000000E+00 -0.00000000000E+00 -0.16365263046E+02  0.16365263046E+02  0.00000000000E+00 0. -1.
         23    2    1    2    0    0  0.10146579921E+02 -0.25390448801E+01  0.51866144728E+03  0.52671190021E+03  0.91139064596E+02 0.  0.
         23    2    1    2    0    0 -0.41165637373E+02  0.26095158552E+02  0.54942344614E+03  0.56099400043E+03  0.10233561626E+03 0.  0.
        -11    1    4    4    0    0 -0.65475963416E+02  0.47104008160E+02  0.36657373978E+03  0.37534277144E+03  0.00000000000E+00 0. -1.
         11    1    4    4    0    0  0.24310326044E+02 -0.21008849608E+02  0.18284970635E+03  0.18565122900E+03  0.00000000000E+00 0.  1.
        -11    1    3    3    0    0 -0.28706412223E+01  0.43637482881E+02  0.24069454493E+03  0.24463510470E+03  0.00000000000E+00 0.  1.
         11    1    3    3    0    0  0.13017221143E+02 -0.46176527761E+02  0.27796690235E+03  0.28207679551E+03  0.00000000000E+00 0. -1.
          2    1    1    2  501    0  0.31019057451E+02 -0.23556113671E+02  0.51306723960E+02  0.64416242828E+02  0.00000000000E+00 0. -1.
<scales pt_clust_5="13000.00000" pt_clust_6="13000.00000" pt_clust_7="13000.00000" pt_clust_8="13000.00000" pt_clust_9="38.94961"></scales>
<clustering>
<clus scale="   38.950">  2  9  1 -1</clus>
<clus scale="   91.139">  7  8 -1 -1</clus>
<clus scale="   94.755">  1  7  2 -1</clus>
<clus scale="  102.336">  5  6 -1 -1</clus>
<clus scale="   38.950">  2  5  1 -1</clus>
</clustering>
</event>
<event>
 9    1  0.1601012E-005  0.1622426E+03  0.7546771E-02  0.1186376E+00
         21   -1    0    0  501  502  0.00000000000E+00  0.00000000000E+00  0.46058266939E+03  0.46058266939E+03  0.00000000000E+00 0. -1.
          2   -1    0    0  502    0 -0.00000000000E+00 -0.00000000000E+00 -0.10052326635E+03  0.10052326635E+03  0.00000000000E+00 0. -1.
         23    2    1    2    0    0  0.68128740911E+02  0.11547845672E+03  0.35415811250E+02  0.16556747637E+03  0.90451701147E+02 0.  0.
         23    2    1    2    0    0 -0.25213717666E+02 -0.13693564606E+03  0.19083588079E+03  0.25338849027E+03  0.91653100792E+02 0.  0.
        -11    1    4    4    0    0 -0.31987691967E+02 -0.58925955342E+01  0.20797196911E+02  0.38606456958E+02  0.00000000000E+00 0.  1.
         11    1    4    4    0    0  0.67739743011E+01 -0.13104305052E+03  0.17003868388E+03  0.21478203331E+03  0.00000000000E+00 0. -1.
        -11    1    3    3    0    0  0.38990238837E+02  0.31750378286E+02  0.55267746887E+02  0.74718465534E+02  0.00000000000E+00 0. -1.
         11    1    3    3    0    0  0.29138502074E+02  0.83728078429E+02 -0.19851935637E+02  0.90849010832E+02  0.00000000000E+00 0.  1.
          2    1    1    2  501    0 -0.42915023244E+02  0.21457189341E+02  0.13380771100E+03  0.14214996911E+03  0.00000000000E+00 0. -1.
<scales pt_clust_5="13000.00000" pt_clust_6="13000.00000" pt_clust_7="13000.00000" pt_clust_8="13000.00000" pt_clust_9="47.98031"></scales>
<clustering>
<clus scale="   47.980">  1  9  2 -1</clus>
<clus scale="   90.452">  7  8 -1 -1</clus>
<clus scale="   91.653">  5  6 -1 -1</clus>
<clus scale="  161.567">  2  7  1 -1</clus>
<clus scale="   47.980">  1  5  2 -1</clus>
</clustering>
</event>
<event>
 9    1  0.1601012E-005  0.1152016E+03  0.7546771E-02  0.1251385E+00
         21   -1    0    0  501  502  0.00000000000E+00  0.00000000000E+00  0.39918235098E+03  0.39918235098E+03  0.00000000000E+00 0.  1.
          1   -1    0    0  502    0 -0.00000000000E+00 -0.00000000000E+00 -0.74634084781E+02  0.74634084781E+02  0.00000000000E+00 0. -1.
         23    2    1    2    0    0  0.58481172757E+02 -0.54763136121E+02  0.29214327724E+02  0.12508160095E+03  0.91503449700E+02 0.  0.
         23    2    1    2    0    0 -0.49487325983E+02  0.24687317617E+02  0.87252996549E+02  0.13829928047E+03  0.91951870494E+02 0.  0.
        -11    1    4    4    0    0 -0.20215907188E+02 -0.29745604983E+02  0.61708343855E+02  0.71424110919E+02  0.00000000000E+00 0. -1.
         11    1    4    4    0    0 -0.29271418795E+02  0.54432922600E+02  0.25544652694E+02  0.66875169549E+02  0.00000000000E+00 0.  1.
        -13    1    3    3    0    0  0.44196434439E+02  0.17343893762E+02  0.52576954079E+01  0.47767968650E+02  0.00000000000E+00 0.  1.
         13    1    3    3    0    0  0.14284738318E+02 -0.72107029884E+02  0.23956632316E+02  0.77313632300E+02  0.00000000000E+00 0. -1.
          1    1    1    2  501    0 -0.89938467737E+01  0.30075818505E+02  0.20808094193E+03  0.21043555435E+03  0.00000000000E+00 0. -1.
<scales pt_clust_5="13000.00000" pt_clust_6="13000.00000" pt_clust_7="13000.00000" pt_clust_8="13000.00000" pt_clust_9="31.39178"></scales>
<clustering>
<clus scale="   31.392">  1  9  2 -1</clus>
<clus scale="   91.503">  7  8 -1 -1</clus>
<clus scale="   91.952">  5  6 -1 -1</clus>
<clus scale="  114.844">  2  7  1 -1</clus>
<clus scale="   31.392">  1  5  2 -1</clus>
</clustering>
</event>
<event>
 9    1  0.1601012E-005  0.9071156E+02  0.7546771E-02  0.1301411E+00
          3   -1    0    0  502    0 -0.00000000000E+00  0.00000000000E+00  0.47294403263E+02  0.47294403263E+02  0.00000000000E+00 0. -1.
         21   -1    0    0  501  502  0.00000000000E+00 -0.00000000000E+00 -0.42689846540E+03  0.42689846540E+03  0.00000000000E+00 0.  1.
         23    2    1    2    0    0  0.16153170393E+01  0.98093297915E+01 -0.34392906918E+02  0.96965781182E+02  0.90114696214E+02 0.  0.
         23    2    1    2    0    0 -0.34443670073E+02  0.21094360158E+02 -0.17081818072E+03  0.19710033108E+03  0.89656852556E+02 0.  0.
        -11    1    3    3    0    0 -0.31874447261E+02 -0.25410559728E+02 -0.75894632529E+01  0.41464163881E+02  0.00000000000E+00 0.  1.
         11    1    3    3    0    0  0.33489764300E+02  0.35219889520E+02 -0.26803443665E+02  0.55501617301E+02  0.00000000000E+00 0. -1.
        -11    1    4    4    0    0 -0.24494767905E+02  0.39388894757E+02 -0.17004878461E+03  0.17626136228E+03  0.00000000000E+00 0.  1.
         11    1    4    4    0    0 -0.99489021679E+01 -0.18294534599E+02 -0.76939611106E+00  0.20838968806E+02  0.00000000000E+00 0. -1.
          3    1    1    2  501    0  0.32828353034E+02 -0.30903689950E+02 -0.17439297450E+03  0.18012675640E+03  0.00000000000E+00 0. -1.
<scales pt_clust_5="13000.00000" pt_clust_6="13000.00000" pt_clust_7="13000.00000" pt_clust_8="13000.00000" pt_clust_9="45.08590"></scales>
<clustering>
<clus scale="   45.086">  2  9  1 -1</clus>
<clus scale="   89.657">  7  8 -1 -1</clus>
<clus scale="   90.115">  5  6 -1 -1</clus>
<clus scale="   90.257">  2  7  1 -1</clus>
<clus scale="   45.086">  2  5  1 -1</clus>
</clustering>
</event>
<event>
 9    1  0.1601012E-005  0.1614137E+03  0.7546771E-02  0.1187197E+00
         21   -1    0    0  501  502  0.00000000000E+00  0.00000000000E+00  0.50928987921E+03  0.50928987921E+03  0.00000000000E+00 0.  1.
         -3   -1    0    0    0  501 -0.00000000000E+00 -0.00000000000E+00 -0.50890588304E+03  0.50890588304E+03  0.00000000000E+00 0.  1.
         23    2    1    2    0    0  0.13132086176E+03 -0.30550661074E+02 -0.46475400152E+03  0.49239262684E+03  0.90970904199E+02 0.  0.
         23    2    1    2    0    0 -0.84827164682E+02  0.85149808473E+02  0.19709750783E+03  0.24833523642E+03  0.91524992786E+02 0.  0.
        -11    1    3    3    0    0  0.98399574762E+02 -0.12174221945E+01 -0.41223467979E+03  0.42381763726E+03  0.00000000000E+00 0.  1.
         11    1    3    3    0    0  0.32921286996E+02 -0.29333238879E+02 -0.52519321724E+02  0.68574989573E+02  0.00000000000E+00 0. -1.
        -13    1    4    4    0    0  0.33980229526E+01  0.58936237976E+02  0.77551169806E+02  0.97463894058E+02  0.00000000000E+00 0.  1.
         13    1    4    4    0    0 -0.88225187635E+02  0.26213570498E+02  0.11954633802E+03  0.15087134236E+03  0.00000000000E+00 0. -1.
         -3    1    1    2    0  502 -0.46493697076E+02 -0.54599147400E+02  0.26804048987E+03  0.27746789900E+03  0.00000000000E+00 0.  1.
<scales pt_clust_5="13000.00000" pt_clust_6="13000.00000" pt_clust_7="13000.00000" pt_clust_8="13000.00000" pt_clust_9="71.71284"></scales>
<clustering>
<clus scale="   71.713">  1  9  2 -1</clus>
<clus scale="   90.971">  5  6 -1 -1</clus>
<clus scale="   91.525">  7  8 -1 -1</clus>
<clus scale="  161.100">  2  5  1 -1</clus>
<clus scale="   71.713">  1  5  2 -1</clus>
</clustering>
</event>
<event>
 9    1  0.1601012E-005  0.1009382E+03  0.7546771E-02  0.1280401E+00
         21   -1    0    0  501  502  0.00000000000E+00  0.00000000000E+00  0.25430981786E+02  0.25430981786E+02  0.00000000000E+00 0.  1.
          2   -1    0    0  502    0 -0.00000000000E+00 -0.00000000000E+00 -0.55714286583E+03  0.55714286583E+03  0.00000000000E+00 0. -1.
         23    2    1    2    0    0 -0.25783982368E+02  0.50668098676E+02 -0.33272892271E+03  0.34690920683E+03  0.80033691690E+02 0.  0.
         23    2    1    2    0    0  0.41658116620E+02 -0.34642668441E+02 -0.17999389498E+03  0.20617926825E+03  0.84714669747E+02 0.  0.
        -13    1    3    3    0    0  0.17432973579E+02 -0.12560707468E+02 -0.66710075188E+02  0.70085048844E+02  0.00000000000E+00 0. -1.
         13    1    3    3    0    0 -0.43216955947E+02  0.63228806144E+02 -0.26601884752E+03  0.27682415799E+03  0.00000000000E+00 0.  1.
        -13    1    4    4    0    0 -0.13350766495E+02 -0.22626372069E+02 -0.11779720668E+02  0.28791622011E+02  0.00000000000E+00 0.  1.
         13    1    4    4    0    0  0.55008883115E+02 -0.12016296372E+02 -0.16821417431E+03  0.17738764624E+03  0.00000000000E+00 0. -1.
          2    1    1    2  501    0 -0.15874134252E+02 -0.16025430235E+02 -0.18989066357E+02  0.29485372536E+02  0.00000000000E+00 0. -1.
<scales pt_clust_5="13000.00000" pt_clust_6="13000.00000" pt_clust_7="13000.00000" pt_clust_8="13000.00000" pt_clust_9="22.55665"></scales>
<clustering>
<clus scale="   22.557">  1  9  2 -1</clus>
<clus scale="   80.034">  5  6 -1 -1</clus>
<clus scale="   84.715">  7  8 -1 -1</clus>
<clus scale="   97.043">  2  5  1 -1</clus>
<clus scale="   22.557">  1  5  2 -1</clus>
</clustering>
</event>
<event>
 9    1  0.1601012E-005  0.2235138E+03  0.7546771E-02  0.1143245E+00
         21   -1    0    0  501  502  0.00000000000E+00  0.00000000000E+00  0.30871417662E+03  0.30871417662E+03  0.00000000000E+00 0. -1.
          2   -1    0    0  502    0 -0.00000000000E+00 -0.00000000000E+00 -0.86931309018E+03  0.86931309018E+03  0.00000000000E+00 0. -1.
         23    2    1    2    0    0  0.11443655929E+03 -0.78865888259E+02 -0.21920216280E+03  0.27574061789E+03  0.93100729012E+02 0.  0.
         23    2    1    2    0    0 -0.27119017869E+03 -0.48263080045E+02 -0.54397638896E+03  0.61632864222E+03  0.89873497537E+02 0.  0.
        -11    1    4    4    0    0 -0.23234998546E+03 -0.69951881959E+02 -0.48641971005E+03  0.54358432268E+03  0.00000000000E+00 0. -1.
         11    1    4    4    0    0 -0.38840193233E+02  0.21688801914E+02 -0.57556678906E+02  0.72744319541E+02  0.00000000000E+00 0.  1.
        -13    1    3    3    0    0  0.10883800876E+03 -0.32148109237E+02 -0.11580971642E+03  0.16214531598E+03  0.00000000000E+00 0. -1.
         13    1    3    3    0    0  0.55985505259E+01 -0.46717779022E+02 -0.10339244639E+03  0.11359530190E+03  0.00000000000E+00 0.  1.
          2    1    1    2  501    0  0.15675361941E+03  0.12712896830E+03  0.20257963820E+03  0.28595800669E+03  0.00000000000E+00 0. -1.
<scales pt_clust_5="13000.00000" pt_clust_6="13000.00000" pt_clust_7="13000.00000" pt_clust_8="13000.00000" pt_clust_9="204.64892"></scales>
<clustering>
<clus scale="   89.873">  5  6 -1 -1</clus>
<clus scale="   93.101">  7  8 -1 -1</clus>
<clus scale="  167.282">  2  7  1 -1</clus>
<clus scale="  204.649">  1  9  2 -1</clus>
<clus scale="  204.649">  1  5  2 -1</clus>
</clustering>
</event>
<event>
 9    1  0.1601012E-005  0.1556990E+03  0.7546771E-02  0.1194292E+00
          1   -1    0    0  502    0 -0.00000000000E+00  0.00000000000E+00  0.28528583459E+03  0.28528583459E+03  0.00000000000E+00 0. -1.
         21   -1    0    0  501  502  0.00000000000E+00 -0.00000000000E+00 -0.50435463340E+03  0.50435463340E+03  0.00000000000E+00 0. -1.
         23    2    1    2    0    0  0.10182692290E+03  0.63633462637E+02  0.21727583636E+03  0.26459684201E+03  0.91568334827E+02 0.  0.
         23    2    1    2    0    0 -0.10368991602E+03 -0.11289621637E+03 -0.15050282353E+03  0.23498185509E+03  0.95227191370E+02 0.  0.
        -11    1    3    3    0    0  0.10269928225E+03  0.19004992146E+02  0.17045405168E+03  0.19990726859E+03  0.00000000000E+00 0.  1.
         11    1    3    3    0    0 -0.87235934596E+00  0.44628470491E+02  0.46821784676E+02  0.64689573422E+02  0.00000000000E+00 0. -1.
        -11    1    4    4    0    0 -0.65874582868E+02 -0.10546571440E+03 -0.15203792059E+03  0.19641284805E+03  0.00000000000E+00 0.  1.
         11    1    4    4    0    0 -0.37815333152E+02 -0.74305019755E+01  0.15350970645E+01  0.38569007039E+02  0.00000000000E+00 0. -1.
          1    1    1    2  501    0  0.18629931175E+01  0.49262753735E+02 -0.28584181164E+03  0.29006177088E+03  0.00000000000E+00 0. -1.
<scales pt_clust_5="13000.00000" pt_clust_6="13000.00000" pt_clust_7="13000.00000" pt_clust_8="13000.00000" pt_clust_9="49.29797"></scales>
<clustering>
<clus scale="   49.298">  2  9  1 -1</clus>
<clus scale="   91.568">  5  6 -1 -1</clus>
<clus scale="   95.227">  7  8 -1 -1</clus>
<clus scale="  153.488">  1  5  2 -1</clus>
<clus scale="   49.298">  2  5  1 -1</clus>
</clustering>
</event>
<event>
 9    1  0.1601012E-005  0.9985754E+02  0.7546771E-02  0.1280650E+00
         21   -1    0    0  501  502  0.00000000000E+00  0.00000000000E+00  0.75826621195E+02  0.75826621195E+02  0.00000000000E+00 0.  1.
          1   -1    0    0  502    0 -0.00000000000E+00 -0.00000000000E+00 -0.50376962630E+03  0.50376962630E+03  0.00000000000E+00 0. -1.
         23    2    1    2    0    0  0.35842502547E+02  0.27356006453E+02 -0.29678109928E+03  0.31376860510E+03  0.91316376292E+02 0.  0.
         23    2    1    2    0    0 -0.13407910177E+02 -0.34641995808E+02 -0.18359185117E+03  0.20833594086E+03  0.91203379928E+02 0.  0.
        -11    1    4    4    0    0  0.26387504852E+02  0.71627144645E+01 -0.11727343393E+03  0.12041869953E+03  0.00000000000E+00 0. -1.
         11    1    4    4    0    0 -0.39795415029E+02 -0.41804710273E+02 -0.66318417240E+02  0.87917241332E+02  0.00000000000E+00 0.  1.
        -11    1    3    3    0    0 -0.14373111522E+02  0.44916381388E+02 -0.11308315054E+03  0.12252292270E+03  0.00000000000E+00 0.  1.
         11    1    3    3    0    0  0.50215614069E+02 -0.17560374935E+02 -0.18369794874E+03  0.19124568240E+03  0.00000000000E+00 0. -1.
          1    1    1    2  501    0 -0.22434592371E+02  0.72859893554E+01  0.52429945347E+02  0.57491701530E+02  0.00000000000E+00 0. -1.
<scales pt_clust_5="13000.00000" pt_clust_6="13000.00000" pt_clust_7="13000.00000" pt_clust_8="13000.00000" pt_clust_9="23.58806"></scales>
<clustering>
<clus scale="   23.588">  1  9  2 -1</clus>
<clus scale="   91.203">  5  6 -1 -1</clus>
<clus scale="   91.316">  7  8 -1 -1</clus>
<clus scale="   99.754">  1  5  2 -1</clus>
<clus scale="   23.588">  1  5  2 -1</clus>
</clustering>
</event>
<event>
 9    1  0.1601012E-005  0.9414815E+02  0.7546771E-02  0.1295984E+00
         21   -1    0    0  501  502  0.00000000000E+00  0.00000000000E+00  0.13089088707E+03  0.13089088707E+03  0.00000000000E+00 0. -1.
          3   -1    0    0  502    0 -0.00000000000E+00 -0.00000000000E+00 -0.17931100158E+03  0.17931100158E+03  0.00000000000E+00 0. -1.
         23    2    1    2    0    0  0.26115374313E+02  0.40550142811E+01 -0.98671894794E+02  0.13792616148E+03  0.92677005135E+02 0.  0.
         23    2    1    2    0    0  0.32841080235E-01 -0.12201749212E+01 -0.26117306993E+02  0.91504426732E+02  0.87689546023E+02 0.  0.
        -11    1    4    4    0    0  0.16524363865E+02  0.24434442110E+02 -0.46325089543E+02  0.54919126755E+02  0.00000000000E+00 0. -1.
         11    1    4    4    0    0 -0.16491522785E+02 -0.25654617031E+02  0.20207782550E+02  0.36585299977E+02  0.00000000000E+00 0.  1.
        -13    1    3    3    0    0  0.43995205465E+02 -0.32538312409E+02 -0.47008041341E+02  0.72139280763E+02  0.00000000000E+00 0.  1.
         13    1    3    3    0    0 -0.17879831152E+02  0.36593326690E+02 -0.51663853454E+02  0.65786880713E+02  0.00000000000E+00 0. -1.
          3    1    1    2  501    0 -0.26148215393E+02 -0.28348393600E+01  0.76369087279E+02  0.80771300437E+02  0.00000000000E+00 0. -1.
<scales pt_clust_5="13000.00000" pt_clust_6="13000.00000" pt_clust_7="13000.00000" pt_clust_8="13000.00000" pt_clust_9="26.30143"></scales>
<clustering>
<clus scale="   26.301">  1  9  2 -1</clus>
<clus scale="   87.690">  5  6 -1 -1</clus>
<clus scale="   89.243">  1  5  2 -1</clus>
<clus scale="   92.677">  7  8 -1 -1</clus>
<clus scale="   26.301">  1  5  2 -1</clus>
</clustering>
</event>
<event>
 9    1  0.1601012E-005  0.1001475E+03  0.7546771E-02  0.1281135E+00
          3   -1    0    0  502    0 -0.00000000000E+00  0.00000000000E+00  0.30431974461E+03  0.30431974461E+03  0.00000000000E+00 0. -1.
         21   -1    0    0  501  502  0.00000000000E+00 -0.00000000000E+00 -0.34112120664E+03  0.34112120664E+03  0.00000000000E+00 0.  1.
         23    2    1    2    0    0 -0.58155574212E+01  0.37501465539E+02  0.27352683341E+03  0.29108191474E+03  0.92041142242E+02 0.  0.
         23    2    1    2    0    0 -0.12797549926E+02 -0.70834871978E+02 -0.14704634781E+03  0.18667314512E+03  0.89682095933E+02 0.  0.
        -13    1    4    4    0    0  0.89415231088E+01 -0.50186453088E+02 -0.14814536106E+03  0.15667060640E+03  0.00000000000E+00 0.  1.
         13    1    4    4    0    0 -0.21739073035E+02 -0.20648418889E+02  0.10990132435E+01  0.30002538712E+02  0.00000000000E+00 0. -1.
        -13    1    3    3    0    0 -0.28221455765E+02 -0.21012021181E+02  0.73810358039E+02  0.81767503040E+02  0.00000000000E+00 0.  1.
         13    1    3    3    0    0  0.22405898344E+02  0.58513486720E+02  0.19971647537E+03  0.20931441169E+03  0.00000000000E+00 0. -1.
          3    1    1    2  501    0  0.18613107347E+02  0.33333406439E+02 -0.16328194763E+03  0.16768589139E+03  0.00000000000E+00 0. -1.
<scales pt_clust_5="13000.00000" pt_clust_6="13000.00000" pt_clust_7="13000.00000" pt_clust_8="13000.00000" pt_clust_9="38.17805"></scales>
<clustering>
<clus scale="   38.178">  2  9  1 -1</clus>
<clus scale="   89.682">  5  6 -1 -1</clus>
<clus scale="   92.041">  7  8 -1 -1</clus>
<clus scale="   97.984">  2  5  1 -1</clus>
<clus scale="   38.178">  2  5  1 -1</clus>
</clustering>
</event>
<event>
 9    1  0.1601012E-005  0.9418160E+02  0.7546771E-02  0.1293680E+00
          2   -1    0    0  502    0 -0.00000000000E+00  0.00000000000E+00  0.45267959101E+02  0.45267959101E+02  0.00000000000E+00 0. -1.
         21   -1    0    0  501  502  0.00000000000E+00 -0.00000000000E+00 -0.39961184751E+03  0.39961184751E+03  0.00000000000E+00 0.  1.
         23    2    1    2    0    0  0.27067147851E+02 -0.18297126163E+01 -0.37844114510E+02  0.10107959572E+03  0.89715825393E+02 0.  0.
         23    2    1    2    0    0 -0.14761584737E+02 -0.28994890221E+02 -0.19134388110E+03  0.21431824100E+03  0.90891251237E+02 0.  0.
        -11    1    3    3    0    0 -0.29425772570E+02 -0.65029435375E+01 -0.32217767327E+02  0.44115177632E+02  0.00000000000E+00 0.  1.
         11    1    3    3    0    0  0.56492920421E+02  0.46732309212E+01 -0.56263471826E+01  0.56964418083E+02  0.00000000000E+00 0. -1.
        -11    1    4    4    0    0 -0.59357022075E+01  0.32866205968E+02 -0.78910655938E+02  0.85687290049E+02  0.00000000000E+00 0. -1.
         11    1    4    4    0    0 -0.88258825295E+01 -0.61861096189E+02 -0.11243322516E+03  0.12863095096E+03  0.00000000000E+00 0.  1.
          2    1    1    2  501    0 -0.12305563114E+02  0.30824602837E+02 -0.12515589280E+03  0.12948196989E+03  0.00000000000E+00 0. -1.
<scales pt_clust_5="13000.00000" pt_clust_6="13000.00000" pt_clust_7="13000.00000" pt_clust_8="13000.00000" pt_clust_9="33.19010"></scales>
<clustering>
<clus scale="   33.190">  2  9  1 -1</clus>
<clus scale="   89.716">  5  6 -1 -1</clus>
<clus scale="   90.891">  7  8 -1 -1</clus>
<clus scale="   93.048">  1  5  2 -1</clus>
<clus scale="   33.190">  2  5  1 -1</clus>
</clustering>
</event>
<event>
 9    1  0.1601012E-005  0.9643212E+02  0.7546771E-02  0.1290354E+00
          2   -1    0    0  502    0 -0.00000000000E+00  0.00000000000E+00  0.44953535338E+03  0.44953535338E+03  0.00000000000E+00 0. -1.
         21   -1    0    0  501  502  0.00000000000E+00 -0.00000000000E+00 -0.32587834578E+02  0.32587834578E+02  0.00000000000E+00 0.  1.
         23    2    1    2    0    0  0.16928128420E+02 -0.91282610920E+01  0.20802882661E+03  0.22980183596E+03  0.95723583442E+02 0.  0.
         23    2    1    2    0    0  0.26397954827E+02  0.14154141043E+02  0.16044407952E+03  0.18711247965E+03  0.91496369664E+02 0.  0.
        -13    1    4    4    0    0  0.54202116458E+02 -0.28686145583E+01  0.57245905070E+02  0.78887210784E+02  0.00000000000E+00 0.  1.
         13    1    4    4    0    0 -0.27804161631E+02  0.17022755601E+02  0.10319817445E+03  0.10822526887E+03  0.00000000000E+00 0. -1.
        -13    1    3    3    0    0 -0.21561668770E+01  0.31800414964E+02  0.22906061054E+02  0.39250516945E+02  0.00000000000E+00 0.  1.
         13    1    3    3    0    0  0.19084295297E+02 -0.40928676056E+02  0.18512276555E+03  0.19055131901E+03  0.00000000000E+00 0. -1.
          2    1    1    2  501    0 -0.43326083247E+02 -0.50258799508E+01  0.48474612676E+02  0.65208872348E+02  0.00000000000E+00 0. -1.
<scales pt_clust_5="13000.00000" pt_clust_6="13000.00000" pt_clust_7="13000.00000" pt_clust_8="13000.00000" pt_clust_9="43.61661"></scales>
<clustering>
<clus scale="   43.617">  2  9  1 -1</clus>
<clus scale="   91.496">  5  6 -1 -1</clus>
<clus scale="   92.237">  2  5  1 -1</clus>
<clus scale="   95.724">  7  8 -1 -1</clus>
<clus scale="   43.617">  2  5  1 -1</clus>
</clustering>
</event>
<event>
 9    1  0.1608115E-005  0.9592127E+02  0.7546771E-02  0.1291679E+00
         -1   -1    0    0    0  501 -0.00000000000E+00  0.00000000000E+00  0.74062318972E+03  0.74062318972E+03  0.00000000000E+00 0.  1.
         21   -1    0    0  501  502  0.00000000000E+00 -0.00000000000E+00 -0.33118687997E+02  0.33118687997E+02  0.00000000000E+00 0. -1.
         23    2    1    2    0    0  0.13493798902E+02  0.25572988503E+01  0.56591362509E+03  0.57402149132E+03  0.95151558325E+02 0.  0.
         23    2    1    2    0    0  0.32661274996E+01 -0.23420126411E+02  0.14513315144E+03  0.17272593478E+03  0.90617034769E+02 0.  0.
        -11    1    3    3    0    0 -0.38306570955E+02 -0.15437004990E+02  0.24425610255E+03  0.24772310779E+03  0.00000000000E+00 0. -1.
         11    1    3    3    0    0  0.51800369857E+02  0.17994303841E+02  0.32165752254E+03  0.32629838353E+03  0.00000000000E+00 0.  1.
        -13    1    4    4    0    0 -0.29520723049E+02  0.22575130676E+02  0.56874265748E+02  0.67939618183E+02  0.00000000000E+00 0. -1.
         13    1    4    4    0    0  0.32786850549E+02 -0.45995257088E+02  0.88258885691E+02  0.10478631660E+03  0.00000000000E+00 0.  1.
         -1    1    1    2    0  502 -0.16759926402E+02  0.20862827561E+02 -0.35422748077E+01  0.26994451609E+02  0.00000000000E+00 0.  1.
<scales pt_clust_5="13000.00000" pt_clust_6="13000.00000" pt_clust_7="13000.00000" pt_clust_8="13000.00000" pt_clust_9="26.76103"></scales>
<clustering>
<clus scale="   26.761">  2  9  1 -1</clus>
<clus scale="   90.617">  7  8 -1 -1</clus>
<clus scale="   91.425">  2  7  1 -1</clus>
<clus scale="   95.152">  5  6 -1 -1</clus>
<clus scale="   26.761">  2  5  1 -1</clus>
</clustering>
</event>
<event>
 9    1  0.1601012E-005  0.1001587E+03  0.7546771E-02  0.1280306E+00
         21   -1    0    0  501  502  0.00000000000E+00  0.00000000000E+00  0.11557830676E+03  0.11557830676E+03  0.00000000000E+00 0.  1.
          2   -1    0    0  502    0 -0.00000000000E+00 -0.00000000000E+00 -0.31575612316E+03  0.31575612316E+03  0.00000000000E+00 0. -1.
         23    2    1    2    0    0 -0.21905653409E+02 -0.32330933347E+02 -0.26609678666E+03  0.28451070047E+03  0.92809977444E+02 0.  0.
         23    2    1    2    0    0  0.28029184596E+02  0.82599932882E+01  0.72876379837E+02  0.12103006089E+03  0.92105625354E+02 0.  0.
        -11    1    4    4    0    0  0.20653673028E+02  0.33171207120E+02  0.84095859022E+02  0.92730883184E+02  0.00000000000E+00 0.  1.
         11    1    4    4    0    0  0.73755115686E+01 -0.24911213832E+02 -0.11219479186E+02  0.28299177703E+02  0.00000000000E+00 0. -1.
        -11    1    3    3    0    0 -0.51904883361E+02 -0.81847002911E+00 -0.18883849790E+03  0.19584372622E+03  0.00000000000E+00 0.  1.
         11    1    3    3    0    0  0.29999229952E+02 -0.31512463318E+02 -0.77258288753E+02  0.88666974253E+02  0.00000000000E+00 0. -1.
          2    1    1    2  501    0 -0.61235311875E+01  0.24070940059E+02 -0.69574095819E+01  0.25793668557E+02  0.00000000000E+00 0. -1.
<scales pt_clust_5="13000.00000" pt_clust_6="13000.00000" pt_clust_7="13000.00000" pt_clust_8="13000.00000" pt_clust_9="24.83763"></scales>
<clustering>
<clus scale="   24.838">  1  9  2 -1</clus>
<clus scale="   92.106">  5  6 -1 -1</clus>
<clus scale="   92.810">  7  8 -1 -1</clus>
<clus scale="   99.506">  1  5  2 -1</clus>
<clus scale="   24.838">  1  5  2 -1</clus>
</clustering>
</event>
<event>
 9    1  0.1601012E-005  0.1292379E+03  0.7546771E-02  0.1229681E+00
          1   -1    0    0  502    0 -0.00000000000E+00  0.00000000000E+00  0.36433324565E+03  0.36433324565E+03  0.00000000000E+00 0. -1.
         21   -1    0    0  501  502  0.00000000000E+00 -0.00000000000E+00 -0.99042808608E+02  0.99042808608E+02  0.00000000000E+00 0. -1.
         23    2    1    2    0    0  0.10795525934E+03 -0.10189121892E+02  0.22603939298E+03  0.26802654388E+03  0.94795911419E+02 0.  0.
         23    2    1    2    0    0 -0.56766215710E+02 -0.27582685113E+02  0.63186686542E+02  0.12737935095E+03  0.90828045928E+02 0.  0.
        -13    1    3    3    0    0  0.11853622686E+03  0.12294334513E+02  0.18594050966E+03  0.22085257723E+03  0.00000000000E+00 0. -1.
         13    1    3    3    0    0 -0.10580967517E+02 -0.22483456405E+02  0.40098883325E+02  0.47173966649E+02  0.00000000000E+00 0.  1.
        -13    1    4    4    0    0 -0.61274181594E+02  0.17682412401E+02  0.27008687565E+02  0.69257939922E+02  0.00000000000E+00 0. -1.
         13    1    4    4    0    0  0.45079658835E+01 -0.45265097514E+02  0.36177998978E+02  0.58121411024E+02  0.00000000000E+00 0.  1.
          1    1    1    2  501    0 -0.51189043634E+02  0.37771807005E+02 -0.23935642478E+02  0.67970159433E+02  0.00000000000E+00 0. -1.
<scales pt_clust_5="13000.00000" pt_clust_6="13000.00000" pt_clust_7="13000.00000" pt_clust_8="13000.00000" pt_clust_9="63.61625"></scales>
<clustering>
<clus scale="   63.616">  2  9  1 -1</clus>
<clus scale="   90.828">  7  8 -1 -1</clus>
<clus scale="   94.796">  5  6 -1 -1</clus>
<clus scale="  126.356">  2  7  1 -1</clus>
<clus scale="   63.616">  2  5  1 -1</clus>
</clustering>
</event>
<event>
 9    1  0.1601012E-005  0.1021675E+03  0.7546771E-02  0.1278875E+00
         21   -1    0    0  501  502  0.00000000000E+00  0.00000000000E+00  0.18900249993E+03  0.18900249993E+03  0.00000000000E+00 0.  1.
          2   -1    0    0  502    0 -0.00000000000E+00 -0.00000000000E+00 -0.19618051352E+03  0.19618051352E+03  0.00000000000E+00 0. -1.
         23    2    1    2    0    0  0.39931631371E+02 -0.10438987060E+01 -0.14031105456E+03  0.17452871591E+03  0.95799038301E+02 0.  0.
         23    2    1    2    0    0  0.41610469288E+01  0.18725956919E+02  0.13496959483E+03  0.16311281678E+03  0.89560168026E+02 0.  0.
        -11    1    3    3    0    0 -0.30058497116E+02 -0.77142379709E+01 -0.61696151838E+02  0.69061116904E+02  0.00000000000E+00 0.  1.
         11    1    3    3    0    0  0.69990128487E+02  0.66703392648E+01 -0.78614902717E+02  0.10546759901E+03  0.00000000000E+00 0. -1.
        -11    1    4    4    0    0 -0.40444402796E+02 -0.46997729643E-01  0.81570249640E+02  0.91046458210E+02  0.00000000000E+00 0.  1.
         11    1    4    4    0    0  0.44605449725E+02  0.18772954649E+02  0.53399345187E+02  0.72066358572E+02  0.00000000000E+00 0. -1.
          2    1    1    2  501    0 -0.44092678300E+02 -0.17682058213E+02 -0.18365538626E+01  0.47541480755E+02  0.00000000000E+00 0. -1.
<scales pt_clust_5="13000.00000" pt_clust_6="13000.00000" pt_clust_7="13000.00000" pt_clust_8="13000.00000" pt_clust_9="47.50602"></scales>
<clustering>
<clus scale="   47.506">  1  9  2 -1</clus>
<clus scale="   89.560">  7  8 -1 -1</clus>
<clus scale="   95.799">  5  6 -1 -1</clus>
<clus scale="   96.342">  1  7  2 -1</clus>
<clus scale="   47.506">  1  5  2 -1</clus>
</clustering>
</event>
<event>
 9    1  0.1601012E-005  0.9767418E+02  0.7546771E-02  0.1289562E+00
         21   -1    0    0  501  502  0.00000000000E+00  0.00000000000E+00  0.24446705584E+03  0.24446705584E+03  0.00000000000E+00 0.  1.
          1   -1    0    0  502    0 -0.00000000000E+00 -0.00000000000E+00 -0.16434038763E+03  0.16434038763E+03  0.00000000000E+00 0. -1.
         23    2    1    2    0    0 -0.66439110254E+01 -0.14968228547E+02 -0.13183143272E+03  0.16402151641E+03  0.96204686856E+02 0.  0.
         23    2    1    2    0    0 -0.13891506903E+02  0.28029897970E+02  0.13774966422E+03  0.16668853482E+03  0.88495471651E+02 0.  0.
        -11    1    4    4    0    0  0.83754687933E+01  0.39949486625E+02  0.13528884717E+03  0.14131235660E+03  0.00000000000E+00 0.  1.
         11    1    4    4    0    0 -0.22266975696E+02 -0.11919588654E+02  0.24608170489E+01  0.25376178217E+02  0.00000000000E+00 0. -1.
        -11    1    3    3    0    0  0.15578055144E+02 -0.46373635894E+02 -0.10852222205E+03  0.11903891207E+03  0.00000000000E+00 0. -1.
         11    1    3    3    0    0 -0.22221966170E+02  0.31405407347E+02 -0.23309210664E+02  0.44982604336E+02  0.00000000000E+00 0.  1.
          1    1    1    2  501    0  0.20535417928E+02 -0.13061669423E+02  0.74208436707E+02  0.78097392250E+02  0.00000000000E+00 0. -1.
<scales pt_clust_5="13000.00000" pt_clust_6="13000.00000" pt_clust_7="13000.00000" pt_clust_8="13000.00000" pt_clust_9="24.33743"></scales>
<clustering>
<clus scale="   24.337">  1  9  2 -1</clus>
<clus scale="   88.495">  5  6 -1 -1</clus>
<clus scale="   90.091">  1  5  2 -1</clus>
<clus scale="   96.205">  7  8 -1 -1</clus>
<clus scale="   24.337">  1  5  2 -1</clus>
</clustering>
</event>
<event>
 9    1  0.1601012E-005  0.1164794E+03  0.7546771E-02  0.1260195E+00
          2   -1    0    0  502    0 -0.00000000000E+00  0.00000000000E+00  0.33409649498E+03  0.33409649498E+03  0.00000000000E+00 0. -1.
         21   -1    0    0  501  502  0.00000000000E+00 -0.00000000000E+00 -0.66616387947E+02  0.66616387947E+02  0.00000000000E+00 0. -1.
         23    2    1    2    0    0  0.76840022001E+01 -0.41969988331E+01  0.14568447709E+03  0.17260140938E+03  0.92144565577E+02 0.  0.
         23    2    1    2    0    0 -0.25520046787E+02 -0.10961553360E+02  0.15006301077E+03  0.19141064236E+03  0.11553223952E+03 0.  0.
        -13    1    3    3    0    0 -0.26610538087E+02 -0.31497630992E+02  0.36962475514E+02  0.55375500824E+02  0.00000000000E+00 0.  1.
         13    1    3    3    0    0  0.34294540287E+02  0.27300632159E+02  0.10872200157E+03  0.11722590855E+03  0.00000000000E+00 0. -1.
        -13    1    4    4    0    0 -0.65138115440E+02  0.16961426312E+02  0.65371012021E+02  0.93829810179E+02  0.00000000000E+00 0.  1.
         13    1    4    4    0    0  0.39618068653E+02 -0.27922979673E+02  0.84691998747E+02  0.97580832182E+02  0.00000000000E+00 0. -1.
          2    1    1    2  501    0  0.17836044587E+02  0.15158552194E+02 -0.28267380825E+02  0.36700831187E+02  0.00000000000E+00 0. -1.
<scales pt_clust_5="13000.00000" pt_clust_6="13000.00000" pt_clust_7="13000.00000" pt_clust_8="13000.00000" pt_clust_9="23.40740"></scales>
<clustering>
<clus scale="   23.407">  2  9  1 -1</clus>
<clus scale="   92.145">  5  6 -1 -1</clus>
<clus scale="   93.329">  1  5  2 -1</clus>
<clus scale="  115.532">  7  8 -1 -1</clus>
<clus scale="   23.407">  2  5  1 -1</clus>
</clustering>
</event>
<event>
 9    1  0.1601012E-005  0.1013131E+03  0.7546771E-02  0.1278379E+00
         21   -1    0    0  501  502  0.00000000000E+00  0.00000000000E+00  0.28465203868E+03  0.28465203868E+03  0.00000000000E+00 0. -1.
          1   -1    0    0  502    0 -0.00000000000E+00 -0.00000000000E+00 -0.23150196953E+03  0.23150196953E+03  0.00000000000E+00 0. -1.
         23    2    1    2    0    0  0.28256795711E+02  0.29657940279E+02 -0.20075512612E+03  0.22458673462E+03  0.91970325529E+02 0.  0.
         23    2    1    2    0    0 -0.51970946070E+02 -0.46401946463E+02  0.19445477279E+03  0.22540780411E+03  0.90232475426E+02 0.  0.
        -11    1    4    4    0    0  0.24501064044E+02 -0.12744952770E+02  0.72459936525E+02  0.77544686224E+02  0.00000000000E+00 0.  1.
         11    1    4    4    0    0 -0.76472010114E+02 -0.33656993693E+02  0.12199483626E+03  0.14786311788E+03  0.00000000000E+00 0. -1.
        -11    1    3    3    0    0  0.32682779533E+02 -0.25197181294E+02 -0.54800798512E+02  0.68601673017E+02  0.00000000000E+00 0.  1.
         11    1    3    3    0    0 -0.44259838221E+01  0.54855121573E+02 -0.14595432761E+03  0.15598506160E+03  0.00000000000E+00 0. -1.
          1    1    1    2  501    0  0.23714150359E+02  0.16744006184E+02  0.59450422471E+02  0.66159469484E+02  0.00000000000E+00 0. -1.
<scales pt_clust_5="13000.00000" pt_clust_6="13000.00000" pt_clust_7="13000.00000" pt_clust_8="13000.00000" pt_clust_9="29.02969"></scales>
<clustering>
<clus scale="   29.030">  1  9  2 -1</clus>
<clus scale="   90.232">  5  6 -1 -1</clus>
<clus scale="   91.970">  7  8 -1 -1</clus>
<clus scale="   99.738">  1  5  2 -1</clus>
<clus scale="   29.030">  1  5  2 -1</clus>
</clustering>
</event>
<event>
 9    1  0.1601012E-005  0.1572899E+03  0.7546771E-02  0.1191932E+00
         21   -1    0    0  501  502  0.00000000000E+00  0.00000000000E+00  0.40473291977E+03  0.40473291977E+03  0.00000000000E+00 0. -1.
         -3   -1    0    0    0  501 -0.00000000000E+00 -0.00000000000E+00 -0.91567641197E+02  0.91567641197E+02  0.00000000000E+00 0.  1.
         23    2    1    2    0    0  0.28077183886E+00  0.14393687579E+03  0.59471752742E+02  0.18016918461E+03  0.90587762220E+02 0.  0.
         23    2    1    2    0    0  0.21482360810E+01 -0.10477102751E+03  0.14658782359E+03  0.20206343519E+03  0.91433356547E+02 0.  0.
        -13    1    3    3    0    0 -0.10201152583E+02  0.64649836014E+02 -0.18971632366E+02  0.68143874599E+02  0.00000000000E+00 0.  1.
         13    1    3    3    0    0  0.10481924422E+02  0.79287039775E+02  0.78443385108E+02  0.11202531001E+03  0.00000000000E+00 0. -1.
        -13    1    4    4    0    0  0.27211235418E+02  0.34138700418E+01  0.36900105788E+02  0.45975250394E+02  0.00000000000E+00 0. -1.
         13    1    4    4    0    0 -0.25062999337E+02 -0.10818489756E+03  0.10968771780E+03  0.15608818479E+03  0.00000000000E+00 0.  1.
         -3    1    1    2    0  502 -0.24290079198E+01 -0.39165848274E+02  0.10710570224E+03  0.11406794117E+03  0.00000000000E+00 0.  1.
<scales pt_clust_5="13000.00000" pt_clust_6="13000.00000" pt_clust_7="13000.00000" pt_clust_8="13000.00000" pt_clust_9="39.24110"></scales>
<clustering>
<clus scale="   39.241">  1  9  2 -1</clus>
<clus scale="   90.588">  5  6 -1 -1</clus>
<clus scale="   91.433">  7  8 -1 -1</clus>
<clus scale="  156.800">  2  5  1 -1</clus>
<clus scale="   39.241">  1  5  2 -1</clus>
</clustering>
</event>
<event>
 9    1  0.1601012E-005  0.9624526E+02  0.7546771E-02  0.1288451E+00
          3   -1    0    0  502    0 -0.00000000000E+00  0.00000000000E+00  0.24268642138E+02  0.24268642138E+02  0.00000000000E+00 0. -1.
         21   -1    0    0  501  502  0.00000000000E+00 -0.00000000000E+00 -0.67204783630E+03  0.67204783630E+03  0.00000000000E+00 0.  1.
         23    2    1    2    0    0  0.23780683133E+02  0.38134178527E+02 -0.15150309713E+03  0.18026701935E+03  0.86736805139E+02 0.  0.
         23    2    1    2    0    0 -0.41737874889E+02 -0.82662390911E+01 -0.43439070648E+03  0.44502582847E+03  0.86846538309E+02 0.  0.
        -11    1    4    4    0    0  0.18827223076E+02 -0.27317236482E+02 -0.14292371486E+03  0.14672383585E+03  0.00000000000E+00 0.  1.
         11    1    4    4    0    0 -0.60565097965E+02  0.19050997391E+02 -0.29146699162E+03  0.29830199262E+03  0.00000000000E+00 0. -1.
        -11    1    3    3    0    0  0.49098353137E+02  0.81894957050E+01 -0.12017591917E+03  0.13007677605E+03  0.00000000000E+00 0.  1.
         11    1    3    3    0    0 -0.25317670003E+02  0.29944682821E+02 -0.31327177957E+02  0.50190243299E+02  0.00000000000E+00 0. -1.
          3    1    1    2  501    0  0.17957191756E+02 -0.29867939435E+02 -0.61885390555E+02  0.71023630617E+02  0.00000000000E+00 0. -1.
<scales pt_clust_5="13000.00000" pt_clust_6="13000.00000" pt_clust_7="13000.00000" pt_clust_8="13000.00000" pt_clust_9="34.85048"></scales>
<clustering>
<clus scale="   34.850">  2  9  1 -1</clus>
<clus scale="   86.737">  7  8 -1 -1</clus>
<clus scale="   86.847">  5  6 -1 -1</clus>
<clus scale="   96.146">  1  7  2 -1</clus>
<clus scale="   34.850">  2  5  1 -1</clus>
</clustering>
</event>
<event>
 9    1  0.1601012E-005  0.1033316E+03  0.7546771E-02  0.1273549E+00
          1   -1    0    0  502    0 -0.00000000000E+00  0.00000000000E+00  0.24329209302E+03  0.24329209302E+03  0.00000000000E+00 0. -1.
         21   -1    0    0  501  502  0.00000000000E+00 -0.00000000000E+00 -0.71165531620E+02  0.71165531620E+02  0.00000000000E+00 0.  1.
         23    2    1    2    0    0  0.33466918397E+02 -0.10421424090E+02  0.94888209926E+02  0.13616191232E+03  0.91146328925E+02 0.  0.
         23    2    1    2    0    0 -0.56868141717E+02  0.45489350547E+02  0.68865815007E+02  0.13531343590E+03  0.90906319384E+02 0.  0.
        -11    1    3    3    0    0  0.31154997627E+02  0.32134974699E+02  0.17980476482E+02  0.48234717897E+02  0.00000000000E+00 0.  1.
         11    1    3    3    0    0  0.23119207704E+01 -0.42556398789E+02  0.76907733444E+02  0.87927194423E+02  0.00000000000E+00 0. -1.
        -13    1    4    4    0    0 -0.28379382868E+02  0.27611908436E+02 -0.17003623059E+02  0.43092111304E+02  0.00000000000E+00 0.  1.
         13    1    4    4    0    0 -0.28488758849E+02  0.17877442111E+02  0.85869438066E+02  0.92221324600E+02  0.00000000000E+00 0. -1.
          1    1    1    2  501    0  0.23401223320E+02 -0.35067926457E+02  0.83725364646E+01  0.42982276414E+02  0.00000000000E+00 0. -1.
<scales pt_clust_5="13000.00000" pt_clust_6="13000.00000" pt_clust_7="13000.00000" pt_clust_8="13000.00000" pt_clust_9="42.15895"></scales>
<clustering>
<clus scale="   42.159">  2  9  1 -1</clus>
<clus scale="   90.906">  7  8 -1 -1</clus>
<clus scale="   91.146">  5  6 -1 -1</clus>
<clus scale="  103.120">  2  7  1 -1</clus>
<clus scale="   42.159">  2  5  1 -1</clus>
</clustering>
</event>
<event>
 9    1  0.1601012E-005  0.1001215E+03  0.7546771E-02  0.1281209E+00
         -1   -1    0    0    0  501 -0.00000000000E+00  0.00000000000E+00  0.33697330169E+03  0.33697330169E+03  0.00000000000E+00 0.  1.
         21   -1    0    0  501  502  0.00000000000E+00 -0.00000000000E+00 -0.10669797597E+03  0.10669797597E+03  0.00000000000E+00 0.  1.
         23    2    1    2    0    0  0.32396585903E+02 -0.30382738645E+02  0.25970035368E+03  0.27815639971E+03  0.89185533641E+02 0.  0.
         23    2    1    2    0    0  0.20952091088E+02  0.43025922781E+02 -0.11159163572E+00  0.10334407298E+03  0.91595659366E+02 0.  0.
        -11    1    3    3    0    0  0.40178934102E+02 -0.58075000339E+02  0.19317542235E+03  0.20567886671E+03  0.00000000000E+00 0.  1.
         11    1    3    3    0    0 -0.77823481992E+01  0.27692261695E+02  0.66524931330E+02  0.72477532999E+02  0.00000000000E+00 0. -1.
        -13    1    4    4    0    0  0.24485195080E+02 -0.62006292357E+01  0.34721364451E+02  0.42936531420E+02  0.00000000000E+00 0.  1.
         13    1    4    4    0    0 -0.35331039919E+01  0.49226552017E+02 -0.34832956086E+02  0.60407541557E+02  0.00000000000E+00 0. -1.
         -1    1    1    2    0  502 -0.53348676991E+02 -0.12643184136E+02 -0.29313436333E+02  0.62170804976E+02  0.00000000000E+00 0.  1.
<scales pt_clust_5="13000.00000" pt_clust_6="13000.00000" pt_clust_7="13000.00000" pt_clust_8="13000.00000" pt_clust_9="54.82638"></scales>
<clustering>
<clus scale="   54.826">  2  9  1 -1</clus>
<clus scale="   89.186">  5  6 -1 -1</clus>
<clus scale="   91.596">  7  8 -1 -1</clus>
<clus scale="   97.921">  1  5  2 -1</clus>
<clus scale="   54.826">  2  5  1 -1</clus>
</clustering>
</event>
<event>
 9    1  0.1601012E-005  0.1191452E+03  0.7546771E-02  0.1247210E+00
          2   -1    0    0  502    0 -0.00000000000E+00  0.00000000000E+00  0.17823387318E+03  0.17823387318E+03  0.00000000000E+00 0. -1.
         21   -1    0    0  501  502  0.00000000000E+00 -0.00000000000E+00 -0.29074292551E+03  0.29074292551E+03  0.00000000000E+00 0. -1.
         23    2    1    2    0    0 -0.35639335175E+02 -0.59391845283E+02  0.52505749894E+02  0.12358280132E+03  0.87853864533E+02 0.  0.
         23    2    1    2    0    0 -0.65162464694E+01  0.16039680853E+03 -0.15269458025E+03  0.23525370712E+03  0.79114311101E+02 0.  0.
        -11    1    4    4    0    0  0.14513261778E+02  0.12617914997E+03 -0.14766991056E+03  0.19477734760E+03  0.00000000000E+00 0.  1.
         11    1    4    4    0    0 -0.21029508247E+02  0.34217658566E+02 -0.50246696978E+01  0.40476359525E+02  0.00000000000E+00 0. -1.
        -11    1    3    3    0    0 -0.56486527382E+02 -0.22072182402E+02  0.53430277953E+02  0.80825142213E+02  0.00000000000E+00 0.  1.
         11    1    3    3    0    0  0.20847192208E+02 -0.37319662882E+02 -0.92452805883E+00  0.42757659111E+02  0.00000000000E+00 0. -1.
          2    1    1    2  501    0  0.42155581644E+02 -0.10100496325E+03 -0.12320221970E+02  0.11014029024E+03  0.00000000000E+00 0. -1.
<scales pt_clust_5="13000.00000" pt_clust_6="13000.00000" pt_clust_7="13000.00000" pt_clust_8="13000.00000" pt_clust_9="109.44911"></scales>
<clustering>
<clus scale="   79.114">  5  6 -1 -1</clus>
<clus scale="   87.854">  7  8 -1 -1</clus>
<clus scale="  109.449">  2  9  1 -1</clus>
<clus scale="  112.855">  2  5  1 -1</clus>
<clus scale="  109.449">  2  5  1 -1</clus>
</clustering>
</event>
<event>
 9    1  0.1601012E-005  0.1104621E+03  0.7546771E-02  0.1262859E+00
         21   -1    0    0  501  502  0.00000000000E+00  0.00000000000E+00  0.10946221918E+03  0.10946221918E+03  0.00000000000E+00 0. -1.
          3   -1    0    0  502    0 -0.00000000000E+00 -0.00000000000E+00 -0.18008216974E+03  0.18008216974E+03  0.00000000000E+00 0. -1.
         23    2    1    2    0    0  0.37447877789E+02  0.39630304411E+02 -0.81791080443E+02  0.13893623428E+03  0.98186515257E+02 0.  0.
         23    2    1    2    0    0 -0.11702183222E+02 -0.47583001193E+02 -0.24448305584E+02  0.10594463084E+03  0.90694333142E+02 0.  0.
        -11    1    3    3    0    0 -0.26905323959E+02  0.38408136339E+02 -0.25229025042E+02  0.53250212196E+02  0.00000000000E+00 0.  1.
         11    1    3    3    0    0  0.64353201749E+02  0.12221680722E+01 -0.56562055401E+02  0.85686022088E+02  0.00000000000E+00 0. -1.
        -11    1    4    4    0    0 -0.37505277928E+02 -0.21502408775E+02  0.20565035305E+02  0.47874002681E+02  0.00000000000E+00 0.  1.
         11    1    4    4    0    0  0.25803094706E+02 -0.26080592419E+02 -0.45013340889E+02  0.58070628163E+02  0.00000000000E+00 0. -1.
          3    1    1    2  501    0 -0.25745694567E+02  0.79526967825E+01  0.35619435462E+02  0.44663523792E+02  0.00000000000E+00 0. -1.
<scales pt_clust_5="13000.00000" pt_clust_6="13000.00000" pt_clust_7="13000.00000" pt_clust_8="13000.00000" pt_clust_9="26.94599"></scales>
<clustering>
<clus scale="   26.946">  1  9  2 -1</clus>
<clus scale="   90.694">  7  8 -1 -1</clus>
<clus scale="   98.187">  5  6 -1 -1</clus>
<clus scale="  103.859">  1  7  2 -1</clus>
<clus scale="   26.946">  1  5  2 -1</clus>
</clustering>
</event>
<event>
 9    1  0.1601012E-005  0.2538898E+03  0.7546771E-02  0.1146721E+00
          2   -1    0    0  502    0 -0.00000000000E+00  0.00000000000E+00  0.21012301107E+04  0.21012301107E+04  0.00000000000E+00 0. -1.
         21   -1    0    0  501  502  0.00000000000E+00 -0.00000000000E+00 -0.55823241589E+02  0.55823241589E+02  0.00000000000E+00 0.  1.
         23    2    1    2    0    0 -0.39368442446E+02 -0.33665099474E+02  0.34895553802E+03  0.36442050480E+03  0.91373538965E+02 0.  0.
         23    2    1    2    0    0  0.16629624190E+03  0.22034588475E+03  0.13365348722E+04  0.13677796502E+04  0.91043714096E+02 0.  0.
        -11    1    3    3    0    0 -0.64302154003E+02 -0.67672008369E+01  0.17311025274E+03  0.18479102148E+03  0.00000000000E+00 0. -1.
         11    1    3    3    0    0  0.24933711557E+02 -0.26897898637E+02  0.17584528528E+03  0.17962948332E+03  0.00000000000E+00 0.  1.
        -13    1    4    4    0    0  0.87460902917E+02  0.69096267115E+02  0.37423829408E+03  0.39048432034E+03  0.00000000000E+00 0.  1.
         13    1    4    4    0    0  0.78835338985E+02  0.15124961763E+03  0.96229657813E+03  0.97729532987E+03  0.00000000000E+00 0. -1.
          2    1    1    2  501    0 -0.12692779946E+03 -0.18668078527E+03  0.35991645886E+03  0.42485319726E+03  0.00000000000E+00 0. -1.
<scales pt_clust_5="13000.00000" pt_clust_6="13000.00000" pt_clust_7="13000.00000" pt_clust_8="13000.00000" pt_clust_9="237.00435"></scales>
<clustering>
<clus scale="   91.044">  7  8 -1 -1</clus>
<clus scale="   91.374">  5  6 -1 -1</clus>
<clus scale="  105.035">  1  5  2 -1</clus>
<clus scale="  237.004">  2  9  1 -1</clus>
<clus scale="  237.004">  2  5  1 -1</clus>
</clustering>
</event>
<event>
 9    1  0.1601012E-005  0.9646470E+02  0.7546771E-02  0.1291240E+00
         21   -1    0    0  501  502  0.00000000000E+00  0.00000000000E+00  0.93061220031E+02  0.93061220031E+02  0.00000000000E+00 0. -1.
          1   -1    0    0  502    0 -0.00000000000E+00 -0.00000000000E+00 -0.21063051489E+03  0.21063051489E+03  0.00000000000E+00 0. -1.
         23    2    1    2    0    0 -0.34254712561E+02 -0.25641744966E+02 -0.13273310059E+03  0.16672823655E+03  0.91374747339E+02 0.  0.
         23    2    1    2    0    0  0.12362137786E+01  0.89301686306E+01 -0.17693044685E+02  0.87475412288E+02  0.85191711970E+02 0.  0.
        -11    1    4    4    0    0  0.17643429901E+02 -0.28525299650E+02  0.13386535785E+02  0.36113469497E+02  0.00000000000E+00 0.  1.
         11    1    4    4    0    0 -0.16407216122E+02  0.37455468281E+02 -0.31079580470E+02  0.51361942791E+02  0.00000000000E+00 0. -1.
        -13    1    3    3    0    0 -0.62287584641E+02 -0.28504469350E+01 -0.10071200877E+03  0.11845158065E+03  0.00000000000E+00 0. -1.
         13    1    3    3    0    0  0.28032872080E+02 -0.22791298031E+02 -0.32021091828E+02  0.48276655900E+02  0.00000000000E+00 0.  1.
          1    1    1    2  501    0  0.33018498782E+02  0.16711576335E+02  0.32856850417E+02  0.49488086089E+02  0.00000000000E+00 0. -1.
<scales pt_clust_5="13000.00000" pt_clust_6="13000.00000" pt_clust_7="13000.00000" pt_clust_8="13000.00000" pt_clust_9="37.00673"></scales>
<clustering>
<clus scale="   37.007">  1  9  2 -1</clus>
<clus scale="   85.192">  5  6 -1 -1</clus>
<clus scale="   90.630">  1  5  2 -1</clus>
<clus scale="   91.375">  7  8 -1 -1</clus>
<clus scale="   37.007">  1  5  2 -1</clus>
</clustering>
</event>
<event>
 9    1  0.1601012E-005  0.1517974E+03  0.7546771E-02  0.1202348E+00
          1   -1    0    0  502    0 -0.00000000000E+00  0.00000000000E+00  0.72335198534E+03  0.72335198534E+03  0.00000000000E+00 0. -1.
         21   -1    0    0  501  502  0.00000000000E+00 -0.00000000000E+00 -0.74523106657E+02  0.74523106657E+02  0.00000000000E+00 0. -1.
         23    2    1    2    0    0 -0.62022620232E+02  0.81645230111E+02  0.51291195851E+03  0.53079019996E+03  0.90259681863E+02 0.  0.
         23    2    1    2    0    0  0.57730963335E+02 -0.10286887518E+03  0.16537728064E+03  0.23052296830E+03  0.10897854996E+03 0.  0.
        -11    1    4    4    0    0  0.67117504291E+02 -0.84731046583E+02  0.60899747657E+02  0.12406808172E+03  0.00000000000E+00 0.  1.
         11    1    4    4    0    0 -0.93865409560E+01 -0.18137828598E+02  0.10447753298E+03  0.10645488657E+03  0.00000000000E+00 0. -1.
        -13    1    3    3    0    0 -0.26714322705E+01  0.60513791274E+02  0.13924367017E+03  0.15184813192E+03  0.00000000000E+00 0.  1.
         13    1    3    3    0    0 -0.59351187961E+02  0.21131438837E+02  0.37366828835E+03  0.37894206805E+03  0.00000000000E+00 0. -1.
          1    1    1    2  501    0  0.42916568967E+01  0.21223645071E+02 -0.29460360466E+02  0.36561923743E+02  0.00000000000E+00 0. -1.
<scales pt_clust_5="13000.00000" pt_clust_6="13000.00000" pt_clust_7="13000.00000" pt_clust_8="13000.00000" pt_clust_9="21.65321"></scales>
<clustering>
<clus scale="   21.653">  2  9  1 -1</clus>
<clus scale="   90.260">  7  8 -1 -1</clus>
<clus scale="  108.979">  5  6 -1 -1</clus>
<clus scale="  138.971">  1  7  2 -1</clus>
<clus scale="   21.653">  2  5  1 -1</clus>
</clustering>
</event>
<event>
 9    1  0.1601012E-005  0.2001413E+03  0.7546771E-02  0.1150866E+00
          2   -1    0    0  502    0 -0.00000000000E+00  0.00000000000E+00  0.15487675617E+04  0.15487675617E+04  0.00000000000E+00 0. -1.
         21   -1    0    0  501  502  0.00000000000E+00 -0.00000000000E+00 -0.34874580320E+02  0.34874580320E+02  0.00000000000E+00 0.  1.
         23    2    1    2    0    0  0.71056902455E+02 -0.16728694693E+03  0.87472804740E+03  0.89805497939E+03  0.91211748710E+02 0.  0.
         23    2    1    2    0    0 -0.40451316788E+02  0.15487714246E+03  0.61728255190E+03  0.64596969469E+03  0.10303329212E+03 0.  0.
        -11    1    4    4    0    0 -0.21556282995E+02  0.44244023168E+02  0.60511658260E+02  0.77999151970E+02  0.00000000000E+00 0.  1.
         11    1    4    4    0    0 -0.18895033793E+02  0.11063311929E+03  0.55677089364E+03  0.56797054272E+03  0.00000000000E+00 0. -1.
        -13    1    3    3    0    0  0.90258736153E+02 -0.11588448273E+03  0.68379165684E+03  0.69939036507E+03  0.00000000000E+00 0. -1.
         13    1    3    3    0    0 -0.19201833698E+02 -0.51402464203E+02  0.19093639055E+03  0.19866461432E+03  0.00000000000E+00 0.  1.
          2    1    1    2  501    0 -0.30605585667E+02  0.12409804474E+02  0.21882382087E+02  0.39617467952E+02  0.00000000000E+00 0. -1.
<scales pt_clust_5="13000.00000" pt_clust_6="13000.00000" pt_clust_7="13000.00000" pt_clust_8="13000.00000" pt_clust_9="33.02583"></scales>
<clustering>
<clus scale="   33.026">  2  9  1 -1</clus>
<clus scale="   91.212">  7  8 -1 -1</clus>
<clus scale="  103.033">  5  6 -1 -1</clus>
<clus scale="  194.320">  1  7  2 -1</clus>
<clus scale="   33.026">  2  5  1 -1</clus>
</clustering>
</event>
<event>
 9    1  0.1601012E-005  0.1016001E+03  0.7546771E-02  0.1277485E+00
         -1   -1    0    0    0  501 -0.00000000000E+00  0.00000000000E+00  0.47359089916E+03  0.47359089916E+03  0.00000000000E+00 0.  1.
         21   -1    0    0  501  502  0.00000000000E+00 -0.00000000000E+00 -0.99380659640E+02  0.99380659640E+02  0.00000000000E+00 0.  1.
         23    2    1    2    0    0 -0.29031530793E+02 -0.47232011666E+02  0.26989436257E+03  0.28975321408E+03  0.89667527129E+02 0.  0.
         23    2    1    2    0    0  0.48783462414E+02  0.57600861598E+01  0.17308261507E+03  0.20052055951E+03  0.88531905829E+02 0.  0.
        -11    1    4    4    0    0  0.25225490182E+02 -0.41353246328E+02  0.88040177177E+02  0.10048626341E+03  0.00000000000E+00 0.  1.
         11    1    4    4    0    0  0.23557972232E+02  0.47113332488E+02  0.85042437890E+02  0.10003429610E+03  0.00000000000E+00 0. -1.
        -13    1    3    3    0    0 -0.27212398248E+02  0.12962151669E+02  0.17346180269E+03  0.17606115127E+03  0.00000000000E+00 0.  1.
         13    1    3    3    0    0 -0.18191325454E+01 -0.60194163335E+02  0.96432559879E+02  0.11369206282E+03  0.00000000000E+00 0. -1.
         -1    1    1    2    0  502 -0.19751931621E+02  0.41471925506E+02 -0.68766738111E+02  0.82697785208E+02  0.00000000000E+00 0.  1.
<scales pt_clust_5="13000.00000" pt_clust_6="13000.00000" pt_clust_7="13000.00000" pt_clust_8="13000.00000" pt_clust_9="45.93538"></scales>
<clustering>
<clus scale="   45.935">  2  9  1 -1</clus>
<clus scale="   88.532">  5  6 -1 -1</clus>
<clus scale="   89.668">  7  8 -1 -1</clus>
<clus scale="  100.599">  2  5  1 -1</clus>
<clus scale="   45.935">  2  5  1 -1</clus>
</clustering>
</event>
<event>
 9    1  0.1601012E-005  0.1959174E+03  0.7546771E-02  0.1153784E+00
         21   -1    0    0  501  502  0.00000000000E+00  0.00000000000E+00  0.22199025128E+03  0.22199025128E+03  0.00000000000E+00 0. -1.
         -2   -1    0    0    0  501 -0.00000000000E+00 -0.00000000000E+00 -0.21949437117E+03  0.21949437117E+03  0.00000000000E+00 0.  1.
         23    2    1    2    0    0  0.58713596403E+01  0.15271829515E+03 -0.73914471052E+01  0.17883549477E+03  0.92575105530E+02 0.  0.
         23    2    1    2    0    0  0.57028043011E+00 -0.19784414733E+03  0.75898510582E+00  0.21616080772E+03  0.87076327918E+02 0.  0.
        -11    1    3    3    0    0 -0.21822698833E+02  0.13838511855E+03  0.14339454752E+02  0.14082716777E+03  0.00000000000E+00 0.  1.
         11    1    3    3    0    0  0.27694058473E+02  0.14333176603E+02 -0.21730901857E+02  0.38008327006E+02  0.00000000000E+00 0. -1.
        -11    1    4    4    0    0 -0.29376070757E+02 -0.27617797871E+02 -0.14024443643E+02  0.42689358297E+02  0.00000000000E+00 0.  1.
         11    1    4    4    0    0  0.29946351187E+02 -0.17022634946E+03  0.14783428749E+02  0.17347144942E+03  0.00000000000E+00 0. -1.
         -2    1    1    2    0  502 -0.64416400704E+01  0.45125852183E+02  0.91283421087E+01  0.46488319949E+02  0.00000000000E+00 0.  1.
<scales pt_clust_5="13000.00000" pt_clust_6="13000.00000" pt_clust_7="13000.00000" pt_clust_8="13000.00000" pt_clust_9="45.58330"></scales>
<clustering>
<clus scale="   45.583">  1  9  2 -1</clus>
<clus scale="   87.076">  7  8 -1 -1</clus>
<clus scale="   92.575">  5  6 -1 -1</clus>
<clus scale="  193.380">  1  7  2 -1</clus>
<clus scale="   45.583">  1  5  2 -1</clus>
</clustering>
</event>
<event>
 9    1  0.3571187E-005  0.9069410E+02  0.7546771E-02  0.1304140E+00
         21   -1    0    0  501  502  0.00000000000E+00  0.00000000000E+00  0.17359939410E+03  0.17359939410E+03  0.00000000000E+00 0.  1.
         -2   -1    0    0    0  501 -0.00000000000E+00 -0.00000000000E+00 -0.31465843562E+03  0.31465843562E+03  0.00000000000E+00 0.  1.
         23    2    1    2    0    0  0.42469198425E+01 -0.10340100497E+02 -0.19597232914E+03  0.21421274984E+03  0.85772923460E+02 0.  0.
         23    2    1    2    0    0  0.98166542815E+01 -0.45428633637E+02 -0.78634828098E+02  0.12863863216E+03  0.90577778951E+02 0.  0.
        -11    1    4    4    0    0  0.33869297444E+02  0.13500189466E+02 -0.17723275326E+02  0.40540090198E+02  0.00000000000E+00 0. -1.
         11    1    4    4    0    0 -0.24052643163E+02 -0.58928823103E+02 -0.60911552772E+02  0.88098541966E+02  0.00000000000E+00 0.  1.
        -13    1    3    3    0    0 -0.10920656946E+02 -0.29949440716E+02 -0.18389315671E+03  0.18663580265E+03  0.00000000000E+00 0.  1.
         13    1    3    3    0    0  0.15167576789E+02  0.19609340219E+02 -0.12079172429E+02  0.27576947185E+02  0.00000000000E+00 0. -1.
         -2    1    1    2    0  502 -0.14063574124E+02  0.55768734133E+02  0.13354811572E+03  0.14540644772E+03  0.00000000000E+00 0.  1.
<scales pt_clust_5="13000.00000" pt_clust_6="13000.00000" pt_clust_7="13000.00000" pt_clust_8="13000.00000" pt_clust_9="57.51466"></scales>
<clustering>
<clus scale="   57.515">  1  9  2 -1</clus>
<clus scale="   85.773">  7  8 -1 -1</clus>
<clus scale="   85.896">  2  7  1 -1</clus>
<clus scale="   90.578">  5  6 -1 -1</clus>
<clus scale="   57.515">  1  5  2 -1</clus>
</clustering>
</event>
<event>
 9    1  0.1601012E-005  0.1048594E+03  0.7546771E-02  0.1271538E+00
          1   -1    0    0  502    0 -0.00000000000E+00  0.00000000000E+00  0.49082942967E+03  0.49082942967E+03  0.00000000000E+00 0. -1.
         21   -1    0    0  501  502  0.00000000000E+00 -0.00000000000E+00 -0.22706182222E+03  0.22706182222E+03  0.00000000000E+00 0. -1.
         23    2    1    2    0    0  0.37310680389E+01 -0.52223975466E+02  0.45162396815E+03  0.46340571961E+03  0.89662633652E+02 0.  0.
         23    2    1    2    0    0 -0.56537837199E+01  0.18980083386E+02 -0.39271883349E+02  0.10221537728E+03  0.92268595386E+02 0.  0.
        -13    1    3    3    0    0 -0.40264150998E+02 -0.12511283262E+02  0.14062983660E+03  0.14681445776E+03  0.00000000000E+00 0.  1.
         13    1    3    3    0    0  0.43995219037E+02 -0.39712692205E+02  0.31099413155E+03  0.31659126185E+03  0.00000000000E+00 0. -1.
        -13    1    4    4    0    0 -0.40098086839E+02  0.36883103662E+02 -0.30424011136E+02  0.62400643886E+02  0.00000000000E+00 0. -1.
         13    1    4    4    0    0  0.34444303119E+02 -0.17903020275E+02 -0.88478722131E+01  0.39814733391E+02  0.00000000000E+00 0.  1.
          1    1    1    2  501    0  0.19227156810E+01  0.33243892080E+02 -0.14858447735E+03  0.15227015501E+03  0.00000000000E+00 0. -1.
<scales pt_clust_5="13000.00000" pt_clust_6="13000.00000" pt_clust_7="13000.00000" pt_clust_8="13000.00000" pt_clust_9="33.29945"></scales>
<clustering>
<clus scale="   33.299">  2  9  1 -1</clus>
<clus scale="   89.663">  5  6 -1 -1</clus>
<clus scale="   92.269">  7  8 -1 -1</clus>
<clus scale="  102.574">  1  5  2 -1</clus>
<clus scale="   33.299">  2  5  1 -1</clus>
</clustering>
</event>
<event>
 9    1  0.1601012E-005  0.1314722E+03  0.7546771E-02  0.1238656E+00
         21   -1    0    0  501  502  0.00000000000E+00  0.00000000000E+00  0.23512674574E+03  0.23512674574E+03  0.00000000000E+00 0. -1.
          1   -1    0    0  502    0 -0.00000000000E+00 -0.00000000000E+00 -0.12857461413E+03  0.12857461413E+03  0.00000000000E+00 0. -1.
         23    2    1    2    0    0 -0.98007572216E+01  0.24880556717E+02 -0.23283970911E+02  0.10252577558E+03  0.96199243302E+02 0.  0.
         23    2    1    2    0    0 -0.21932831621E+02  0.71931888112E+02  0.43892863294E+02  0.12788676067E+03  0.93665332301E+02 0.  0.
        -11    1    3    3    0    0 -0.49650187477E+02  0.11275209757E+02  0.59554810262E+01  0.51261478966E+02  0.00000000000E+00 0.  1.
         11    1    3    3    0    0  0.39849430255E+02  0.13605346960E+02 -0.29239451938E+02  0.51264296613E+02  0.00000000000E+00 0. -1.
        -13    1    4    4    0    0  0.17573877117E+02  0.78049463309E+02  0.32133778660E+02  0.86215657572E+02  0.00000000000E+00 0. -1.
         13    1    4    4    0    0 -0.39506708737E+02 -0.61175751965E+01  0.11759084635E+02  0.41671103093E+02  0.00000000000E+00 0.  1.
          1    1    1    2  501    0  0.31733588842E+02 -0.96812444829E+02  0.85943239229E+02  0.13328882363E+03  0.00000000000E+00 0. -1.
<scales pt_clust_5="13000.00000" pt_clust_6="13000.00000" pt_clust_7="13000.00000" pt_clust_8="13000.00000" pt_clust_9="92.25911"></scales>
<clustering>
<clus scale="   93.665">  7  8 -1 -1</clus>
<clus scale="   96.199">  5  6 -1 -1</clus>
<clus scale="   99.847">  2  5  1 -1</clus>
<clus scale="   92.259">  1  9  2 -1</clus>
<clus scale="   92.259">  1  5  2 -1</clus>
</clustering>
</event>
<event>
 9    1  0.1601012E-005  0.1306823E+03  0.7546771E-02  0.1227027E+00
         21   -1    0    0  501  502  0.00000000000E+00  0.00000000000E+00  0.60008759196E+03  0.60008759196E+03  0.00000000000E+00 0. -1.
          3   -1    0    0  502    0 -0.00000000000E+00 -0.00000000000E+00 -0.56337664515E+02  0.56337664515E+02  0.00000000000E+00 0. -1.
         23    2    1    2    0    0  0.29738983080E+02  0.72648184081E+02  0.10468580713E+03  0.16147629849E+03  0.94621937168E+02 0.  0.
         23    2    1    2    0    0  0.71024993973E+01 -0.11557008137E+03  0.19779091986E+03  0.24713382254E+03  0.92449927307E+02 0.  0.
        -11    1    3    3    0    0 -0.95483183371E+01  0.68291737464E+02  0.26511847803E+02  0.73876991430E+02  0.00000000000E+00 0. -1.
         11    1    3    3    0    0  0.39287301417E+02  0.43564466173E+01  0.78173959328E+02  0.87599307056E+02  0.00000000000E+00 0.  1.
        -13    1    4    4    0    0  0.18530538609E+02 -0.95910327617E+02  0.77447228237E+02  0.12466051888E+03  0.00000000000E+00 0. -1.
         13    1    4    4    0    0 -0.11428039211E+02 -0.19659753758E+02  0.12034369162E+03  0.12247330366E+03  0.00000000000E+00 0.  1.
          3    1    1    2  501    0 -0.36841482477E+02  0.42921897294E+02  0.24127320046E+03  0.24781513545E+03  0.00000000000E+00 0. -1.
<scales pt_clust_5="13000.00000" pt_clust_6="13000.00000" pt_clust_7="13000.00000" pt_clust_8="13000.00000" pt_clust_9="56.56487"></scales>
<clustering>
<clus scale="   56.565">  1  9  2 -1</clus>
<clus scale="   92.450">  7  8 -1 -1</clus>
<clus scale="   94.622">  5  6 -1 -1</clus>
<clus scale="  129.118">  1  7  2 -1</clus>
<clus scale="   56.565">  1  5  2 -1</clus>
</clustering>
</event>
<event>
 9    1  0.1601012E-005  0.9682331E+02  0.7546771E-02  0.1288713E+00
          1   -1    0    0  502    0 -0.00000000000E+00  0.00000000000E+00  0.32037150335E+03  0.32037150335E+03  0.00000000000E+00 0. -1.
         21   -1    0    0  501  502  0.00000000000E+00 -0.00000000000E+00 -0.68993384642E+02  0.68993384642E+02  0.00000000000E+00 0. -1.
         23    2    1    2    0    0  0.14346175963E+02 -0.10113324763E+02  0.15238113731E+03  0.17906884302E+03  0.92398849720E+02 0.  0.
         23    2    1    2    0    0  0.31526621752E+01  0.22754161193E+02  0.13588615282E+03  0.16755483477E+03  0.95298924416E+02 0.  0.
        -11    1    4    4    0    0 -0.32536732303E+02 -0.21147451123E+02  0.74966697616E+02  0.84414805511E+02  0.00000000000E+00 0.  1.
         11    1    4    4    0    0  0.35689394479E+02  0.43901612316E+02  0.60919455203E+02  0.83140029255E+02  0.00000000000E+00 0. -1.
        -13    1    3    3    0    0 -0.37460859379E+02 -0.36009654854E+01  0.38759885661E+02  0.54024176757E+02  0.00000000000E+00 0.  1.
         13    1    3    3    0    0  0.51807035342E+02 -0.65123592774E+01  0.11362125164E+03  0.12504466626E+03  0.00000000000E+00 0. -1.
          1    1    1    2  501    0 -0.17498838139E+02 -0.12640836430E+02 -0.36889171422E+02  0.42741210208E+02  0.00000000000E+00 0. -1.
<scales pt_clust_5="13000.00000" pt_clust_6="13000.00000" pt_clust_7="13000.00000" pt_clust_8="13000.00000" pt_clust_9="21.58704"></scales>
<clustering>
<clus scale="   21.587">  2  9  1 -1</clus>
<clus scale="   92.399">  7  8 -1 -1</clus>
<clus scale="   93.970">  1  7  2 -1</clus>
<clus scale="   95.299">  5  6 -1 -1</clus>
<clus scale="   21.587">  2  5  1 -1</clus>
</clustering>
</event>
<event>
 9    1  0.1601012E-005  0.9439743E+02  0.7546771E-02  0.1294347E+00
         -1   -1    0    0    0  501 -0.00000000000E+00  0.00000000000E+00  0.29757542056E+03  0.29757542056E+03  0.00000000000E+00 0.  1.
         21   -1    0    0  501  502  0.00000000000E+00 -0.00000000000E+00 -0.11304778442E+03  0.11304778442E+03  0.00000000000E+00 0.  1.
         23    2    1    2    0    0 -0.26989447452E+02 -0.26524581918E+02  0.19613203630E+03  0.21766932084E+03  0.86487998315E+02 0.  0.
         23    2    1    2    0    0  0.81096247296E+01  0.67297444987E+01  0.65177807734E+02  0.11144443227E+03  0.89781175028E+02 0.  0.
        -13    1    4    4    0    0 -0.31803626468E+02  0.30397481613E+02  0.31522284596E+02  0.54121455737E+02  0.00000000000E+00 0. -1.
         13    1    4    4    0    0  0.39913251198E+02 -0.23667737114E+02  0.33655523138E+02  0.57322976536E+02  0.00000000000E+00 0.  1.
        -13    1    3    3    0    0 -0.46376346196E+02 -0.45494330206E+02  0.15835702319E+03  0.17116496827E+03  0.00000000000E+00 0.  1.
         13    1    3    3    0    0  0.19386898745E+02  0.18969748288E+02  0.37775013103E+02  0.46504352570E+02  0.00000000000E+00 0. -1.
         -1    1    1    2    0  502  0.18879822722E+02  0.19794837419E+02 -0.76782207894E+02  0.81509451866E+02  0.00000000000E+00 0.  1.
<scales pt_clust_5="13000.00000" pt_clust_6="13000.00000" pt_clust_7="13000.00000" pt_clust_8="13000.00000" pt_clust_9="27.35477"></scales>
<clustering>
<clus scale="   27.355">  2  9  1 -1</clus>
<clus scale="   86.488">  7  8 -1 -1</clus>
<clus scale="   89.781">  5  6 -1 -1</clus>
<clus scale="   91.271">  1  7  2 -1</clus>
<clus scale="   27.355">  2  5  1 -1</clus>
</clustering>
</event>
<event>
 9    1  0.1601012E-005  0.1213441E+03  0.7546771E-02  0.1242349E+00
          1   -1    0    0  502    0 -0.00000000000E+00  0.00000000000E+00  0.29466232578E+03  0.29466232578E+03  0.00000000000E+00 0. -1.
         21   -1    0    0  501  502  0.00000000000E+00 -0.00000000000E+00 -0.17093950696E+03  0.17093950696E+03  0.00000000000E+00 0. -1.
         23    2    1    2    0    0 -0.63592408899E+02  0.41923173610E+02  0.14843188949E+03  0.19024544410E+03  0.91431702528E+02 0.  0.
         23    2    1    2    0    0  0.79233591346E+02 -0.57174320885E+00  0.89251958745E+02  0.15312012720E+03  0.95924826434E+02 0.  0.
        -11    1    4    4    0    0  0.85103202739E+02 -0.31479306697E+02  0.78166009962E+02  0.11976404711E+03  0.00000000000E+00 0. -1.
         11    1    4    4    0    0 -0.58696113922E+01  0.30907563489E+02  0.11085948783E+02  0.33356080092E+02  0.00000000000E+00 0.  1.
        -11    1    3    3    0    0 -0.22073264570E+02 -0.94158210022E+01  0.11258738146E+03  0.11511648517E+03  0.00000000000E+00 0. -1.
         11    1    3    3    0    0 -0.41519144329E+02  0.51338994612E+02  0.35844508030E+02  0.75128958927E+02  0.00000000000E+00 0.  1.
          1    1    1    2  501    0 -0.15641182448E+02 -0.41351430401E+02 -0.11396102942E+03  0.12223626144E+03  0.00000000000E+00 0. -1.
<scales pt_clust_5="13000.00000" pt_clust_6="13000.00000" pt_clust_7="13000.00000" pt_clust_8="13000.00000" pt_clust_9="44.21072"></scales>
<clustering>
<clus scale="   44.211">  2  9  1 -1</clus>
<clus scale="   91.432">  7  8 -1 -1</clus>
<clus scale="   95.925">  5  6 -1 -1</clus>
<clus scale="  117.824">  1  7  2 -1</clus>
<clus scale="   44.211">  2  5  1 -1</clus>
</clustering>
</event>
<event>
 9    1  0.1601012E-005  0.1446079E+03  0.7546771E-02  0.1230210E+00
         21   -1    0    0  501  502  0.00000000000E+00  0.00000000000E+00  0.35335061109E+03  0.35335061109E+03  0.00000000000E+00 0. -1.
          1   -1    0    0  502    0 -0.00000000000E+00 -0.00000000000E+00 -0.51029651143E+03  0.51029651143E+03  0.00000000000E+00 0. -1.
         23    2    1    2    0    0 -0.16028252986E+02 -0.12114650866E+02 -0.26039625397E+03  0.27525600082E+03  0.86925181890E+02 0.  0.
         23    2    1    2    0    0 -0.96352291854E+02  0.15281492892E+02 -0.21354313512E+03  0.25205157949E+03  0.91717173933E+02 0.  0.
        -11    1    3    3    0    0  0.14311977731E+02  0.21931289709E+02 -0.27646513646E+02  0.38080754873E+02  0.00000000000E+00 0.  1.
         11    1    3    3    0    0 -0.30340230717E+02 -0.34045940575E+02 -0.23274974032E+03  0.23717524595E+03  0.00000000000E+00 0. -1.
        -11    1    4    4    0    0 -0.10367745178E+03 -0.10316974844E+02 -0.14527099307E+03  0.17877112576E+03  0.00000000000E+00 0. -1.
         11    1    4    4    0    0  0.73251599269E+01  0.25598467735E+02 -0.68272142053E+02  0.73280453730E+02  0.00000000000E+00 0.  1.
          1    1    1    2  501    0  0.11238054484E+03 -0.31668420256E+01  0.31699348875E+03  0.33633954221E+03  0.00000000000E+00 0. -1.
<scales pt_clust_5="13000.00000" pt_clust_6="13000.00000" pt_clust_7="13000.00000" pt_clust_8="13000.00000" pt_clust_9="111.80072"></scales>
<clustering>
<clus scale="   86.925">  5  6 -1 -1</clus>
<clus scale="   89.217">  2  5  1 -1</clus>
<clus scale="   91.717">  7  8 -1 -1</clus>
<clus scale="  111.801">  1  9  2 -1</clus>
<clus scale="  111.801">  1  5  2 -1</clus>
</clustering>
</event>
<event>
 9    1  0.1601012E-005  0.1808900E+03  0.7546771E-02  0.1166950E+00
         -3   -1    0    0    0  501 -0.00000000000E+00  0.00000000000E+00  0.46351615433E+03  0.46351615433E+03  0.00000000000E+00 0.  1.
         21   -1    0    0  501  502  0.00000000000E+00 -0.00000000000E+00 -0.18796098681E+03  0.18796098681E+03  0.00000000000E+00 0.  1.
         23    2    1    2    0    0  0.10508366784E+03 -0.88294238439E+02  0.21913495711E+03  0.27401898661E+03  0.90707363575E+02 0.  0.
         23    2    1    2    0    0 -0.17888019800E+03  0.16641198858E+03  0.11106432865E+02  0.26083204602E+03  0.90658304624E+02 0.  0.
        -11    1    3    3    0    0  0.10506015945E+02 -0.19621958746E+02 -0.35363671238E+01  0.22536715123E+02  0.00000000000E+00 0.  1.
         11    1    3    3    0    0  0.94577651894E+02 -0.68672279693E+02  0.22267132424E+03  0.25148227149E+03  0.00000000000E+00 0. -1.
        -11    1    4    4    0    0 -0.41679758920E+02  0.64606833039E+02  0.41398399181E+02  0.87321661881E+02  0.00000000000E+00 0.  1.
         11    1    4    4    0    0 -0.13720043909E+03  0.10180515554E+03 -0.30291966316E+02  0.17351038414E+03  0.00000000000E+00 0. -1.
         -3    1    1    2    0  502  0.73796530165E+02 -0.78117750143E+02  0.45313777545E+02  0.11662610851E+03  0.00000000000E+00 0.  1.
<scales pt_clust_5="13000.00000" pt_clust_6="13000.00000" pt_clust_7="13000.00000" pt_clust_8="13000.00000" pt_clust_9="107.46307"></scales>
<clustering>
<clus scale="   90.658">  7  8 -1 -1</clus>
<clus scale="   90.707">  5  6 -1 -1</clus>
<clus scale="  107.463">  2  9  1 -1</clus>
<clus scale="  180.865">  2  7  1 -1</clus>
<clus scale="  107.463">  2  5  1 -1</clus>
</clustering>
</event>
<event>
 9    1  0.1601012E-005  0.2435423E+03  0.7546771E-02  0.1118204E+00
         21   -1    0    0  501  502  0.00000000000E+00  0.00000000000E+00  0.20095705662E+03  0.20095705662E+03  0.00000000000E+00 0. -1.
         -1   -1    0    0    0  501 -0.00000000000E+00 -0.00000000000E+00 -0.35424232308E+03  0.35424232308E+03  0.00000000000E+00 0.  1.
         23    2    1    2    0    0 -0.16634618387E+02 -0.21419323370E+03 -0.11443938797E+03  0.26453425666E+03  0.10356904717E+03 0.  0.
         23    2    1    2    0    0  0.54333267473E+02  0.22332103966E+03 -0.43811067956E+02  0.25156067201E+03  0.92406554500E+02 0.  0.
        -11    1    4    4    0    0 -0.15044490295E+02  0.45840349074E+02  0.17592077045E+02  0.51353242023E+02  0.00000000000E+00 0.  1.
         11    1    4    4    0    0  0.69377757768E+02  0.17748069059E+03 -0.61403145001E+02  0.20020742998E+03  0.00000000000E+00 0. -1.
        -13    1    3    3    0    0  0.21461540093E+02 -0.19042626624E+03 -0.78772375655E+02  0.20719036596E+03  0.00000000000E+00 0.  1.
         13    1    3    3    0    0 -0.38096158480E+02 -0.23766967459E+02 -0.35667012315E+02  0.57343890700E+02  0.00000000000E+00 0. -1.
         -1    1    1    2    0  502 -0.37698649087E+02 -0.91278059595E+01  0.49651894727E+01  0.39104451039E+02  0.00000000000E+00 0.  1.
<scales pt_clust_5="13000.00000" pt_clust_6="13000.00000" pt_clust_7="13000.00000" pt_clust_8="13000.00000" pt_clust_9="38.78795"></scales>
<clustering>
<clus scale="   38.788">  1  9  2 -1</clus>
<clus scale="   92.407">  5  6 -1 -1</clus>
<clus scale="  103.569">  7  8 -1 -1</clus>
<clus scale="  239.009">  1  5  2 -1</clus>
<clus scale="   38.788">  1  5  2 -1</clus>
</clustering>
</event>
<event>
 9    1  0.1601012E-005  0.2070334E+03  0.7546771E-02  0.1144080E+00
          2   -1    0    0  502    0 -0.00000000000E+00  0.00000000000E+00  0.80105928542E+03  0.80105928542E+03  0.00000000000E+00 0. -1.
         21   -1    0    0  501  502  0.00000000000E+00 -0.00000000000E+00 -0.67110250332E+02  0.67110250332E+02  0.00000000000E+00 0.  1.
         23    2    1    2    0    0  0.16360319134E+03  0.90457544520E+02  0.42460939284E+03  0.47240488436E+03  0.89020597079E+02 0.  0.
         23    2    1    2    0    0 -0.14375246105E+03 -0.11947772818E+03  0.28629109001E+03  0.35372350116E+03  0.90653347797E+02 0.  0.
        -13    1    3    3    0    0  0.90303066113E+02  0.12142376828E-01  0.17220954158E+03  0.19444991671E+03  0.00000000000E+00 0.  1.
         13    1    3    3    0    0  0.73300125223E+02  0.90445402143E+02  0.25239985126E+03  0.27795496765E+03  0.00000000000E+00 0. -1.
        -13    1    4    4    0    0 -0.51554048797E+02 -0.23006202680E+02  0.16126334736E+03  0.17085951103E+03  0.00000000000E+00 0. -1.
         13    1    4    4    0    0 -0.92198412252E+02 -0.96471525498E+02  0.12502774266E+03  0.18286399013E+03  0.00000000000E+00 0.  1.
          2    1    1    2  501    0 -0.19850730287E+02  0.29020183658E+02  0.23048552241E+02  0.42041150232E+02  0.00000000000E+00 0. -1.
<scales pt_clust_5="13000.00000" pt_clust_6="13000.00000" pt_clust_7="13000.00000" pt_clust_8="13000.00000" pt_clust_9="35.15996"></scales>
<clustering>
<clus scale="   35.160">  2  9  1 -1</clus>
<clus scale="   89.021">  5  6 -1 -1</clus>
<clus scale="   90.653">  7  8 -1 -1</clus>
<clus scale="  206.324">  1  5  2 -1</clus>
<clus scale="   35.160">  2  5  1 -1</clus>
</clustering>
</event>
<event>
 9    1  0.1601012E-005  0.9567746E+02  0.7546771E-02  0.1290266E+00
         21   -1    0    0  501  502  0.00000000000E+00  0.00000000000E+00  0.13158618786E+03  0.13158618786E+03  0.00000000000E+00 0. -1.
          1   -1    0    0  502    0 -0.00000000000E+00 -0.00000000000E+00 -0.27834728566E+03  0.27834728566E+03  0.00000000000E+00 0. -1.
         23    2    1    2    0    0 -0.23492382658E+01 -0.28390480059E+02 -0.22622809897E+03  0.24580527118E+03  0.91812527985E+02 0.  0.
         23    2    1    2    0    0  0.22145956088E+02  0.15020413637E+02  0.15452532343E+02  0.95801626753E+02  0.90681391343E+02 0.  0.
        -13    1    4    4    0    0 -0.29695696148E+02  0.18121128407E+02  0.25205358793E+02  0.42959513223E+02  0.00000000000E+00 0.  1.
         13    1    4    4    0    0  0.51841652236E+02 -0.31007147691E+01 -0.97528264498E+01  0.52842113530E+02  0.00000000000E+00 0. -1.
        -13    1    3    3    0    0  0.11685734280E+02 -0.59789499448E+02 -0.15942948743E+03  0.17067249952E+03  0.00000000000E+00 0. -1.
         13    1    3    3    0    0 -0.14034972546E+02  0.31399019389E+02 -0.66798611547E+02  0.75132771661E+02  0.00000000000E+00 0.  1.
          1    1    1    2  501    0 -0.19796717822E+02  0.13370066422E+02  0.64014468830E+02  0.68326575593E+02  0.00000000000E+00 0. -1.
<scales pt_clust_5="13000.00000" pt_clust_6="13000.00000" pt_clust_7="13000.00000" pt_clust_8="13000.00000" pt_clust_9="23.88867"></scales>
<clustering>
<clus scale="   23.889">  1  9  2 -1</clus>
<clus scale="   90.681">  5  6 -1 -1</clus>
<clus scale="   91.813">  7  8 -1 -1</clus>
<clus scale="   94.593">  1  5  2 -1</clus>
<clus scale="   23.889">  1  5  2 -1</clus>
</clustering>
</event>
<event>
 9    1  0.1601012E-005  0.1176528E+03  0.7546771E-02  0.1247207E+00
         -4   -1    0    0    0  501 -0.00000000000E+00  0.00000000000E+00  0.31655312662E+03  0.31655312662E+03  0.00000000000E+00 0.  1.
         21   -1    0    0  501  502  0.00000000000E+00 -0.00000000000E+00 -0.59854486607E+02  0.59854486607E+02  0.00000000000E+00 0.  1.
         23    2    1    2    0    0  0.80581236022E+02  0.12328112194E+02  0.12509338395E+03  0.17473464969E+03  0.90766321645E+02 0.  0.
         23    2    1    2    0    0 -0.66222217940E+02  0.16756502880E+02  0.75218158752E+02  0.13662220660E+03  0.91332871375E+02 0.  0.
        -11    1    4    4    0    0 -0.31354891062E+02  0.32195647431E+02 -0.74768807069E+01  0.45558672633E+02  0.00000000000E+00 0.  1.
         11    1    4    4    0    0 -0.34867326878E+02 -0.15439144551E+02  0.82695039459E+02  0.91063533971E+02  0.00000000000E+00 0. -1.
        -13    1    3    3    0    0  0.95222183671E+02 -0.73276786849E+01  0.11112044804E+03  0.14652205674E+03  0.00000000000E+00 0.  1.
         13    1    3    3    0    0 -0.14640947649E+02  0.19655790878E+02  0.13972935908E+02  0.28212592950E+02  0.00000000000E+00 0. -1.
         -4    1    1    2    0  502 -0.14359018081E+02 -0.29084615073E+02  0.56387097310E+02  0.65050756930E+02  0.00000000000E+00 0.  1.
<scales pt_clust_5="13000.00000" pt_clust_6="13000.00000" pt_clust_7="13000.00000" pt_clust_8="13000.00000" pt_clust_9="32.43605"></scales>
<clustering>
<clus scale="   32.436">  2  9  1 -1</clus>
<clus scale="   90.766">  7  8 -1 -1</clus>
<clus scale="   91.333">  5  6 -1 -1</clus>
<clus scale="  117.214">  1  7  2 -1</clus>
<clus scale="   32.436">  2  5  1 -1</clus>
</clustering>
</event>
<event>
 9    1  0.1601012E-005  0.1782854E+03  0.7546771E-02  0.1195519E+00
         21   -1    0    0  501  502  0.00000000000E+00  0.00000000000E+00  0.10652272521E+04  0.10652272521E+04  0.00000000000E+00 0. -1.
          2   -1    0    0  502    0 -0.00000000000E+00 -0.00000000000E+00 -0.11300372115E+03  0.11300372115E+03  0.00000000000E+00 0. -1.
         23    2    1    2    0    0  0.24843859352E+02 -0.10069932320E+01  0.36476797680E+02  0.10599397479E+03  0.96363554006E+02 0.  0.
         23    2    1    2    0    0  0.61044883584E+02 -0.12375080356E+03  0.26466899542E+02  0.17015052438E+03  0.95968562471E+02 0.  0.
        -13    1    4    4    0    0  0.84411200787E+02 -0.72784675515E+02  0.11061781849E+02  0.11200545891E+03  0.00000000000E+00 0. -1.
         13    1    4    4    0    0 -0.23366317203E+02 -0.50966128047E+02  0.15405117694E+02  0.58145065473E+02  0.00000000000E+00 0.  1.
        -13    1    3    3    0    0  0.10460007580E+02 -0.48460532832E+02  0.13748676323E+02  0.51447653994E+02  0.00000000000E+00 0. -1.
         13    1    3    3    0    0  0.14383851773E+02  0.47453539600E+02  0.22728121357E+02  0.54546320799E+02  0.00000000000E+00 0.  1.
          2    1    1    2  501    0 -0.85888742937E+02  0.12475779679E+03  0.88927983370E+03  0.90208647405E+03  0.00000000000E+00 0. -1.
<scales pt_clust_5="13000.00000" pt_clust_6="13000.00000" pt_clust_7="13000.00000" pt_clust_8="13000.00000" pt_clust_9="150.25217"></scales>
<clustering>
<clus scale="   95.969">  5  6 -1 -1</clus>
<clus scale="   96.364">  7  8 -1 -1</clus>
<clus scale="   99.520">  2  7  1 -1</clus>
<clus scale="  150.252">  1  9  2 -1</clus>
<clus scale="  150.252">  1  5  2 -1</clus>
</clustering>
</event>
<event>
 9    1  0.1601012E-005  0.1306091E+03  0.7546771E-02  0.1228351E+00
         21   -1    0    0  501  502  0.00000000000E+00  0.00000000000E+00  0.37767015235E+03  0.37767015235E+03  0.00000000000E+00 0. -1.
          3   -1    0    0  502    0 -0.00000000000E+00 -0.00000000000E+00 -0.10408205865E+03  0.10408205865E+03  0.00000000000E+00 0. -1.
         23    2    1    2    0    0 -0.77775479575E+00 -0.84191937766E+02  0.14855853861E+02  0.12819593668E+03  0.95522848047E+02 0.  0.
         23    2    1    2    0    0 -0.27119553943E+02  0.93830098574E+02  0.47605564279E+02  0.14037647436E+03  0.88880297019E+02 0.  0.
        -11    1    3    3    0    0  0.24846779133E+02 -0.58621496072E+02 -0.30141959826E+02  0.70444162123E+02  0.00000000000E+00 0. -1.
         11    1    3    3    0    0 -0.25624533928E+02 -0.25570441693E+02  0.44997813686E+02  0.57751774553E+02  0.00000000000E+00 0.  1.
        -11    1    4    4    0    0  0.30299408860E+02  0.48319987570E+02  0.32238682991E+02  0.65514945295E+02  0.00000000000E+00 0.  1.
         11    1    4    4    0    0 -0.57418962804E+02  0.45510111004E+02  0.15366881288E+02  0.74861529062E+02  0.00000000000E+00 0. -1.
          3    1    1    2  501    0  0.27897308739E+02 -0.96381608084E+01  0.21112667556E+03  0.21317979996E+03  0.00000000000E+00 0. -1.
<scales pt_clust_5="13000.00000" pt_clust_6="13000.00000" pt_clust_7="13000.00000" pt_clust_8="13000.00000" pt_clust_9="29.51532"></scales>
<clustering>
<clus scale="   29.515">  1  9  2 -1</clus>
<clus scale="   88.880">  7  8 -1 -1</clus>
<clus scale="   95.523">  5  6 -1 -1</clus>
<clus scale="  125.833">  1  7  2 -1</clus>
<clus scale="   29.515">  1  5  2 -1</clus>
</clustering>
</event>
<event>
 9    1  0.1601012E-005  0.1014520E+03  0.7546771E-02  0.1278439E+00
         21   -1    0    0  501  502  0.00000000000E+00  0.00000000000E+00  0.29236299775E+03  0.29236299775E+03  0.00000000000E+00 0.  1.
         -1   -1    0    0    0  501 -0.00000000000E+00 -0.00000000000E+00 -0.14350494258E+03  0.14350494258E+03  0.00000000000E+00 0.  1.
         23    2    1    2    0    0  0.36481968334E+02 -0.21795988647E+02 -0.91809704846E+02  0.13536293385E+03  0.89933880279E+02 0.  0.
         23    2    1    2    0    0 -0.17973633171E+02  0.43208671061E+02  0.64356985179E+02  0.12193695010E+03  0.92394575134E+02 0.  0.
        -13    1    4    4    0    0 -0.21793776279E+02 -0.26040689442E+02  0.25253740302E+02  0.42318289076E+02  0.00000000000E+00 0.  1.
         13    1    4    4    0    0  0.38201431080E+01  0.69249360503E+02  0.39103244877E+02  0.79618661024E+02  0.00000000000E+00 0. -1.
        -13    1    3    3    0    0 -0.25287986743E+02  0.12204814028E+02 -0.18369753637E+02  0.33554248727E+02  0.00000000000E+00 0.  1.
         13    1    3    3    0    0  0.61769955077E+02 -0.34000802675E+02 -0.73439951210E+02  0.10180868512E+03  0.00000000000E+00 0. -1.
         -1    1    1    2    0  502 -0.18508335163E+02 -0.21412682414E+02  0.17631077483E+03  0.17856805638E+03  0.00000000000E+00 0.  1.
<scales pt_clust_5="13000.00000" pt_clust_6="13000.00000" pt_clust_7="13000.00000" pt_clust_8="13000.00000" pt_clust_9="28.30303"></scales>
<clustering>
<clus scale="   28.303">  1  9  2 -1</clus>
<clus scale="   89.934">  7  8 -1 -1</clus>
<clus scale="   92.395">  5  6 -1 -1</clus>
<clus scale="   99.216">  2  7  1 -1</clus>
<clus scale="   28.303">  1  5  2 -1</clus>
</clustering>
</event>
<event>
 9    1  0.1601012E-005  0.1051166E+03  0.7546771E-02  0.1270355E+00
         21   -1    0    0  501  502  0.00000000000E+00  0.00000000000E+00  0.30797802670E+03  0.30797802670E+03  0.00000000000E+00 0.  1.
          1   -1    0    0  502    0 -0.00000000000E+00 -0.00000000000E+00 -0.24329886200E+03  0.24329886200E+03  0.00000000000E+00 0. -1.
         23    2    1    2    0    0 -0.43189778007E+02  0.37646730243E+02 -0.10571304541E+03  0.15121415511E+03  0.91694271981E+02 0.  0.
         23    2    1    2    0    0  0.11117038261E+02 -0.44749978237E+02 -0.90231498579E+02  0.13737692450E+03  0.92760697270E+02 0.  0.
        -11    1    4    4    0    0  0.45692215919E+02 -0.48611740383E+02 -0.45698721212E+02  0.80865647955E+02  0.00000000000E+00 0.  1.
         11    1    4    4    0    0 -0.34575177659E+02  0.38617621461E+01 -0.44532777367E+02  0.56511276547E+02  0.00000000000E+00 0. -1.
        -13    1    3    3    0    0 -0.37306103822E+02  0.67583402750E+02 -0.69609200781E+02  0.10394567111E+03  0.00000000000E+00 0. -1.
         13    1    3    3    0    0 -0.58836741844E+01 -0.29936672506E+02 -0.36103844629E+02  0.47268484000E+02  0.00000000000E+00 0.  1.
          1    1    1    2  501    0  0.32072739746E+02  0.71032479937E+01  0.26062370868E+03  0.26268580909E+03  0.00000000000E+00 0. -1.
<scales pt_clust_5="13000.00000" pt_clust_6="13000.00000" pt_clust_7="13000.00000" pt_clust_8="13000.00000" pt_clust_9="32.84991"></scales>
<clustering>
<clus scale="   32.850">  1  9  2 -1</clus>
<clus scale="   91.694">  7  8 -1 -1</clus>
<clus scale="   92.761">  5  6 -1 -1</clus>
<clus scale="  104.177">  2  7  1 -1</clus>
<clus scale="   32.850">  1  5  2 -1</clus>
</clustering>
</event>
<event>
 9    1  0.1601012E-005  0.1094400E+03  0.7546771E-02  0.1261845E+00
         21   -1    0    0  501  502  0.00000000000E+00  0.00000000000E+00  0.60787282656E+03  0.60787282656E+03  0.00000000000E+00 0. -1.
          1   -1    0    0  502    0 -0.00000000000E+00 -0.00000000000E+00 -0.54394922823E+02  0.54394922823E+02  0.00000000000E+00 0. -1.
         23    2    1    2    0    0  0.45487013344E+02  0.16170629396E+02  0.78450520687E+02  0.12827078972E+03  0.89265635383E+02 0.  0.
         23    2    1    2    0    0 -0.53717217051E+02 -0.70880621738E+02  0.11879294459E+03  0.17349190469E+03  0.89878113936E+02 0.  0.
        -11    1    3    3    0    0  0.60330147453E+02  0.35846089303E+02  0.35244071641E+02  0.78529060837E+02  0.00000000000E+00 0.  1.
         11    1    3    3    0    0 -0.14843134109E+02 -0.19675459908E+02  0.43206449045E+02  0.49741728879E+02  0.00000000000E+00 0. -1.
        -13    1    4    4    0    0 -0.43339940017E+02 -0.45043066458E+01  0.90793853102E+02  0.10070830621E+03  0.00000000000E+00 0.  1.
         13    1    4    4    0    0 -0.10377277034E+02 -0.66376315092E+02  0.27999091486E+02  0.72783598481E+02  0.00000000000E+00 0. -1.
          1    1    1    2  501    0  0.82302037070E+01  0.54709992342E+02  0.35623443847E+03  0.36050505498E+03  0.00000000000E+00 0. -1.
<scales pt_clust_5="13000.00000" pt_clust_6="13000.00000" pt_clust_7="13000.00000" pt_clust_8="13000.00000" pt_clust_9="55.32558"></scales>
<clustering>
<clus scale="   55.326">  1  9  2 -1</clus>
<clus scale="   89.266">  5  6 -1 -1</clus>
<clus scale="   89.878">  7  8 -1 -1</clus>
<clus scale="  108.938">  2  5  1 -1</clus>
<clus scale="   55.326">  1  5  2 -1</clus>
</clustering>
</event>
<event>
 9    1  0.1601012E-005  0.1006975E+03  0.7546771E-02  0.1280485E+00
         21   -1    0    0  501  502  0.00000000000E+00  0.00000000000E+00  0.33087469860E+03  0.33087469860E+03  0.00000000000E+00 0. -1.
         -1   -1    0    0    0  501 -0.00000000000E+00 -0.00000000000E+00 -0.41934197053E+02  0.41934197053E+02  0.00000000000E+00 0.  1.
         23    2    1    2    0    0  0.11290245198E+02  0.27490874821E+02  0.10419004928E+03  0.14361192915E+03  0.94263471139E+02 0.  0.
         23    2    1    2    0    0 -0.39458937332E+02 -0.22742992241E+02  0.11330457415E+03  0.15225197898E+03  0.90931222067E+02 0.  0.
        -11    1    4    4    0    0  0.26104185109E+02 -0.24680095186E+02  0.44527652078E+02  0.57212300935E+02  0.00000000000E+00 0.  1.
         11    1    4    4    0    0 -0.65563122442E+02  0.19371029455E+01  0.68776922075E+02  0.95039678041E+02  0.00000000000E+00 0. -1.
        -13    1    3    3    0    0  0.45258302118E+02  0.40885419957E+02  0.76207802701E+02  0.97609224299E+02  0.00000000000E+00 0.  1.
         13    1    3    3    0    0 -0.33968056920E+02 -0.13394545136E+02  0.27982246580E+02  0.46002704856E+02  0.00000000000E+00 0. -1.
         -1    1    1    2    0  502  0.28168692134E+02 -0.47478825805E+01  0.71445878109E+02  0.76944987519E+02  0.00000000000E+00 0.  1.
<scales pt_clust_5="13000.00000" pt_clust_6="13000.00000" pt_clust_7="13000.00000" pt_clust_8="13000.00000" pt_clust_9="28.56602"></scales>
<clustering>
<clus scale="   28.566">  1  9  2 -1</clus>
<clus scale="   90.931">  5  6 -1 -1</clus>
<clus scale="   94.263">  7  8 -1 -1</clus>
<clus scale="   97.585">  1  5  2 -1</clus>
<clus scale="   28.566">  1  5  2 -1</clus>
</clustering>
</event>
<event>
 9    1  0.1601012E-005  0.1180392E+03  0.7546771E-02  0.1246521E+00
         21   -1    0    0  501  502  0.00000000000E+00  0.00000000000E+00  0.59253460823E+03  0.59253460823E+03  0.00000000000E+00 0. -1.
          1   -1    0    0  502    0 -0.00000000000E+00 -0.00000000000E+00 -0.78188369249E+02  0.78188369249E+02  0.00000000000E+00 0. -1.
         23    2    1    2    0    0  0.71329976688E+02 -0.30733567758E+01  0.42110987212E+01  0.11661875149E+03  0.92112913056E+02 0.  0.
         23    2    1    2    0    0 -0.72500447496E+02  0.69511788434E+02  0.24232058300E+03  0.27816932010E+03  0.92578086407E+02 0.  0.
        -11    1    4    4    0    0 -0.12544939540E+02  0.67672141743E+02  0.17475244366E+03  0.18781722722E+03  0.00000000000E+00 0. -1.
         11    1    4    4    0    0 -0.59955507956E+02  0.18396466918E+01  0.67568139339E+02  0.90352092881E+02  0.00000000000E+00 0.  1.
        -13    1    3    3    0    0  0.93049799702E+02  0.35816646253E+01  0.84820993428E+01  0.93504222126E+02  0.00000000000E+00 0. -1.
         13    1    3    3    0    0 -0.21719823014E+02 -0.66550214012E+01 -0.42710006216E+01  0.23114529369E+02  0.00000000000E+00 0.  1.
          1    1    1    2  501    0  0.11704708088E+01 -0.66438431659E+02  0.26781455726E+03  0.27593490589E+03  0.00000000000E+00 0. -1.
<scales pt_clust_5="13000.00000" pt_clust_6="13000.00000" pt_clust_7="13000.00000" pt_clust_8="13000.00000" pt_clust_9="66.44874"></scales>
<clustering>
<clus scale="   66.449">  1  9  2 -1</clus>
<clus scale="   92.113">  7  8 -1 -1</clus>
<clus scale="   92.578">  5  6 -1 -1</clus>
<clus scale="  117.675">  2  7  1 -1</clus>
<clus scale="   66.449">  1  5  2 -1</clus>
</clustering>
</event>
<event>
 9    1  0.1601012E-005  0.1364348E+03  0.7546771E-02  0.1218792E+00
         21   -1    0    0  501  502  0.00000000000E+00  0.00000000000E+00  0.78097028198E+02  0.78097028198E+02  0.00000000000E+00 0.  1.
          2   -1    0    0  502    0 -0.00000000000E+00 -0.00000000000E+00 -0.34138095356E+03  0.34138095356E+03  0.00000000000E+00 0. -1.
         23    2    1    2    0    0 -0.41186040400E+02  0.69630252817E+02 -0.12111298284E+03  0.17222706123E+03  0.91919225282E+02 0.  0.
         23    2    1    2    0    0  0.63464905825E+02 -0.10608752629E+03 -0.13036252951E+03  0.20292351082E+03  0.94346195663E+02 0.  0.
        -11    1    4    4    0    0  0.21043927563E+02 -0.74235221089E+02 -0.18840085919E+02  0.79427097233E+02  0.00000000000E+00 0.  1.
         11    1    4    4    0    0  0.42420978262E+02 -0.31852305202E+02 -0.11152244359E+03  0.12349641359E+03  0.00000000000E+00 0. -1.
        -13    1    3    3    0    0  0.21801341516E+02  0.86057017586E+01 -0.94210181973E+00  0.23457283528E+02  0.00000000000E+00 0.  1.
         13    1    3    3    0    0 -0.62987381916E+02  0.61024551059E+02 -0.12017088102E+03  0.14876977771E+03  0.00000000000E+00 0. -1.
          2    1    1    2  501    0 -0.22278865425E+02  0.36457273473E+02 -0.11808413008E+02  0.44327409709E+02  0.00000000000E+00 0. -1.
<scales pt_clust_5="13000.00000" pt_clust_6="13000.00000" pt_clust_7="13000.00000" pt_clust_8="13000.00000" pt_clust_9="42.72564"></scales>
<clustering>
<clus scale="   42.726">  1  9  2 -1</clus>
<clus scale="   91.919">  7  8 -1 -1</clus>
<clus scale="   94.346">  5  6 -1 -1</clus>
<clus scale="  134.768">  2  7  1 -1</clus>
<clus scale="   42.726">  1  5  2 -1</clus>
</clustering>
</event>
<event>
 9    1  0.1601012E-005  0.1098860E+03  0.7546771E-02  0.1260982E+00
         21   -1    0    0  501  502  0.00000000000E+00  0.00000000000E+00  0.32551208466E+02  0.32551208466E+02  0.00000000000E+00 0.  1.
          1   -1    0    0  502    0 -0.00000000000E+00 -0.00000000000E+00 -0.70214233961E+03  0.70214233961E+03  0.00000000000E+00 0. -1.
         23    2    1    2    0    0  0.41772374390E+02 -0.39908857376E+02 -0.27146972337E+03  0.29301076060E+03  0.93924687702E+02 0.  0.
         23    2    1    2    0    0  0.20292097345E+00  0.69096202684E+02 -0.15769146127E+03  0.19587720226E+03  0.93418172788E+02 0.  0.
        -11    1    3    3    0    0  0.64861055016E+02 -0.52930151045E+02 -0.20972820632E+03  0.22581956929E+03  0.00000000000E+00 0.  1.
         11    1    3    3    0    0 -0.23088680626E+02  0.13021293669E+02 -0.61741517048E+02  0.67191191307E+02  0.00000000000E+00 0. -1.
        -11    1    4    4    0    0  0.27846685400E+02  0.43574952516E+02 -0.24033249815E+02  0.57024656695E+02  0.00000000000E+00 0.  1.
         11    1    4    4    0    0 -0.27643764426E+02  0.25521250169E+02 -0.13365821145E+03  0.13885254557E+03  0.00000000000E+00 0. -1.
          1    1    1    2  501    0 -0.41975295364E+02 -0.29187345308E+02 -0.24042994651E+03  0.24580558522E+03  0.00000000000E+00 0. -1.
<scales pt_clust_5="13000.00000" pt_clust_6="13000.00000" pt_clust_7="13000.00000" pt_clust_8="13000.00000" pt_clust_9="51.12562"></scales>
<clustering>
<clus scale="   51.126">  1  9  2 -1</clus>
<clus scale="   93.418">  7  8 -1 -1</clus>
<clus scale="   93.925">  5  6 -1 -1</clus>
<clus scale="  109.453">  1  7  2 -1</clus>
<clus scale="   51.126">  1  5  2 -1</clus>
</clustering>
</event>
<event>
 9    1  0.1601012E-005  0.1351267E+03  0.7546771E-02  0.1220258E+00
         21   -1    0    0  501  502  0.00000000000E+00  0.00000000000E+00  0.12050226462E+04  0.12050226462E+04  0.00000000000E+00 0. -1.
          3   -1    0    0  502    0 -0.00000000000E+00 -0.00000000000E+00 -0.48180974403E+02  0.48180974403E+02  0.00000000000E+00 0. -1.
         23    2    1    2    0    0 -0.30987233331E+02  0.77390776273E+02  0.11838811871E+03  0.17104757410E+03  0.91060337533E+02 0.  0.
         23    2    1    2    0    0  0.98123175604E+02 -0.15235492113E+03  0.72521762964E+03  0.75315209288E+03  0.91963498698E+02 0.  0.
        -11    1    3    3    0    0 -0.27028356054E+02  0.18276008992E+02  0.10547948746E+03  0.11041044701E+03  0.00000000000E+00 0.  1.
         11    1    3    3    0    0 -0.39588772773E+01  0.59114767281E+02  0.12908631250E+02  0.60637127082E+02  0.00000000000E+00 0. -1.
        -13    1    4    4    0    0  0.10270284186E+03 -0.82602377129E+02  0.42850062419E+03  0.44831218070E+03  0.00000000000E+00 0. -1.
         13    1    4    4    0    0 -0.45796662521E+01 -0.69752544005E+02  0.29671700544E+03  0.30483991218E+03  0.00000000000E+00 0.  1.
          3    1    1    2  501    0 -0.67135942273E+02  0.74964144861E+02  0.31323592349E+03  0.32900395366E+03  0.00000000000E+00 0. -1.
<scales pt_clust_5="13000.00000" pt_clust_6="13000.00000" pt_clust_7="13000.00000" pt_clust_8="13000.00000" pt_clust_9="100.63229"></scales>
<clustering>
<clus scale="   91.060">  5  6 -1 -1</clus>
<clus scale="   91.963">  7  8 -1 -1</clus>
<clus scale="  100.632">  1  9  2 -1</clus>
<clus scale="  134.514">  2  5  1 -1</clus>
<clus scale="  100.632">  1  5  2 -1</clus>
</clustering>
</event>
<event>
 9    1  0.1601012E-005  0.1480281E+03  0.7546771E-02  0.1220537E+00
         -1   -1    0    0    0  501 -0.00000000000E+00  0.00000000000E+00  0.21777915039E+03  0.21777915039E+03  0.00000000000E+00 0.  1.
         21   -1    0    0  501  502  0.00000000000E+00 -0.00000000000E+00 -0.24687180417E+03  0.24687180417E+03  0.00000000000E+00 0.  1.
         23    2    1    2    0    0  0.25598840454E+02 -0.32293791425E+02  0.50922279354E+02  0.11375581798E+03  0.93000634363E+02 0.  0.
         23    2    1    2    0    0 -0.66336125046E+02  0.13445606148E+03  0.47776057095E+02  0.18229148014E+03  0.92025638517E+02 0.  0.
        -13    1    4    4    0    0 -0.62245508510E+02  0.67885603218E+02  0.65812140017E+02  0.11319980666E+03  0.00000000000E+00 0.  1.
         13    1    4    4    0    0 -0.40906165366E+01  0.66570458267E+02 -0.18036082922E+02  0.69091673483E+02  0.00000000000E+00 0. -1.
        -13    1    3    3    0    0  0.40479432214E+02 -0.46039708414E+02  0.64797459624E+02  0.89201737410E+02  0.00000000000E+00 0.  1.
         13    1    3    3    0    0 -0.14880591760E+02  0.13745916989E+02 -0.13875180270E+02  0.24554080568E+02  0.00000000000E+00 0. -1.
         -1    1    1    2    0  502  0.40737284592E+02 -0.10216227006E+03 -0.12779099023E+03  0.16860365643E+03  0.00000000000E+00 0.  1.
<scales pt_clust_5="13000.00000" pt_clust_6="13000.00000" pt_clust_7="13000.00000" pt_clust_8="13000.00000" pt_clust_9="115.94657"></scales>
<clustering>
<clus scale="   92.026">  5  6 -1 -1</clus>
<clus scale="   93.001">  7  8 -1 -1</clus>
<clus scale="  101.722">  1  7  2 -1</clus>
<clus scale="  115.947">  2  9  1 -1</clus>
<clus scale="  115.947">  2  5  1 -1</clus>
</clustering>
</event>
<event>
 9    1  0.1601012E-005  0.1308757E+03  0.7546771E-02  0.1226364E+00
          2   -1    0    0  502    0 -0.00000000000E+00  0.00000000000E+00  0.44252405183E+03  0.44252405183E+03  0.00000000000E+00 0. -1.
         21   -1    0    0  501  502  0.00000000000E+00 -0.00000000000E+00 -0.11658842044E+03  0.11658842044E+03  0.00000000000E+00 0.  1.
         23    2    1    2    0    0  0.13200733057E+03  0.60385674450E+01  0.28894528716E+03  0.32955113116E+03  0.87476679472E+02 0.  0.
         23    2    1    2    0    0 -0.55455220743E+02 -0.14231085559E+02  0.88895626907E+02  0.13670930159E+03  0.86655613517E+02 0.  0.
        -11    1    4    4    0    0  0.69204405240E+01  0.24682401186E+02  0.68294865682E+01  0.26528386912E+02  0.00000000000E+00 0.  1.
         11    1    4    4    0    0 -0.62375661267E+02 -0.38913486745E+02  0.82066140339E+02  0.11018091468E+03  0.00000000000E+00 0. -1.
        -13    1    3    3    0    0  0.10794853303E+03 -0.31726493429E+02  0.22393809291E+03  0.25061469554E+03  0.00000000000E+00 0.  1.
         13    1    3    3    0    0  0.24058797546E+02  0.37765060874E+02  0.65007194258E+02  0.78936435614E+02  0.00000000000E+00 0. -1.
          2    1    1    2  501    0 -0.76552109829E+02  0.81925181144E+01 -0.51905282687E+02  0.92852039521E+02  0.00000000000E+00 0. -1.
<scales pt_clust_5="13000.00000" pt_clust_6="13000.00000" pt_clust_7="13000.00000" pt_clust_8="13000.00000" pt_clust_9="76.98924"></scales>
<clustering>
<clus scale="   76.989">  2  9  1 -1</clus>
<clus scale="   86.656">  5  6 -1 -1</clus>
<clus scale="   87.477">  7  8 -1 -1</clus>
<clus scale="  130.328">  2  5  1 -1</clus>
<clus scale="   76.989">  2  5  1 -1</clus>
</clustering>
</event>
<event>
 9    1  0.1601012E-005  0.1348508E+03  0.7546771E-02  0.1221050E+00
         21   -1    0    0  501  502  0.00000000000E+00  0.00000000000E+00  0.97284408678E+03  0.97284408678E+03  0.00000000000E+00 0.  1.
          3   -1    0    0  502    0 -0.00000000000E+00 -0.00000000000E+00 -0.24152744020E+02  0.24152744020E+02  0.00000000000E+00 0. -1.
         23    2    1    2    0    0 -0.77537279368E+02  0.37220865358E+02  0.33017952226E+03  0.35349639288E+03  0.92432463696E+02 0.  0.
         23    2    1    2    0    0  0.10407759883E+03 -0.51730155122E+02  0.49536090128E+03  0.51668933056E+03  0.89873724023E+02 0.  0.
        -11    1    3    3    0    0 -0.26656271307E+02  0.17231548108E+01  0.11927841756E+02  0.29254050513E+02  0.00000000000E+00 0. -1.
         11    1    3    3    0    0 -0.50881008062E+02  0.35497710547E+02  0.31825168051E+03  0.32424234236E+03  0.00000000000E+00 0.  1.
        -11    1    4    4    0    0 -0.79368948232E+01 -0.25830544785E+02  0.15753700879E+03  0.15983779429E+03  0.00000000000E+00 0. -1.
         11    1    4    4    0    0  0.11201449366E+03 -0.25899610337E+02  0.33782389249E+03  0.35685153627E+03  0.00000000000E+00 0.  1.
          3    1    1    2  501    0 -0.26540319466E+02  0.14509289764E+02  0.12315091921E+03  0.12681110736E+03  0.00000000000E+00 0. -1.
<scales pt_clust_5="13000.00000" pt_clust_6="13000.00000" pt_clust_7="13000.00000" pt_clust_8="13000.00000" pt_clust_9="30.24745"></scales>
<clustering>
<clus scale="   30.247">  1  9  2 -1</clus>
<clus scale="   89.874">  7  8 -1 -1</clus>
<clus scale="   92.432">  5  6 -1 -1</clus>
<clus scale="  133.110">  1  7  2 -1</clus>
<clus scale="   30.247">  1  5  2 -1</clus>
</clustering>
</event>
<event>
 9    1  0.1601012E-005  0.9967777E+02  0.7546771E-02  0.1282533E+00
          2   -1    0    0  502    0 -0.00000000000E+00  0.00000000000E+00  0.39949309868E+03  0.39949309868E+03  0.00000000000E+00 0. -1.
         21   -1    0    0  501  502  0.00000000000E+00 -0.00000000000E+00 -0.55762081764E+02  0.55762081764E+02  0.00000000000E+00 0.  1.
         23    2    1    2    0    0  0.25858298424E+02 -0.17009157831E+02  0.19213599529E+03  0.21305035350E+03  0.86696305527E+02 0.  0.
         23    2    1    2    0    0 -0.55947475374E+02  0.25354175604E+02  0.17294640405E+03  0.20437786008E+03  0.89927174947E+02 0.  0.
        -13    1    4    4    0    0  0.20334732048E+02  0.60143350939E+01  0.79148206513E+02  0.81939686040E+02  0.00000000000E+00 0. -1.
         13    1    4    4    0    0 -0.76282207422E+02  0.19339840510E+02  0.93798197541E+02  0.12243817404E+03  0.00000000000E+00 0.  1.
        -13    1    3    3    0    0  0.58198707409E+01 -0.36663082790E+02  0.17760667717E+03  0.18144471420E+03  0.00000000000E+00 0. -1.
         13    1    3    3    0    0  0.20038427684E+02  0.19653924959E+02  0.14529318114E+02  0.31605639294E+02  0.00000000000E+00 0.  1.
          2    1    1    2  501    0  0.30089176950E+02 -0.83450177731E+01 -0.21351382425E+02  0.37826966870E+02  0.00000000000E+00 0. -1.
<scales pt_clust_5="13000.00000" pt_clust_6="13000.00000" pt_clust_7="13000.00000" pt_clust_8="13000.00000" pt_clust_9="31.22496"></scales>
<clustering>
<clus scale="   31.225">  2  9  1 -1</clus>
<clus scale="   86.696">  7  8 -1 -1</clus>
<clus scale="   89.927">  5  6 -1 -1</clus>
<clus scale="   96.773">  1  7  2 -1</clus>
<clus scale="   31.225">  2  5  1 -1</clus>
</clustering>
</event>
<event>
 9    1  0.1601012E-005  0.1067699E+03  0.7546771E-02  0.1268296E+00
         -1   -1    0    0    0  501 -0.00000000000E+00  0.00000000000E+00  0.32855390483E+03  0.32855390483E+03  0.00000000000E+00 0.  1.
         21   -1    0    0  501  502  0.00000000000E+00 -0.00000000000E+00 -0.48307238727E+02  0.48307238727E+02  0.00000000000E+00 0. -1.
         23    2    1    2    0    0  0.21358642716E+02  0.43244771290E+02  0.16307242599E+03  0.19478470536E+03  0.94985069672E+02 0.  0.
         23    2    1    2    0    0  0.87489970531E+01 -0.55026047328E+02  0.86680949197E+02  0.13763423722E+03  0.91242454298E+02 0.  0.
        -11    1    3    3    0    0  0.43814611961E+02 -0.13083318203E+02  0.75481714217E+02  0.88251813678E+02  0.00000000000E+00 0. -1.
         11    1    3    3    0    0 -0.22455969245E+02  0.56328089493E+02  0.87590711771E+02  0.10653289168E+03  0.00000000000E+00 0.  1.
        -13    1    4    4    0    0 -0.11404635515E+02  0.19293642993E+02  0.99906431704E+00  0.22434538121E+02  0.00000000000E+00 0.  1.
         13    1    4    4    0    0  0.20153632568E+02 -0.74319690321E+02  0.85681884880E+02  0.11519969910E+03  0.00000000000E+00 0. -1.
         -1    1    1    2    0  502 -0.30107639769E+02  0.11781276037E+02  0.30493290921E+02  0.44442200989E+02  0.00000000000E+00 0.  1.
<scales pt_clust_5="13000.00000" pt_clust_6="13000.00000" pt_clust_7="13000.00000" pt_clust_8="13000.00000" pt_clust_9="32.33061"></scales>
<clustering>
<clus scale="   32.331">  2  9  1 -1</clus>
<clus scale="   91.242">  7  8 -1 -1</clus>
<clus scale="   94.985">  5  6 -1 -1</clus>
<clus scale="  103.454">  2  7  1 -1</clus>
<clus scale="   32.331">  2  5  1 -1</clus>
</clustering>
</event>
<event>
 9    1  0.1601012E-005  0.1043455E+03  0.7546771E-02  0.1272996E+00
          2   -1    0    0  502    0 -0.00000000000E+00  0.00000000000E+00  0.48633630725E+03  0.48633630725E+03  0.00000000000E+00 0. -1.
         21   -1    0    0  501  502  0.00000000000E+00 -0.00000000000E+00 -0.55673371810E+02  0.55673371810E+02  0.00000000000E+00 0. -1.
         23    2    1    2    0    0  0.43103535392E+02 -0.68926779660E+01  0.35863821781E+03  0.37200075853E+03  0.88644059563E+02 0.  0.
         23    2    1    2    0    0 -0.74187161196E+02  0.11752685604E+02  0.71048101121E+02  0.13853249686E+03  0.92203901809E+02 0.  0.
        -11    1    4    4    0    0 -0.48424757372E+02  0.17042625798E+02 -0.10888702206E+02  0.52478300814E+02  0.00000000000E+00 0. -1.
         11    1    4    4    0    0 -0.25762403824E+02 -0.52899401941E+01  0.81936803327E+02  0.86054196048E+02  0.00000000000E+00 0.  1.
        -13    1    3    3    0    0  0.11464848639E+02 -0.46563216513E+02  0.16537926148E+03  0.17219139355E+03  0.00000000000E+00 0.  1.
         13    1    3    3    0    0  0.31638686754E+02  0.39670538547E+02  0.19325895633E+03  0.19980936497E+03  0.00000000000E+00 0. -1.
          2    1    1    2  501    0  0.31083625804E+02 -0.48600076380E+01  0.97661650758E+00  0.31476423672E+02  0.00000000000E+00 0. -1.
<scales pt_clust_5="13000.00000" pt_clust_6="13000.00000" pt_clust_7="13000.00000" pt_clust_8="13000.00000" pt_clust_9="31.46127"></scales>
<clustering>
<clus scale="   31.461">  2  9  1 -1</clus>
<clus scale="   88.644">  7  8 -1 -1</clus>
<clus scale="   92.204">  5  6 -1 -1</clus>
<clus scale="  101.214">  1  7  2 -1</clus>
<clus scale="   31.461">  2  5  1 -1</clus>
</clustering>
</event>
<event>
 9    1  0.1601012E-005  0.9274913E+02  0.7546771E-02  0.1296685E+00
          1   -1    0    0  502    0 -0.00000000000E+00  0.00000000000E+00  0.34759457732E+03  0.34759457732E+03  0.00000000000E+00 0. -1.
         21   -1    0    0  501  502  0.00000000000E+00 -0.00000000000E+00 -0.39855810897E+02  0.39855810897E+02  0.00000000000E+00 0.  1.
         23    2    1    2    0    0  0.15633530133E+00 -0.40266743149E+01  0.15518598372E+03  0.18055918427E+03  0.92210037061E+02 0.  0.
         23    2    1    2    0    0 -0.17928221887E+02  0.16079624650E+02  0.60532613506E+02  0.11239874338E+03  0.91593147924E+02 0.  0.
        -13    1    4    4    0    0  0.28849718955E+02 -0.14134591567E+02  0.28986731523E+01  0.32256708893E+02  0.00000000000E+00 0. -1.
         13    1    4    4    0    0 -0.46777940842E+02  0.30214216217E+02  0.57633940353E+02  0.80142034487E+02  0.00000000000E+00 0.  1.
        -13    1    3    3    0    0 -0.42628548730E+02 -0.10632689423E+02  0.48590102030E+02  0.65507597014E+02  0.00000000000E+00 0.  1.
         13    1    3    3    0    0  0.42784884032E+02  0.66060151080E+01  0.10659588169E+03  0.11505158726E+03  0.00000000000E+00 0. -1.
          1    1    1    2  501    0  0.17771886585E+02 -0.12052950335E+02  0.92020169192E+02  0.94492460560E+02  0.00000000000E+00 0. -1.
<scales pt_clust_5="13000.00000" pt_clust_6="13000.00000" pt_clust_7="13000.00000" pt_clust_8="13000.00000" pt_clust_9="21.47357"></scales>
<clustering>
<clus scale="   21.474">  2  9  1 -1</clus>
<clus scale="   91.593">  5  6 -1 -1</clus>
<clus scale="   92.136">  2  5  1 -1</clus>
<clus scale="   92.210">  7  8 -1 -1</clus>
<clus scale="   21.474">  2  5  1 -1</clus>
</clustering>
</event>
<event>
 9    1  0.1601012E-005  0.9877620E+02  0.7546771E-02  0.1283068E+00
          1   -1    0    0  502    0 -0.00000000000E+00  0.00000000000E+00  0.13294783569E+03  0.13294783569E+03  0.00000000000E+00 0. -1.
         21   -1    0    0  501  502  0.00000000000E+00 -0.00000000000E+00 -0.14695340153E+03  0.14695340153E+03  0.00000000000E+00 0.  1.
         23    2    1    2    0    0  0.29402998451E+02 -0.21829067054E+02  0.52746727819E+02  0.11002351063E+03  0.89341541903E+02 0.  0.
         23    2    1    2    0    0 -0.31013723449E+02  0.58507709835E+02 -0.72798769933E+02  0.13266916377E+03  0.88974394962E+02 0.  0.
        -11    1    3    3    0    0  0.80171449183E+01  0.33843401544E+02  0.30854677487E+02  0.46493672296E+02  0.00000000000E+00 0.  1.
         11    1    3    3    0    0  0.21385853533E+02 -0.55672468598E+02  0.21892050331E+02  0.63529838335E+02  0.00000000000E+00 0. -1.
        -13    1    4    4    0    0 -0.31033476275E+02 -0.15120485632E+02 -0.37652907044E+02  0.51082748011E+02  0.00000000000E+00 0. -1.
         13    1    4    4    0    0  0.19752826348E-01  0.73628195467E+02 -0.35145862888E+02  0.81586415757E+02  0.00000000000E+00 0.  1.
          1    1    1    2  501    0  0.16107249976E+01 -0.36678642781E+02  0.60464762731E+01  0.37208562813E+02  0.00000000000E+00 0. -1.
<scales pt_clust_5="13000.00000" pt_clust_6="13000.00000" pt_clust_7="13000.00000" pt_clust_8="13000.00000" pt_clust_9="36.71401"></scales>
<clustering>
<clus scale="   36.714">  2  9  1 -1</clus>
<clus scale="   88.974">  7  8 -1 -1</clus>
<clus scale="   89.342">  5  6 -1 -1</clus>
<clus scale="   98.444">  2  7  1 -1</clus>
<clus scale="   36.714">  2  5  1 -1</clus>
</clustering>
</event>
<event>
 9    1  0.1601012E-005  0.1175188E+03  0.7546771E-02  0.1248684E+00
         21   -1    0    0  501  502  0.00000000000E+00  0.00000000000E+00  0.63762668792E+02  0.63762668792E+02  0.00000000000E+00 0. -1.
         -2   -1    0    0    0  501 -0.00000000000E+00 -0.00000000000E+00 -0.32605833726E+03  0.32605833726E+03  0.00000000000E+00 0.  1.
         23    2    1    2    0    0 -0.11377934299E+02 -0.75603543514E+02 -0.21712381432E+03  0.24742517777E+03  0.90725490722E+02 0.  0.
         23    2    1    2    0    0  0.10762334230E+02  0.51530126821E+02 -0.46981250389E+02  0.11824666123E+03  0.94888635759E+02 0.  0.
        -11    1    4    4    0    0 -0.26042442990E+02  0.60526933420E+02 -0.12603046900E+02  0.67086178139E+02  0.00000000000E+00 0.  1.
         11    1    4    4    0    0  0.36804777220E+02 -0.89968065993E+01 -0.34378203489E+02  0.51160483093E+02  0.00000000000E+00 0. -1.
        -13    1    3    3    0    0  0.17970658102E+02  0.13842962617E+02 -0.26943311003E+02  0.35220933753E+02  0.00000000000E+00 0.  1.
         13    1    3    3    0    0 -0.29348592401E+02 -0.89446506131E+02 -0.19018050332E+03  0.21220424401E+03  0.00000000000E+00 0. -1.
         -2    1    1    2    0  502  0.61560006855E+00  0.24073416694E+02  0.18093962380E+01  0.24149167056E+02  0.00000000000E+00 0.  1.
<scales pt_clust_5="13000.00000" pt_clust_6="13000.00000" pt_clust_7="13000.00000" pt_clust_8="13000.00000" pt_clust_9="24.08129"></scales>
<clustering>
<clus scale="   24.081">  1  9  2 -1</clus>
<clus scale="   90.725">  7  8 -1 -1</clus>
<clus scale="   94.889">  5  6 -1 -1</clus>
<clus scale="  114.184">  2  7  1 -1</clus>
<clus scale="   24.081">  1  5  2 -1</clus>
</clustering>
</event>
<event>
 9    1  0.1601012E-005  0.1178247E+03  0.7546771E-02  0.1247074E+00
         21   -1    0    0  501  502  0.00000000000E+00  0.00000000000E+00  0.10656358642E+03  0.10656358642E+03  0.00000000000E+00 0.  1.
          1   -1    0    0  502    0 -0.00000000000E+00 -0.00000000000E+00 -0.28042629487E+03  0.28042629487E+03  0.00000000000E+00 0. -1.
         23    2    1    2    0    0  0.69295257360E+02 -0.18515176424E+02 -0.20662645960E+03  0.23754126139E+03  0.92664516415E+02 0.  0.
         23    2    1    2    0    0 -0.73571302031E+02 -0.65075400479E+01  0.19754530599E+02  0.12092388122E+03  0.93687026910E+02 0.  0.
        -11    1    4    4    0    0 -0.52080099644E+02 -0.19731898500E+02 -0.31363512802E+02  0.63916778178E+02  0.00000000000E+00 0. -1.
         11    1    4    4    0    0 -0.21491202387E+02  0.13224358452E+02  0.51118043402E+02  0.57007103046E+02  0.00000000000E+00 0.  1.
        -11    1    3    3    0    0  0.78256856578E+01 -0.32809706482E+02 -0.17167414331E+02  0.37847566768E+02  0.00000000000E+00 0.  1.
         11    1    3    3    0    0  0.61469571702E+02  0.14294530058E+02 -0.18945904527E+03  0.19969369462E+03  0.00000000000E+00 0. -1.
          1    1    1    2  501    0  0.42760446709E+01  0.25022716472E+02  0.13009220556E+02  0.28524738686E+02  0.00000000000E+00 0. -1.
<scales pt_clust_5="13000.00000" pt_clust_6="13000.00000" pt_clust_7="13000.00000" pt_clust_8="13000.00000" pt_clust_9="25.38545"></scales>
<clustering>
<clus scale="   25.385">  1  9  2 -1</clus>
<clus scale="   92.665">  7  8 -1 -1</clus>
<clus scale="   93.687">  5  6 -1 -1</clus>
<clus scale="  117.013">  2  7  1 -1</clus>
<clus scale="   25.385">  1  5  2 -1</clus>
</clustering>
</event>
<event>
 9    1  0.1601012E-005  0.1288039E+03  0.7546771E-02  0.1229893E+00
         21   -1    0    0  501  502  0.00000000000E+00  0.00000000000E+00  0.46177561576E+03  0.46177561576E+03  0.00000000000E+00 0.  1.
          3   -1    0    0  502    0 -0.00000000000E+00 -0.00000000000E+00 -0.46801000865E+02  0.46801000865E+02  0.00000000000E+00 0. -1.
         23    2    1    2    0    0  0.30181221601E+02  0.71849407462E+02  0.14355912363E+03  0.18719289860E+03  0.91426012819E+02 0.  0.
         23    2    1    2    0    0 -0.33780426437E+02 -0.99442173421E+02  0.24720710863E+03  0.28450064875E+03  0.93805125228E+02 0.  0.
        -11    1    3    3    0    0  0.25282042576E+02 -0.89573069079E+01  0.79670916330E+02  0.84064677081E+02  0.00000000000E+00 0.  1.
         11    1    3    3    0    0  0.48991790251E+01  0.80806714370E+02  0.63888207301E+02  0.10312822152E+03  0.00000000000E+00 0. -1.
        -13    1    4    4    0    0  0.94102645996E+01 -0.95739314338E+02  0.15193266266E+03  0.17982798273E+03  0.00000000000E+00 0.  1.
         13    1    4    4    0    0 -0.43190691037E+02 -0.37028590828E+01  0.95274445970E+02  0.10467266602E+03  0.00000000000E+00 0. -1.
          3    1    1    2  501    0  0.35992048359E+01  0.27592765959E+02  0.24208382632E+02  0.36883069264E+02  0.00000000000E+00 0. -1.
<scales pt_clust_5="13000.00000" pt_clust_6="13000.00000" pt_clust_7="13000.00000" pt_clust_8="13000.00000" pt_clust_9="27.82653"></scales>
<clustering>
<clus scale="   27.827">  1  9  2 -1</clus>
<clus scale="   91.426">  5  6 -1 -1</clus>
<clus scale="   93.805">  7  8 -1 -1</clus>
<clus scale="  127.082">  2  5  1 -1</clus>
<clus scale="   27.827">  1  5  2 -1</clus>
</clustering>
</event>
<event>
 9    1  0.1601012E-005  0.1414388E+03  0.7546771E-02  0.1212332E+00
         -2   -1    0    0    0  501 -0.00000000000E+00  0.00000000000E+00  0.54951701230E+03  0.54951701230E+03  0.00000000000E+00 0.  1.
         21   -1    0    0  501  502  0.00000000000E+00 -0.00000000000E+00 -0.53886064810E+02  0.53886064810E+02  0.00000000000E+00 0. -1.
         23    2    1    2    0    0 -0.76823261345E+02  0.32031528618E+02  0.20392880599E+03  0.23864618367E+03  0.91854290904E+02 0.  0.
         23    2    1    2    0    0  0.12736126816E+03 -0.45035388929E+02  0.23668249513E+03  0.28892581800E+03  0.95971068168E+02 0.  0.
        -11    1    3    3    0    0 -0.43162464661E+02  0.58015117088E+02  0.81050971904E+02  0.10861865500E+03  0.00000000000E+00 0.  1.
         11    1    3    3    0    0 -0.33660796684E+02 -0.25983588469E+02  0.12287783409E+03  0.13002752868E+03  0.00000000000E+00 0. -1.
        -13    1    4    4    0    0  0.78270238695E+02 -0.54934135123E+02  0.21310117069E+03  0.23357246930E+03  0.00000000000E+00 0.  1.
         13    1    4    4    0    0  0.49091029463E+02  0.98987461937E+01  0.23581324439E+02  0.55353348699E+02  0.00000000000E+00 0. -1.
         -2    1    1    2    0  502 -0.50538006813E+02  0.13003860311E+02  0.55019646373E+02  0.75831075441E+02  0.00000000000E+00 0.  1.
<scales pt_clust_5="13000.00000" pt_clust_6="13000.00000" pt_clust_7="13000.00000" pt_clust_8="13000.00000" pt_clust_9="52.18420"></scales>
<clustering>
<clus scale="   52.184">  2  9  1 -1</clus>
<clus scale="   91.854">  5  6 -1 -1</clus>
<clus scale="   95.971">  7  8 -1 -1</clus>
<clus scale="  138.678">  1  5  2 -1</clus>
<clus scale="   52.184">  2  5  1 -1</clus>
</clustering>
</event>
<event>
 9    1  0.1601012E-005  0.1208925E+03  0.7546771E-02  0.1243647E+00
          1   -1    0    0  502    0 -0.00000000000E+00  0.00000000000E+00  0.55488210163E+03  0.55488210163E+03  0.00000000000E+00 0. -1.
         21   -1    0    0  501  502  0.00000000000E+00 -0.00000000000E+00 -0.52378432000E+02  0.52378432000E+02  0.00000000000E+00 0.  1.
         23    2    1    2    0    0  0.28581297343E+02 -0.57544346109E+02  0.24314475519E+03  0.26724389541E+03  0.90397374566E+02 0.  0.
         23    2    1    2    0    0  0.40774840771E+01  0.12072321843E+03  0.19402030310E+03  0.24343869021E+03  0.83831954110E+02 0.  0.
        -13    1    3    3    0    0  0.38202102621E+02  0.10170512868E+02  0.61089376677E+02  0.72765046000E+02  0.00000000000E+00 0.  1.
         13    1    3    3    0    0 -0.96208052783E+01 -0.67714858977E+02  0.18205537852E+03  0.19447884941E+03  0.00000000000E+00 0. -1.
        -13    1    4    4    0    0  0.34940283422E+02  0.10705605990E+03  0.15856661143E+03  0.19448700118E+03  0.00000000000E+00 0.  1.
         13    1    4    4    0    0 -0.30862799345E+02  0.13667158531E+02  0.35453691668E+02  0.48951689027E+02  0.00000000000E+00 0. -1.
          1    1    1    2  501    0 -0.32658781420E+02 -0.63178872320E+02  0.65338611336E+02  0.96577948016E+02  0.00000000000E+00 0. -1.
<scales pt_clust_5="13000.00000" pt_clust_6="13000.00000" pt_clust_7="13000.00000" pt_clust_8="13000.00000" pt_clust_9="71.12078"></scales>
<clustering>
<clus scale="   71.121">  2  9  1 -1</clus>
<clus scale="   83.832">  7  8 -1 -1</clus>
<clus scale="   90.397">  5  6 -1 -1</clus>
<clus scale="  116.065">  2  7  1 -1</clus>
<clus scale="   71.121">  2  5  1 -1</clus>
</clustering>
</event>
<event>
 9    1  0.1601012E-005  0.9929054E+02  0.7546771E-02  0.1283588E+00
          1   -1    0    0  502    0 -0.00000000000E+00  0.00000000000E+00  0.62473698926E+03  0.62473698926E+03  0.00000000000E+00 0. -1.
         21   -1    0    0  501  502  0.00000000000E+00 -0.00000000000E+00 -0.25578498889E+02  0.25578498889E+02  0.00000000000E+00 0.  1.
         23    2    1    2    0    0  0.17542480344E+01 -0.29365514154E+02  0.39676065641E+03  0.40852064655E+03  0.92761464922E+02 0.  0.
         23    2    1    2    0    0  0.10552318176E+02  0.48343103579E+02  0.19084558792E+03  0.21639691136E+03  0.89203014146E+02 0.  0.
        -11    1    3    3    0    0 -0.45191151148E+02 -0.95253527793E+01  0.17678753575E+03  0.18272056613E+03  0.00000000000E+00 0.  1.
         11    1    3    3    0    0  0.46945399182E+02 -0.19840161375E+02  0.21997312065E+03  0.22580008042E+03  0.00000000000E+00 0. -1.
        -13    1    4    4    0    0 -0.36058476267E+02  0.37749728056E+02  0.78138601292E+02  0.93972850818E+02  0.00000000000E+00 0.  1.
         13    1    4    4    0    0  0.46610794443E+02  0.10593375524E+02  0.11270698663E+03  0.12242406054E+03  0.00000000000E+00 0. -1.
          1    1    1    2  501    0 -0.12306566210E+02 -0.18977589425E+02  0.11552246044E+02  0.25397930249E+02  0.00000000000E+00 0. -1.
<scales pt_clust_5="13000.00000" pt_clust_6="13000.00000" pt_clust_7="13000.00000" pt_clust_8="13000.00000" pt_clust_9="22.61859"></scales>
<clustering>
<clus scale="   22.619">  2  9  1 -1</clus>
<clus scale="   89.203">  7  8 -1 -1</clus>
<clus scale="   92.761">  5  6 -1 -1</clus>
<clus scale="   95.974">  2  7  1 -1</clus>
<clus scale="   22.619">  2  5  1 -1</clus>
</clustering>
</event>
<event>
 9    1  0.1601012E-005  0.1293696E+03  0.7546771E-02  0.1228768E+00
          1   -1    0    0  502    0 -0.00000000000E+00  0.00000000000E+00  0.44613425084E+03  0.44613425084E+03  0.00000000000E+00 0. -1.
         21   -1    0    0  501  502  0.00000000000E+00 -0.00000000000E+00 -0.19585845616E+03  0.19585845616E+03  0.00000000000E+00 0. -1.
         23    2    1    2    0    0 -0.30702408478E+02  0.85714550076E+02  0.38253232726E+03  0.40468797822E+03  0.95664812432E+02 0.  0.
         23    2    1    2    0    0  0.18862551087E+02 -0.25322293411E+02 -0.14364734415E+03  0.17471752980E+03  0.94311406320E+02 0.  0.
        -13    1    4    4    0    0  0.15041154234E+02 -0.46174552485E+02 -0.25823339394E+02  0.55001549754E+02  0.00000000000E+00 0.  1.
         13    1    4    4    0    0  0.38213968531E+01  0.20852259074E+02 -0.11782400475E+03  0.11971598005E+03  0.00000000000E+00 0. -1.
        -13    1    3    3    0    0 -0.29152382772E+02 -0.10501032807E+02  0.14749726525E+03  0.15071687486E+03  0.00000000000E+00 0.  1.
         13    1    3    3    0    0 -0.15500257066E+01  0.96215582883E+02  0.23503506201E+03  0.25397110336E+03  0.00000000000E+00 0. -1.
          1    1    1    2  501    0  0.11839857391E+02 -0.60392256665E+02  0.11390811567E+02  0.62587198981E+02  0.00000000000E+00 0. -1.
<scales pt_clust_5="13000.00000" pt_clust_6="13000.00000" pt_clust_7="13000.00000" pt_clust_8="13000.00000" pt_clust_9="61.54191"></scales>
<clustering>
<clus scale="   61.542">  2  9  1 -1</clus>
<clus scale="   94.311">  5  6 -1 -1</clus>
<clus scale="   95.665">  7  8 -1 -1</clus>
<clus scale="  128.372">  2  5  1 -1</clus>
<clus scale="   61.542">  2  5  1 -1</clus>
</clustering>
</event>
<event>
 9    1  0.1601012E-005  0.1269955E+03  0.7546771E-02  0.1232165E+00
         21   -1    0    0  501  502  0.00000000000E+00  0.00000000000E+00  0.21262313642E+03  0.21262313642E+03  0.00000000000E+00 0. -1.
         -2   -1    0    0    0  501 -0.00000000000E+00 -0.00000000000E+00 -0.18687656363E+03  0.18687656363E+03  0.00000000000E+00 0.  1.
         23    2    1    2    0    0 -0.10902210971E+02  0.83316985586E+02 -0.91037434953E+02  0.15360847634E+03  0.90813936978E+02 0.  0.
         23    2    1    2    0    0 -0.48483798201E+02 -0.10804876114E+03  0.61393674349E+02  0.16100042420E+03  0.90148432431E+02 0.  0.
        -11    1    3    3    0    0 -0.61852824076E+01  0.52949001593E+02  0.42592717787E+01  0.53478929348E+02  0.00000000000E+00 0. -1.
         11    1    3    3    0    0 -0.47169285636E+01  0.30367983994E+02 -0.95296706732E+02  0.10012954699E+03  0.00000000000E+00 0.  1.
        -13    1    4    4    0    0  0.41691032983E+01 -0.93922464514E+02  0.33857246729E+02  0.99925591911E+02  0.00000000000E+00 0.  1.
         13    1    4    4    0    0 -0.52652901499E+02 -0.14126296624E+02  0.27536427620E+02  0.61074832285E+02  0.00000000000E+00 0. -1.
         -2    1    1    2    0  502  0.59386009172E+02  0.24731775552E+02  0.55390333399E+02  0.84890799510E+02  0.00000000000E+00 0.  1.
<scales pt_clust_5="13000.00000" pt_clust_6="13000.00000" pt_clust_7="13000.00000" pt_clust_8="13000.00000" pt_clust_9="64.33008"></scales>
<clustering>
<clus scale="   64.330">  1  9  2 -1</clus>
<clus scale="   90.148">  7  8 -1 -1</clus>
<clus scale="   90.814">  5  6 -1 -1</clus>
<clus scale="  126.520">  1  7  2 -1</clus>
<clus scale="   64.330">  1  5  2 -1</clus>
</clustering>
</event>
<event>
 9    1  0.1601012E-005  0.1234750E+03  0.7546771E-02  0.1245488E+00
         -1   -1    0    0    0  501 -0.00000000000E+00  0.00000000000E+00  0.28902287038E+03  0.28902287038E+03  0.00000000000E+00 0.  1.
         21   -1    0    0  501  502  0.00000000000E+00 -0.00000000000E+00 -0.10025827538E+03  0.10025827538E+03  0.00000000000E+00 0. -1.
         23    2    1    2    0    0  0.22276697405E+02  0.72286448901E+02  0.15950300649E+03  0.19476252621E+03  0.82277886412E+02 0.  0.
         23    2    1    2    0    0 -0.51948534351E+02 -0.10171494642E+02 -0.50925868083E+01  0.11758426564E+03  0.10487142395E+03 0.  0.
        -11    1    4    4    0    0  0.29813881723E+02  0.18178701933E+01  0.13662905096E+02  0.32845809034E+02  0.00000000000E+00 0.  1.
         11    1    4    4    0    0 -0.81762416074E+02 -0.11989364836E+02 -0.18755491904E+02  0.84738456606E+02  0.00000000000E+00 0. -1.
        -11    1    3    3    0    0  0.45273321155E+02  0.71638543109E+02  0.10066767839E+03  0.13158926985E+03  0.00000000000E+00 0.  1.
         11    1    3    3    0    0 -0.22996623751E+02  0.64790579141E+00  0.58835328099E+02  0.63173256354E+02  0.00000000000E+00 0. -1.
         -1    1    1    2    0  502  0.29671836946E+02 -0.62114954258E+02  0.34354175324E+02  0.76934353916E+02  0.00000000000E+00 0.  1.
<scales pt_clust_5="13000.00000" pt_clust_6="13000.00000" pt_clust_7="13000.00000" pt_clust_8="13000.00000" pt_clust_9="68.83811"></scales>
<clustering>
<clus scale="   68.838">  2  9  1 -1</clus>
<clus scale="   82.278">  7  8 -1 -1</clus>
<clus scale="  104.871">  5  6 -1 -1</clus>
<clus scale="  104.965">  1  7  2 -1</clus>
<clus scale="   68.838">  2  5  1 -1</clus>
</clustering>
</event>
<event>
 9    1  0.1601012E-005  0.9489758E+02  0.7546771E-02  0.1292108E+00
          2   -1    0    0  502    0 -0.00000000000E+00  0.00000000000E+00  0.27049542725E+03  0.27049542725E+03  0.00000000000E+00 0. -1.
         21   -1    0    0  501  502  0.00000000000E+00 -0.00000000000E+00 -0.10759875161E+03  0.10759875161E+03  0.00000000000E+00 0. -1.
         23    2    1    2    0    0 -0.17045829843E+02  0.94206969631E+01  0.12285807948E+03  0.15503344541E+03  0.92530814637E+02 0.  0.
         23    2    1    2    0    0 -0.11121154364E+02  0.47091054590E+02  0.92991284837E+02  0.14065354747E+03  0.93780562296E+02 0.  0.
        -13    1    4    4    0    0  0.18581799578E+02 -0.14423315839E+02 -0.20482796053E+01  0.23611665860E+02  0.00000000000E+00 0.  1.
         13    1    4    4    0    0 -0.29702953943E+02  0.61514370429E+02  0.95039564443E+02  0.11704188161E+03  0.00000000000E+00 0. -1.
        -13    1    3    3    0    0 -0.39601516374E+02 -0.28196799160E+02  0.80607041216E+02  0.94132006648E+02  0.00000000000E+00 0.  1.
         13    1    3    3    0    0  0.22555686531E+02  0.37617496123E+02  0.42251038261E+02  0.60901438764E+02  0.00000000000E+00 0. -1.
          2    1    1    2  501    0  0.28166984207E+02 -0.56511751553E+02 -0.52952688674E+02  0.82407185978E+02  0.00000000000E+00 0. -1.
<scales pt_clust_5="13000.00000" pt_clust_6="13000.00000" pt_clust_7="13000.00000" pt_clust_8="13000.00000" pt_clust_9="63.14236"></scales>
<clustering>
<clus scale="   63.142">  2  9  1 -1</clus>
<clus scale="   92.531">  7  8 -1 -1</clus>
<clus scale="   93.663">  1  7  2 -1</clus>
<clus scale="   93.781">  5  6 -1 -1</clus>
<clus scale="   63.142">  2  5  1 -1</clus>
</clustering>
</event>
<event>
 9    1  0.1601012E-005  0.1001563E+03  0.7546771E-02  0.1281932E+00
         21   -1    0    0  501  502  0.00000000000E+00  0.00000000000E+00  0.39704702190E+03  0.39704702190E+03  0.00000000000E+00 0. -1.
         -1   -1    0    0    0  501 -0.00000000000E+00 -0.00000000000E+00 -0.38873385701E+02  0.38873385701E+02  0.00000000000E+00 0.  1.
         23    2    1    2    0    0 -0.14283271399E+02 -0.27061719757E+02  0.62585560306E+02  0.11556116716E+03  0.92201314956E+02 0.  0.
         23    2    1    2    0    0  0.27414853316E+02  0.84015579672E+01  0.25104419391E+03  0.27031128839E+03  0.96035644307E+02 0.  0.
        -11    1    3    3    0    0 -0.34792195842E+02 -0.47716395619E+02  0.63135037571E+02  0.86448737825E+02  0.00000000000E+00 0.  1.
         11    1    3    3    0    0  0.20508924443E+02  0.20654675862E+02 -0.54947726507E+00  0.29112429340E+02  0.00000000000E+00 0. -1.
        -11    1    4    4    0    0  0.25050757558E+02 -0.27518826528E+02  0.34336952684E+02  0.50634499971E+02  0.00000000000E+00 0.  1.
         11    1    4    4    0    0  0.23640957580E+01  0.35920384495E+02  0.21670724122E+03  0.21967678842E+03  0.00000000000E+00 0. -1.
         -1    1    1    2    0  502 -0.13131581917E+02  0.18660161790E+02  0.44543881986E+02  0.50047952046E+02  0.00000000000E+00 0.  1.
<scales pt_clust_5="13000.00000" pt_clust_6="13000.00000" pt_clust_7="13000.00000" pt_clust_8="13000.00000" pt_clust_9="22.81754"></scales>
<clustering>
<clus scale="   22.818">  1  9  2 -1</clus>
<clus scale="   92.201">  5  6 -1 -1</clus>
<clus scale="   96.036">  7  8 -1 -1</clus>
<clus scale="   96.486">  2  5  1 -1</clus>
<clus scale="   22.818">  1  5  2 -1</clus>
</clustering>
</event>
<event>
 9    1  0.1601012E-005  0.9945501E+02  0.7546771E-02  0.1283826E+00
          2   -1    0    0  502    0 -0.00000000000E+00  0.00000000000E+00  0.32500067668E+03  0.32500067668E+03  0.00000000000E+00 0. -1.
         21   -1    0    0  501  502  0.00000000000E+00 -0.00000000000E+00 -0.10557713576E+03  0.10557713576E+03  0.00000000000E+00 0. -1.
         23    2    1    2    0    0  0.18377838767E+02 -0.19090565469E+02  0.19566391370E+03  0.21720381251E+03  0.90503781123E+02 0.  0.
         23    2    1    2    0    0 -0.57827846495E+01  0.38473382664E+02  0.94102405043E+02  0.13933053039E+03  0.95100432665E+02 0.  0.
        -11    1    4    4    0    0  0.42759784815E+02  0.70385791789E+01  0.28452889311E+02  0.51841177692E+02  0.00000000000E+00 0.  1.
         11    1    4    4    0    0 -0.48542569465E+02  0.31434803485E+02  0.65649515732E+02  0.87489352702E+02  0.00000000000E+00 0. -1.
        -13    1    3    3    0    0 -0.21741354460E+02  0.13073626457E+02  0.13641115085E+03  0.13875016497E+03  0.00000000000E+00 0. -1.
         13    1    3    3    0    0  0.40119193227E+02 -0.32164191926E+02  0.59252762846E+02  0.78453647540E+02  0.00000000000E+00 0.  1.
          2    1    1    2  501    0 -0.12595054117E+02 -0.19382817195E+02 -0.70342777819E+02  0.74043469543E+02  0.00000000000E+00 0. -1.
<scales pt_clust_5="13000.00000" pt_clust_6="13000.00000" pt_clust_7="13000.00000" pt_clust_8="13000.00000" pt_clust_9="23.11556"></scales>
<clustering>
<clus scale="   23.116">  2  9  1 -1</clus>
<clus scale="   90.504">  7  8 -1 -1</clus>
<clus scale="   95.069">  1  7  2 -1</clus>
<clus scale="   95.100">  5  6 -1 -1</clus>
<clus scale="   23.116">  2  5  1 -1</clus>
</clustering>
</event>
<event>
 9    1  0.1601012E-005  0.1153469E+03  0.7546771E-02  0.1251448E+00
         21   -1    0    0  501  502  0.00000000000E+00  0.00000000000E+00  0.24855578778E+03  0.24855578778E+03  0.00000000000E+00 0. -1.
         -1   -1    0    0    0  501 -0.00000000000E+00 -0.00000000000E+00 -0.82206180217E+02  0.82206180217E+02  0.00000000000E+00 0.  1.
         23    2    1    2    0    0  0.52924588626E+02 -0.56913818849E+02  0.83798722074E+01  0.11946322768E+03  0.90338505922E+02 0.  0.
         23    2    1    2    0    0 -0.23343448191E+02  0.47149749780E+02  0.13966915878E+03  0.17516991502E+03  0.91700652875E+02 0.  0.
        -11    1    3    3    0    0 -0.97652437313E+01 -0.37911302291E+02 -0.24484551342E+02  0.46174885825E+02  0.00000000000E+00 0.  1.
         11    1    3    3    0    0  0.62689832358E+02 -0.19002516558E+02  0.32864423550E+02  0.73288341855E+02  0.00000000000E+00 0. -1.
        -13    1    4    4    0    0 -0.37594732172E+02 -0.11766568426E+02  0.28750063514E+02  0.48768659728E+02  0.00000000000E+00 0.  1.
         13    1    4    4    0    0  0.14251283980E+02  0.58916318206E+02  0.11091909526E+03  0.12640125529E+03  0.00000000000E+00 0. -1.
         -1    1    1    2    0  502 -0.29581140435E+02  0.97640690691E+01  0.18300576584E+02  0.36128825300E+02  0.00000000000E+00 0.  1.
<scales pt_clust_5="13000.00000" pt_clust_6="13000.00000" pt_clust_7="13000.00000" pt_clust_8="13000.00000" pt_clust_9="31.15094"></scales>
<clustering>
<clus scale="   31.151">  1  9  2 -1</clus>
<clus scale="   90.339">  5  6 -1 -1</clus>
<clus scale="   91.701">  7  8 -1 -1</clus>
<clus scale="  114.267">  2  5  1 -1</clus>
<clus scale="   31.151">  1  5  2 -1</clus>
</clustering>
</event>
<event>
 9    1  0.1601012E-005  0.1885999E+03  0.7546771E-02  0.1161013E+00
         21   -1    0    0  501  502  0.00000000000E+00  0.00000000000E+00  0.85501141591E+03  0.85501141591E+03  0.00000000000E+00 0. -1.
         -1   -1    0    0    0  501 -0.00000000000E+00 -0.00000000000E+00 -0.72634032103E+02  0.72634032103E+02  0.00000000000E+00 0.  1.
         23    2    1    2    0    0 -0.14509961240E+03 -0.17660764451E+02  0.14540842880E+03  0.22189707485E+03  0.82029875902E+02 0.  0.
         23    2    1    2    0    0  0.21396357749E+03  0.18831449353E+02  0.51102853914E+03  0.56220533244E+03  0.93753037455E+02 0.  0.
        -13    1    4    4    0    0  0.36393107654E+02  0.40588689817E+02  0.99060425150E+02  0.11307018996E+03  0.00000000000E+00 0.  1.
         13    1    4    4    0    0  0.17757046984E+03 -0.21757240463E+02  0.41196811399E+03  0.44913514249E+03  0.00000000000E+00 0. -1.
        -13    1    3    3    0    0 -0.12763192051E+03 -0.44810712888E+02  0.11972494675E+03  0.18064321187E+03  0.00000000000E+00 0.  1.
         13    1    3    3    0    0 -0.17467691899E+02  0.27149948437E+02  0.25683482043E+02  0.41253862973E+02  0.00000000000E+00 0. -1.
         -1    1    1    2    0  502 -0.68863965087E+02 -0.11706849019E+01  0.12594041587E+03  0.14354304073E+03  0.00000000000E+00 0.  1.
<scales pt_clust_5="13000.00000" pt_clust_6="13000.00000" pt_clust_7="13000.00000" pt_clust_8="13000.00000" pt_clust_9="68.87392"></scales>
<clustering>
<clus scale="   68.874">  1  9  2 -1</clus>
<clus scale="   82.030">  7  8 -1 -1</clus>
<clus scale="   93.753">  5  6 -1 -1</clus>
<clus scale="  183.055">  2  7  1 -1</clus>
<clus scale="   68.874">  1  5  2 -1</clus>
</clustering>
</event>
<event>
 9    1  0.1601012E-005  0.1799417E+03  0.7546771E-02  0.1168006E+00
          2   -1    0    0  502    0 -0.00000000000E+00  0.00000000000E+00  0.29220800639E+03  0.29220800639E+03  0.00000000000E+00 0. -1.
         21   -1    0    0  501  502  0.00000000000E+00 -0.00000000000E+00 -0.35078823347E+03  0.35078823347E+03  0.00000000000E+00 0.  1.
         23    2    1    2    0    0 -0.14300572608E+03  0.57293621411E+02  0.22388449757E+03  0.28624997591E+03  0.89897629063E+02 0.  0.
         23    2    1    2    0    0  0.14795556366E+03 -0.77286041660E+02 -0.27597986556E+03  0.33515341427E+03  0.91098539214E+02 0.  0.
        -11    1    4    4    0    0 -0.91065590830E+01 -0.20198100541E+02 -0.22792334967E+02  0.31786525715E+02  0.00000000000E+00 0. -1.
         11    1    4    4    0    0  0.15706212274E+03 -0.57087941118E+02 -0.25318753059E+03  0.30336688855E+03  0.00000000000E+00 0.  1.
        -13    1    3    3    0    0 -0.90052432357E+02  0.79434758951E+02  0.13771230865E+03  0.18271289351E+03  0.00000000000E+00 0. -1.
         13    1    3    3    0    0 -0.52953293718E+02 -0.22141137541E+02  0.86172188929E+02  0.10353708240E+03  0.00000000000E+00 0.  1.
          2    1    1    2  501    0 -0.49498375864E+01  0.19992420249E+02 -0.64848590958E+01  0.21592849674E+02  0.00000000000E+00 0. -1.
<scales pt_clust_5="13000.00000" pt_clust_6="13000.00000" pt_clust_7="13000.00000" pt_clust_8="13000.00000" pt_clust_9="20.59606"></scales>
<clustering>
<clus scale="   20.596">  2  9  1 -1</clus>
<clus scale="   89.898">  7  8 -1 -1</clus>
<clus scale="   91.099">  5  6 -1 -1</clus>
<clus scale="  179.337">  1  7  2 -1</clus>
<clus scale="   20.596">  2  5  1 -1</clus>
</clustering>
</event>
<event>
 9    1  0.1601012E-005  0.9503629E+02  0.7546771E-02  0.1291646E+00
         21   -1    0    0  501  502  0.00000000000E+00  0.00000000000E+00  0.23244815455E+03  0.23244815455E+03  0.00000000000E+00 0. -1.
          2   -1    0    0  502    0 -0.00000000000E+00 -0.00000000000E+00 -0.21694688855E+03  0.21694688855E+03  0.00000000000E+00 0. -1.
         23    2    1    2    0    0  0.26990687048E+02 -0.64904110104E+01 -0.16173878587E+03  0.18784950514E+03  0.91418702157E+02 0.  0.
         23    2    1    2    0    0 -0.58976843958E+00 -0.24835169683E+02  0.18331019253E+02  0.97440750852E+02  0.92420453254E+02 0.  0.
        -11    1    4    4    0    0  0.29785484624E+02 -0.48259563525E+02  0.16395510581E+02  0.59033662712E+02  0.00000000000E+00 0.  1.
         11    1    4    4    0    0 -0.30375253064E+02  0.23424393842E+02  0.19355086723E+01  0.38407088140E+02  0.00000000000E+00 0. -1.
        -13    1    3    3    0    0 -0.34813498633E+00 -0.25752897145E+02 -0.33543696793E+01  0.25972768533E+02  0.00000000000E+00 0.  1.
         13    1    3    3    0    0  0.27338822035E+02  0.19262486135E+02 -0.15838441619E+03  0.16187673660E+03  0.00000000000E+00 0. -1.
          2    1    1    2  501    0 -0.26400918609E+02  0.31325580694E+02  0.15890903261E+03  0.16410478712E+03  0.00000000000E+00 0. -1.
<scales pt_clust_5="13000.00000" pt_clust_6="13000.00000" pt_clust_7="13000.00000" pt_clust_8="13000.00000" pt_clust_9="40.96707"></scales>
<clustering>
<clus scale="   40.967">  1  9  2 -1</clus>
<clus scale="   91.419">  7  8 -1 -1</clus>
<clus scale="   92.420">  5  6 -1 -1</clus>
<clus scale="   94.062">  2  7  1 -1</clus>
<clus scale="   40.967">  1  5  2 -1</clus>
</clustering>
</event>
<event>
 9    1  0.1601012E-005  0.1071303E+03  0.7546771E-02  0.1267200E+00
         21   -1    0    0  501  502  0.00000000000E+00  0.00000000000E+00  0.89506280453E+02  0.89506280453E+02  0.00000000000E+00 0.  1.
          1   -1    0    0  502    0 -0.00000000000E+00 -0.00000000000E+00 -0.31805241348E+03  0.31805241348E+03  0.00000000000E+00 0. -1.
         23    2    1    2    0    0 -0.35066511837E+02  0.32186471241E+02 -0.15661337262E+03  0.18775528871E+03  0.91971032247E+02 0.  0.
         23    2    1    2    0    0  0.86447057506E+02  0.99141520094E+01 -0.86763416448E+02  0.15174187930E+03  0.89029901374E+02 0.  0.
        -11    1    3    3    0    0  0.25767005094E+02 -0.10951166112E+02 -0.31886159434E+02  0.42433403754E+02  0.00000000000E+00 0.  1.
         11    1    3    3    0    0 -0.60833516931E+02  0.43137637353E+02 -0.12472721318E+03  0.14532188496E+03  0.00000000000E+00 0. -1.
        -11    1    4    4    0    0  0.64589815899E+02  0.42371415637E+01 -0.27940821635E+01  0.64788923294E+02  0.00000000000E+00 0.  1.
         11    1    4    4    0    0  0.21857241608E+02  0.56770104457E+01 -0.83969334285E+02  0.86952956008E+02  0.00000000000E+00 0. -1.
          1    1    1    2  501    0 -0.51380545670E+02 -0.42100623251E+02  0.14830656044E+02  0.68061525917E+02  0.00000000000E+00 0. -1.
<scales pt_clust_5="13000.00000" pt_clust_6="13000.00000" pt_clust_7="13000.00000" pt_clust_8="13000.00000" pt_clust_9="66.42607"></scales>
<clustering>
<clus scale="   66.426">  1  9  2 -1</clus>
<clus scale="   89.030">  7  8 -1 -1</clus>
<clus scale="   91.971">  5  6 -1 -1</clus>
<clus scale="  104.616">  1  7  2 -1</clus>
<clus scale="   66.426">  1  5  2 -1</clus>
</clustering>
</event>
<event>
 9    1  0.1601012E-005  0.1003580E+03  0.7546771E-02  0.1279637E+00
          3   -1    0    0  502    0 -0.00000000000E+00  0.00000000000E+00  0.20391441743E+03  0.20391441743E+03  0.00000000000E+00 0. -1.
         21   -1    0    0  501  502  0.00000000000E+00 -0.00000000000E+00 -0.88648250711E+02  0.88648250711E+02  0.00000000000E+00 0.  1.
         23    2    1    2    0    0  0.45714494716E+02  0.94057455753E+01  0.13491101192E+03  0.16981782798E+03  0.91971900518E+02 0.  0.
         23    2    1    2    0    0 -0.18665868932E+02 -0.79969493360E+01 -0.13424584435E+02  0.94954472990E+02  0.91781079814E+02 0.  0.
        -11    1    3    3    0    0 -0.23145481887E+02 -0.17660500049E+02  0.36142834232E+02  0.46410247360E+02  0.00000000000E+00 0.  1.
         11    1    3    3    0    0  0.68859976603E+02  0.27066245624E+02  0.98768177693E+02  0.12340758062E+03  0.00000000000E+00 0. -1.
        -13    1    4    4    0    0 -0.54842156852E+02  0.25740052973E+01  0.12817750994E+00  0.54902678450E+02  0.00000000000E+00 0.  1.
         13    1    4    4    0    0  0.36176287920E+02 -0.10570954633E+02 -0.13552761945E+02  0.40051794540E+02  0.00000000000E+00 0. -1.
          3    1    1    2  501    0 -0.27048625784E+02 -0.14087962393E+01 -0.62202607667E+01  0.27790367174E+02  0.00000000000E+00 0. -1.
<scales pt_clust_5="13000.00000" pt_clust_6="13000.00000" pt_clust_7="13000.00000" pt_clust_8="13000.00000" pt_clust_9="27.08529"></scales>
<clustering>
<clus scale="   27.085">  2  9  1 -1</clus>
<clus scale="   91.781">  7  8 -1 -1</clus>
<clus scale="   91.972">  5  6 -1 -1</clus>
<clus scale="  100.183">  2  7  1 -1</clus>
<clus scale="   27.085">  2  5  1 -1</clus>
</clustering>
</event>
<event>
 9    1  0.1601012E-005  0.2090934E+03  0.7546771E-02  0.1142598E+00
          2   -1    0    0  502    0 -0.00000000000E+00  0.00000000000E+00  0.88849633278E+02  0.88849633278E+02  0.00000000000E+00 0. -1.
         21   -1    0    0  501  502  0.00000000000E+00 -0.00000000000E+00 -0.69044769787E+03  0.69044769787E+03  0.00000000000E+00 0.  1.
         23    2    1    2    0    0  0.20862361288E+03  0.17957552702E+02 -0.18896913314E+03  0.29672047103E+03  0.92127189797E+02 0.  0.
         23    2    1    2    0    0 -0.15527559645E+03  0.21889601141E+02 -0.30320724559E+03  0.35448739192E+03  0.95587717632E+02 0.  0.
        -11    1    4    4    0    0 -0.46582120197E+02  0.39728840568E+02 -0.17533143511E+03  0.18571318433E+03  0.00000000000E+00 0.  1.
         11    1    4    4    0    0 -0.10869347625E+03 -0.17839239427E+02 -0.12787581047E+03  0.16877420759E+03  0.00000000000E+00 0. -1.
        -13    1    3    3    0    0  0.48570158845E+02 -0.17572415128E+02 -0.75574878056E+01  0.52201204255E+02  0.00000000000E+00 0.  1.
         13    1    3    3    0    0  0.16005345403E+03  0.35529967831E+02 -0.18141164534E+03  0.24451926678E+03  0.00000000000E+00 0. -1.
          2    1    1    2  501    0 -0.53348016430E+02 -0.39847153843E+02 -0.10942168587E+03  0.12808946820E+03  0.00000000000E+00 0. -1.
<scales pt_clust_5="13000.00000" pt_clust_6="13000.00000" pt_clust_7="13000.00000" pt_clust_8="13000.00000" pt_clust_9="66.58683"></scales>
<clustering>
<clus scale="   66.587">  2  9  1 -1</clus>
<clus scale="   92.127">  7  8 -1 -1</clus>
<clus scale="   95.588">  5  6 -1 -1</clus>
<clus scale="  207.534">  1  7  2 -1</clus>
<clus scale="   66.587">  2  5  1 -1</clus>
</clustering>
</event>
<event>
 9    1  0.1601012E-005  0.9279818E+02  0.7546771E-02  0.1297585E+00
         -3   -1    0    0    0  501 -0.00000000000E+00  0.00000000000E+00  0.45047491920E+03  0.45047491920E+03  0.00000000000E+00 0.  1.
         21   -1    0    0  501  502  0.00000000000E+00 -0.00000000000E+00 -0.45317837693E+02  0.45317837693E+02  0.00000000000E+00 0. -1.
         23    2    1    2    0    0 -0.66314810145E+01  0.97948906607E+00  0.36285250529E+03  0.37454758982E+03  0.92623002048E+02 0.  0.
         23    2    1    2    0    0 -0.18830511996E+01  0.18628884826E+02  0.33123299623E+02  0.97979711445E+02  0.90290030708E+02 0.  0.
        -11    1    3    3    0    0 -0.47201724674E+02 -0.14062949910E+02  0.17700055083E+03  0.18372524151E+03  0.00000000000E+00 0.  1.
         11    1    3    3    0    0  0.40570243660E+02  0.15042438976E+02  0.18585195445E+03  0.19082234831E+03  0.00000000000E+00 0. -1.
        -11    1    4    4    0    0 -0.17118823988E+02  0.32578639956E+02 -0.19355248302E+02  0.41581817576E+02  0.00000000000E+00 0. -1.
         11    1    4    4    0    0  0.15235772788E+02 -0.13949755129E+02  0.52478547925E+02  0.56397893869E+02  0.00000000000E+00 0.  1.
         -3    1    1    2    0  502  0.85145322140E+01 -0.19608373892E+02  0.91812765934E+01  0.23265455624E+02  0.00000000000E+00 0.  1.
<scales pt_clust_5="13000.00000" pt_clust_6="13000.00000" pt_clust_7="13000.00000" pt_clust_8="13000.00000" pt_clust_9="21.37722"></scales>
<clustering>
<clus scale="   21.377">  2  9  1 -1</clus>
<clus scale="   90.290">  7  8 -1 -1</clus>
<clus scale="   90.470">  2  7  1 -1</clus>
<clus scale="   92.623">  5  6 -1 -1</clus>
<clus scale="   21.377">  2  5  1 -1</clus>
</clustering>
</event>
<event>
 9    1  0.1601012E-005  0.2749407E+03  0.7546771E-02  0.1129122E+00
         21   -1    0    0  501  502  0.00000000000E+00  0.00000000000E+00  0.18191702381E+03  0.18191702381E+03  0.00000000000E+00 0. -1.
          1   -1    0    0  502    0 -0.00000000000E+00 -0.00000000000E+00 -0.67431573448E+03  0.67431573448E+03  0.00000000000E+00 0. -1.
         23    2    1    2    0    0  0.52510760995E+02 -0.74791320189E+02 -0.12741550237E+03  0.17965367960E+03  0.87690437070E+02 0.  0.
         23    2    1    2    0    0 -0.27880166575E+03  0.25234189914E+02 -0.71090766870E+02  0.30236490224E+03  0.89462303821E+02 0.  0.
        -13    1    4    4    0    0 -0.24695217716E+03  0.10993189005E+02 -0.30863260746E+02  0.24911597474E+03  0.00000000000E+00 0. -1.
         13    1    4    4    0    0 -0.31849488592E+02  0.14241000909E+02 -0.40227506124E+02  0.53248927495E+02  0.00000000000E+00 0.  1.
        -13    1    3    3    0    0  0.83217972376E+01 -0.63182853719E+02 -0.26768768945E+02  0.69122299616E+02  0.00000000000E+00 0.  1.
         13    1    3    3    0    0  0.44188963757E+02 -0.11608466470E+02 -0.10064673343E+03  0.11053137999E+03  0.00000000000E+00 0. -1.
          1    1    1    2  501    0  0.22629090475E+03  0.49557130275E+02 -0.29389244142E+03  0.37421417646E+03  0.00000000000E+00 0. -1.
<scales pt_clust_5="13000.00000" pt_clust_6="13000.00000" pt_clust_7="13000.00000" pt_clust_8="13000.00000" pt_clust_9="259.97870"></scales>
<clustering>
<clus scale="   87.690">  7  8 -1 -1</clus>
<clus scale="   89.462">  5  6 -1 -1</clus>
<clus scale="  126.652">  2  7  1 -1</clus>
<clus scale="  259.979">  1  9  2 -1</clus>
<clus scale="  259.979">  1  5  2 -1</clus>
</clustering>
</event>
<event>
 9    1  0.1601012E-005  0.1013400E+03  0.7546771E-02  0.1286408E+00
         21   -1    0    0  501  502  0.00000000000E+00  0.00000000000E+00  0.10678404894E+03  0.10678404894E+03  0.00000000000E+00 0.  1.
          3   -1    0    0  502    0 -0.00000000000E+00 -0.00000000000E+00 -0.11970994043E+03  0.11970994043E+03  0.00000000000E+00 0. -1.
         23    2    1    2    0    0  0.26601969453E+02 -0.91658052187E+01 -0.20391243748E+02  0.84746657233E+02  0.77294995481E+02 0.  0.
         23    2    1    2    0    0 -0.51679006643E+02 -0.41682272593E+01 -0.10331515935E+02  0.10823042992E+03  0.94440414509E+02 0.  0.
        -11    1    4    4    0    0 -0.23500079918E+02  0.24015042221E+02  0.34559399001E+02  0.48200913564E+02  0.00000000000E+00 0.  1.
         11    1    4    4    0    0 -0.28178926725E+02 -0.28183269481E+02 -0.44890914936E+02  0.60029516354E+02  0.00000000000E+00 0. -1.
        -13    1    3    3    0    0  0.52760554253E+02 -0.38409175080E+01 -0.32038032967E+01  0.52997104525E+02  0.00000000000E+00 0. -1.
         13    1    3    3    0    0 -0.26158584800E+02 -0.53248877108E+01 -0.17187440452E+02  0.31749552708E+02  0.00000000000E+00 0.  1.
          3    1    1    2  501    0  0.25077037190E+02  0.13334032478E+02  0.17796868193E+02  0.33516902211E+02  0.00000000000E+00 0. -1.
<scales pt_clust_5="13000.00000" pt_clust_6="13000.00000" pt_clust_7="13000.00000" pt_clust_8="13000.00000" pt_clust_9="28.40166"></scales>
<clustering>
<clus scale="   28.402">  1  9  2 -1</clus>
<clus scale="   77.295">  7  8 -1 -1</clus>
<clus scale="   85.588">  2  7  1 -1</clus>
<clus scale="   94.440">  5  6 -1 -1</clus>
<clus scale="   28.402">  1  5  2 -1</clus>
</clustering>
</event>
<event>
 9    1  0.1601012E-005  0.1268141E+03  0.7546771E-02  0.1233496E+00
         21   -1    0    0  501  502  0.00000000000E+00  0.00000000000E+00  0.10769836532E+03  0.10769836532E+03  0.00000000000E+00 0. -1.
          4   -1    0    0  502    0 -0.00000000000E+00 -0.00000000000E+00 -0.26861398046E+03  0.26861398046E+03  0.00000000000E+00 0. -1.
         23    2    1    2    0    0  0.73635047984E+01  0.81249857956E+02 -0.10247689337E+03  0.15979210118E+03  0.91521807799E+02 0.  0.
         23    2    1    2    0    0  0.36092902664E+02 -0.93919853384E+02 -0.90617369098E+02  0.16098238834E+03  0.87064259548E+02 0.  0.
        -11    1    4    4    0    0  0.53871383468E+02 -0.30793620088E+02 -0.66891599917E+02  0.91240666012E+02  0.00000000000E+00 0.  1.
         11    1    4    4    0    0 -0.17778480804E+02 -0.63126233296E+02 -0.23725769181E+02  0.69741722327E+02  0.00000000000E+00 0. -1.
        -13    1    3    3    0    0  0.23934642208E+02  0.49149294479E+01  0.68968945478E+01  0.25388792478E+02  0.00000000000E+00 0.  1.
         13    1    3    3    0    0 -0.16571137409E+02  0.76334928508E+02 -0.10937378792E+03  0.13440330870E+03  0.00000000000E+00 0. -1.
          4    1    1    2  501    0 -0.43456407462E+02  0.12669995428E+02  0.32178647333E+02  0.55537856259E+02  0.00000000000E+00 0. -1.
<scales pt_clust_5="13000.00000" pt_clust_6="13000.00000" pt_clust_7="13000.00000" pt_clust_8="13000.00000" pt_clust_9="45.26575"></scales>
<clustering>
<clus scale="   45.266">  1  9  2 -1</clus>
<clus scale="   87.064">  5  6 -1 -1</clus>
<clus scale="   91.522">  7  8 -1 -1</clus>
<clus scale="  123.636">  1  5  2 -1</clus>
<clus scale="   45.266">  1  5  2 -1</clus>
</clustering>
</event>
<event>
 9    1  0.1601012E-005  0.1445775E+03  0.7546771E-02  0.1207792E+00
         21   -1    0    0  501  502  0.00000000000E+00  0.00000000000E+00  0.15015299761E+03  0.15015299761E+03  0.00000000000E+00 0. -1.
          1   -1    0    0  502    0 -0.00000000000E+00 -0.00000000000E+00 -0.22452158238E+03  0.22452158238E+03  0.00000000000E+00 0. -1.
         23    2    1    2    0    0  0.11406481275E+03 -0.25526925161E+02 -0.10736288053E+03  0.18276297375E+03  0.90626216092E+02 0.  0.
         23    2    1    2    0    0 -0.10824157747E+03 -0.13810285222E+02  0.87892378584E-01  0.14029612819E+03  0.88181816658E+02 0.  0.
        -11    1    4    4    0    0  0.70942941224E+01 -0.20789914222E+02 -0.10341479323E+02  0.24279533295E+02  0.00000000000E+00 0.  1.
         11    1    4    4    0    0 -0.11533587159E+03  0.69796289998E+01  0.10429371701E+02  0.11601659490E+03  0.00000000000E+00 0. -1.
        -13    1    3    3    0    0  0.75544682789E+01 -0.36427530625E+02 -0.46693152613E+02  0.59701637158E+02  0.00000000000E+00 0.  1.
         13    1    3    3    0    0  0.10651034447E+03  0.10900605464E+02 -0.60669727922E+02  0.12306133660E+03  0.00000000000E+00 0. -1.
          1    1    1    2  501    0 -0.58232352790E+01  0.39337210383E+02  0.32906403391E+02  0.51615478047E+02  0.00000000000E+00 0. -1.
<scales pt_clust_5="13000.00000" pt_clust_6="13000.00000" pt_clust_7="13000.00000" pt_clust_8="13000.00000" pt_clust_9="39.76589"></scales>
<clustering>
<clus scale="   39.766">  1  9  2 -1</clus>
<clus scale="   88.182">  5  6 -1 -1</clus>
<clus scale="   90.626">  7  8 -1 -1</clus>
<clus scale="  143.058">  1  5  2 -1</clus>
<clus scale="   39.766">  1  5  2 -1</clus>
</clustering>
</event>
<event>
 9    1  0.1601012E-005  0.2748189E+03  0.7546771E-02  0.1098627E+00
          1   -1    0    0  502    0 -0.00000000000E+00  0.00000000000E+00  0.33916094855E+03  0.33916094855E+03  0.00000000000E+00 0. -1.
         21   -1    0    0  501  502  0.00000000000E+00 -0.00000000000E+00 -0.35415241320E+03  0.35415241320E+03  0.00000000000E+00 0. -1.
         23    2    1    2    0    0  0.24037712258E+03  0.93320690111E+02  0.13697108826E+03  0.30495516259E+03  0.88015111827E+02 0.  0.
         23    2    1    2    0    0 -0.22312825800E+03 -0.14917808104E+03 -0.76948298368E+02  0.29325451975E+03  0.89648498891E+02 0.  0.
        -11    1    4    4    0    0 -0.71240237692E+02 -0.19970562978E+02 -0.55913033109E+02  0.92737598219E+02  0.00000000000E+00 0.  1.
         11    1    4    4    0    0 -0.15188802031E+03 -0.12920751807E+03 -0.21035265258E+02  0.20051692154E+03  0.00000000000E+00 0. -1.
        -13    1    3    3    0    0  0.12293189434E+03  0.61416851243E+01  0.39824601693E+02  0.12936757647E+03  0.00000000000E+00 0. -1.
         13    1    3    3    0    0  0.11744522823E+03  0.87179004987E+02  0.97146486567E+02  0.17558758611E+03  0.00000000000E+00 0.  1.
          1    1    1    2  501    0 -0.17248864576E+02  0.55857390931E+02 -0.75014254547E+02  0.95103679403E+02  0.00000000000E+00 0. -1.
<scales pt_clust_5="13000.00000" pt_clust_6="13000.00000" pt_clust_7="13000.00000" pt_clust_8="13000.00000" pt_clust_9="58.46000"></scales>
<clustering>
<clus scale="   58.460">  2  9  1 -1</clus>
<clus scale="   88.015">  7  8 -1 -1</clus>
<clus scale="   89.648">  5  6 -1 -1</clus>
<clus scale="  274.290">  1  7  2 -1</clus>
<clus scale="   58.460">  2  5  1 -1</clus>
</clustering>
</event>
<event>
 9    1  0.1601012E-005  0.1014947E+03  0.7546771E-02  0.1283268E+00
         -1   -1    0    0    0  501 -0.00000000000E+00  0.00000000000E+00  0.29210199557E+03  0.29210199557E+03  0.00000000000E+00 0.  1.
         21   -1    0    0  501  502  0.00000000000E+00 -0.00000000000E+00 -0.17965210106E+03  0.17965210106E+03  0.00000000000E+00 0.  1.
         23    2    1    2    0    0  0.11603719102E+02  0.47364989729E+01  0.23289466227E+03  0.25411352331E+03  0.10087952366E+03 0.  0.
         23    2    1    2    0    0  0.24851130941E+02 -0.34928564804E+02 -0.13052774373E+02  0.10027977418E+03  0.89711063100E+02 0.  0.
        -11    1    4    4    0    0  0.40751053633E+02  0.81355863406E+01  0.17549379403E+02  0.45108944287E+02  0.00000000000E+00 0.  1.
         11    1    4    4    0    0 -0.15899922692E+02 -0.43064151145E+02 -0.30602153776E+02  0.55170829894E+02  0.00000000000E+00 0. -1.
        -13    1    3    3    0    0  0.30327005302E+02 -0.36267573878E+02  0.65652362637E+02  0.80903009125E+02  0.00000000000E+00 0. -1.
         13    1    3    3    0    0 -0.18723286200E+02  0.41004072850E+02  0.16724229964E+03  0.17321051418E+03  0.00000000000E+00 0.  1.
         -1    1    1    2    0  502 -0.36454850043E+02  0.30192065832E+02 -0.10739199339E+03  0.11736079914E+03  0.00000000000E+00 0.  1.
<scales pt_clust_5="13000.00000" pt_clust_6="13000.00000" pt_clust_7="13000.00000" pt_clust_8="13000.00000" pt_clust_9="47.33410"></scales>
<clustering>
<clus scale="   47.334">  2  9  1 -1</clus>
<clus scale="   89.711">  5  6 -1 -1</clus>
<clus scale="   90.402">  2  5  1 -1</clus>
<clus scale="  100.880">  7  8 -1 -1</clus>
<clus scale="   47.334">  2  5  1 -1</clus>
</clustering>
</event>
<event>
 9    1  0.1601012E-005  0.1100322E+03  0.7546771E-02  0.1262826E+00
         -1   -1    0    0    0  501 -0.00000000000E+00  0.00000000000E+00  0.39542783464E+03  0.39542783464E+03  0.00000000000E+00 0.  1.
         21   -1    0    0  501  502  0.00000000000E+00 -0.00000000000E+00 -0.69438149583E+02  0.69438149583E+02  0.00000000000E+00 0.  1.
         23    2    1    2    0    0 -0.22027249550E+02  0.62222420028E+02  0.29133583104E+03  0.31076835198E+03  0.85694648996E+02 0.  0.
         23    2    1    2    0    0  0.10653197781E+02 -0.44794677423E+02  0.61929678378E+02  0.11978923880E+03  0.91619446188E+02 0.  0.
        -11    1    3    3    0    0 -0.17842988505E+02 -0.16315535576E+02  0.11759757415E+03  0.12005731292E+03  0.00000000000E+00 0.  1.
         11    1    3    3    0    0 -0.41842610450E+01  0.78537955604E+02  0.17373825689E+03  0.19071103906E+03  0.00000000000E+00 0. -1.
        -13    1    4    4    0    0 -0.37969820091E+02 -0.24326233034E+01  0.23399479403E+02  0.44667219862E+02  0.00000000000E+00 0.  1.
         13    1    4    4    0    0  0.48623017872E+02 -0.42362054120E+02  0.38530198974E+02  0.75122018937E+02  0.00000000000E+00 0. -1.
         -1    1    1    2    0  502  0.11374051769E+02 -0.17427742605E+02 -0.27275824364E+02  0.34308393444E+02  0.00000000000E+00 0.  1.
<scales pt_clust_5="13000.00000" pt_clust_6="13000.00000" pt_clust_7="13000.00000" pt_clust_8="13000.00000" pt_clust_9="20.81094"></scales>
<clustering>
<clus scale="   20.811">  2  9  1 -1</clus>
<clus scale="   85.695">  5  6 -1 -1</clus>
<clus scale="   91.619">  7  8 -1 -1</clus>
<clus scale="  105.150">  1  5  2 -1</clus>
<clus scale="   20.811">  2  5  1 -1</clus>
</clustering>
</event>
<event>
 9    1  0.1601012E-005  0.1851311E+03  0.7546771E-02  0.1163328E+00
         -3   -1    0    0    0  501 -0.00000000000E+00  0.00000000000E+00  0.85592860311E+03  0.85592860311E+03  0.00000000000E+00 0.  1.
         21   -1    0    0  501  502  0.00000000000E+00 -0.00000000000E+00 -0.93647292405E+02  0.93647292405E+02  0.00000000000E+00 0.  1.
         23    2    1    2    0    0 -0.87085127577E+02  0.13875422010E+03  0.61316427827E+03  0.64109335114E+03  0.90519057071E+02 0.  0.
         23    2    1    2    0    0  0.26584921001E+02 -0.14372702939E+03  0.32140478646E+02  0.17669287116E+03  0.93931588670E+02 0.  0.
        -13    1    4    4    0    0 -0.30891681822E+02 -0.88673618969E+02  0.12619731748E+02  0.94744732498E+02  0.00000000000E+00 0. -1.
         13    1    4    4    0    0  0.57476602823E+02 -0.55053410423E+02  0.19520746898E+02  0.81948138665E+02  0.00000000000E+00 0.  1.
        -13    1    3    3    0    0 -0.34770175546E+02  0.45677080282E+00  0.69972704165E+02  0.78136758797E+02  0.00000000000E+00 0. -1.
         13    1    3    3    0    0 -0.52314952031E+02  0.13829744930E+03  0.54319157410E+03  0.56295659234E+03  0.00000000000E+00 0.  1.
         -3    1    1    2    0  502  0.60500206576E+02  0.49728092914E+01  0.11697655379E+03  0.13178967321E+03  0.00000000000E+00 0.  1.
<scales pt_clust_5="13000.00000" pt_clust_6="13000.00000" pt_clust_7="13000.00000" pt_clust_8="13000.00000" pt_clust_9="60.70426"></scales>
<clustering>
<clus scale="   60.704">  2  9  1 -1</clus>
<clus scale="   90.519">  7  8 -1 -1</clus>
<clus scale="   93.932">  5  6 -1 -1</clus>
<clus scale="  183.423">  1  7  2 -1</clus>
<clus scale="   60.704">  2  5  1 -1</clus>
</clustering>
</event>
<event>
 9    1  0.1601012E-005  0.1370041E+03  0.7546771E-02  0.1217656E+00
         21   -1    0    0  501  502  0.00000000000E+00  0.00000000000E+00  0.21257617495E+03  0.21257617495E+03  0.00000000000E+00 0. -1.
          1   -1    0    0  502    0 -0.00000000000E+00 -0.00000000000E+00 -0.28435082122E+03  0.28435082122E+03  0.00000000000E+00 0. -1.
         23    2    1    2    0    0 -0.95130673143E+02 -0.44554577349E+02 -0.22716235856E+03  0.26654665967E+03  0.91702940522E+02 0.  0.
         23    2    1    2    0    0  0.76725353106E+02  0.19936505306E+02  0.72336331797E+02  0.14182336569E+03  0.92720429815E+02 0.  0.
        -13    1    3    3    0    0 -0.18298708557E+02 -0.13188392765E+02  0.21705519617E+01  0.22660267748E+02  0.00000000000E+00 0.  1.
         13    1    3    3    0    0 -0.76831964585E+02 -0.31366184584E+02 -0.22933291052E+03  0.24388639192E+03  0.00000000000E+00 0. -1.
        -13    1    4    4    0    0  0.84870557826E+02  0.43575106482E+02  0.66069711716E+02  0.11604743985E+03  0.00000000000E+00 0.  1.
         13    1    4    4    0    0 -0.81452047203E+01 -0.23638601176E+02  0.62666200810E+01  0.25775925836E+02  0.00000000000E+00 0. -1.
          1    1    1    2  501    0  0.18405320037E+02  0.24618072043E+02  0.83051380496E+02  0.88556970810E+02  0.00000000000E+00 0. -1.
<scales pt_clust_5="13000.00000" pt_clust_6="13000.00000" pt_clust_7="13000.00000" pt_clust_8="13000.00000" pt_clust_9="30.73768"></scales>
<clustering>
<clus scale="   30.738">  1  9  2 -1</clus>
<clus scale="   91.703">  5  6 -1 -1</clus>
<clus scale="   92.720">  7  8 -1 -1</clus>
<clus scale="  136.318">  2  5  1 -1</clus>
<clus scale="   30.738">  1  5  2 -1</clus>
</clustering>
</event>
<event>
 9    1  0.1601012E-005  0.9161397E+02  0.7546771E-02  0.1299057E+00
         21   -1    0    0  501  502  0.00000000000E+00  0.00000000000E+00  0.82546703919E+02  0.82546703919E+02  0.00000000000E+00 0. -1.
          1   -1    0    0  502    0 -0.00000000000E+00 -0.00000000000E+00 -0.29028759138E+03  0.29028759138E+03  0.00000000000E+00 0. -1.
         23    2    1    2    0    0 -0.83386787064E+00 -0.10980903237E+02 -0.18483192984E+03  0.20619115766E+03  0.90723071129E+02 0.  0.
         23    2    1    2    0    0 -0.24228546688E+02  0.10299358283E+02 -0.67137033662E+02  0.11580307629E+03  0.90608343621E+02 0.  0.
        -13    1    4    4    0    0 -0.14442169513E+02 -0.24445125760E+02 -0.73821149431E+02  0.79092999292E+02  0.00000000000E+00 0. -1.
         13    1    4    4    0    0 -0.97863771750E+01  0.34744484043E+02  0.66841157688E+01  0.36710076998E+02  0.00000000000E+00 0.  1.
        -13    1    3    3    0    0 -0.38381065090E+02  0.45251446980E-01 -0.14638100160E+03  0.15132913082E+03  0.00000000000E+00 0. -1.
         13    1    3    3    0    0  0.37547197219E+02 -0.11026154684E+02 -0.38450928247E+02  0.54862026842E+02  0.00000000000E+00 0.  1.
          1    1    1    2  501    0  0.25062414559E+02  0.68154495448E+00  0.44228076047E+02  0.50840061348E+02  0.00000000000E+00 0. -1.
<scales pt_clust_5="13000.00000" pt_clust_6="13000.00000" pt_clust_7="13000.00000" pt_clust_8="13000.00000" pt_clust_9="25.07168"></scales>
<clustering>
<clus scale="   25.072">  1  9  2 -1</clus>
<clus scale="   90.608">  5  6 -1 -1</clus>
<clus scale="   90.723">  7  8 -1 -1</clus>
<clus scale="   91.500">  1  5  2 -1</clus>
<clus scale="   25.072">  1  5  2 -1</clus>
</clustering>
</event>
<event>
 9    1  0.1601012E-005  0.1395370E+03  0.7546771E-02  0.1215098E+00
          1   -1    0    0  502    0 -0.00000000000E+00  0.00000000000E+00  0.10351023886E+03  0.10351023886E+03  0.00000000000E+00 0. -1.
         21   -1    0    0  501  502  0.00000000000E+00 -0.00000000000E+00 -0.30945642634E+03  0.30945642634E+03  0.00000000000E+00 0.  1.
         23    2    1    2    0    0 -0.68506726794E+02 -0.88576762626E+02  0.12801293067E+02  0.14412408867E+03  0.89826863111E+02 0.  0.
         23    2    1    2    0    0  0.55677427634E+02  0.69106965167E+02 -0.21146186648E+03  0.24441423024E+03  0.84536657070E+02 0.  0.
        -11    1    4    4    0    0  0.51447485005E+02  0.63911569560E+01 -0.13973291845E+03  0.14904019290E+03  0.00000000000E+00 0.  1.
         11    1    4    4    0    0  0.42299426294E+01  0.62715808211E+02 -0.71728948022E+02  0.95374037340E+02  0.00000000000E+00 0. -1.
        -13    1    3    3    0    0  0.12485857510E+02 -0.21154410067E+02  0.28448048708E+02  0.37585864076E+02  0.00000000000E+00 0.  1.
         13    1    3    3    0    0 -0.80992584304E+02 -0.67422352559E+02 -0.15646755641E+02  0.10653822459E+03  0.00000000000E+00 0. -1.
          1    1    1    2  501    0  0.12829299160E+02  0.19469797459E+02 -0.72856140778E+01  0.24428346291E+02  0.00000000000E+00 0. -1.
<scales pt_clust_5="13000.00000" pt_clust_6="13000.00000" pt_clust_7="13000.00000" pt_clust_8="13000.00000" pt_clust_9="23.31661"></scales>
<clustering>
<clus scale="   23.317">  2  9  1 -1</clus>
<clus scale="   84.537">  5  6 -1 -1</clus>
<clus scale="   89.827">  7  8 -1 -1</clus>
<clus scale="  136.192">  2  5  1 -1</clus>
<clus scale="   23.317">  2  5  1 -1</clus>
</clustering>
</event>
<event>
 9    1  0.1601012E-005  0.2573639E+03  0.7546771E-02  0.1108895E+00
         21   -1    0    0  501  502  0.00000000000E+00  0.00000000000E+00  0.80654298181E+02  0.80654298181E+02  0.00000000000E+00 0.  1.
          2   -1    0    0  502    0 -0.00000000000E+00 -0.00000000000E+00 -0.94455151656E+03  0.94455151656E+03  0.00000000000E+00 0. -1.
         23    2    1    2    0    0  0.98555022151E+02  0.21866952091E+03 -0.38453722937E+03  0.46179563801E+03  0.88639036284E+02 0.  0.
         23    2    1    2    0    0 -0.12767761700E+03 -0.20587212866E+03 -0.38644893981E+03  0.46520446486E+03  0.91583316200E+02 0.  0.
        -13    1    4    4    0    0 -0.58104169494E+02 -0.16298918272E+03 -0.22110789891E+03  0.28076729004E+03  0.00000000000E+00 0.  1.
         13    1    4    4    0    0 -0.69573447503E+02 -0.42882945939E+02 -0.16534104091E+03  0.18443717483E+03  0.00000000000E+00 0. -1.
        -13    1    3    3    0    0  0.43263952640E+02  0.15050919395E+03 -0.30721389148E+03  0.34482627826E+03  0.00000000000E+00 0. -1.
         13    1    3    3    0    0  0.55291069511E+02  0.68160326957E+02 -0.77323337887E+02  0.11696935975E+03  0.00000000000E+00 0.  1.
          2    1    1    2  501    0  0.29122594846E+02 -0.12797392252E+02 -0.92911049203E+02  0.98205711865E+02  0.00000000000E+00 0. -1.
<scales pt_clust_5="13000.00000" pt_clust_6="13000.00000" pt_clust_7="13000.00000" pt_clust_8="13000.00000" pt_clust_9="31.81037"></scales>
<clustering>
<clus scale="   31.810">  1  9  2 -1</clus>
<clus scale="   88.639">  7  8 -1 -1</clus>
<clus scale="   91.583">  5  6 -1 -1</clus>
<clus scale="  256.331">  2  7  1 -1</clus>
<clus scale="   31.810">  1  5  2 -1</clus>
</clustering>
</event>
<event>
 9    1  0.1601012E-005  0.1869785E+03  0.7546771E-02  0.1161347E+00
         21   -1    0    0  501  502  0.00000000000E+00  0.00000000000E+00  0.12753047941E+03  0.12753047941E+03  0.00000000000E+00 0. -1.
          2   -1    0    0  502    0 -0.00000000000E+00 -0.00000000000E+00 -0.39997637287E+03  0.39997637287E+03  0.00000000000E+00 0. -1.
         23    2    1    2    0    0  0.10752762083E+03 -0.99105469163E+02 -0.14838273791E+03  0.22767060055E+03  0.91828003287E+02 0.  0.
         23    2    1    2    0    0 -0.12737645409E+03  0.14644592736E+03 -0.72548043393E+02  0.22711141453E+03  0.92979596222E+02 0.  0.
        -11    1    3    3    0    0  0.27888816818E+02 -0.87647530375E+02 -0.73171848151E+02  0.11753295302E+03  0.00000000000E+00 0.  1.
         11    1    3    3    0    0  0.79638804011E+02 -0.11457938789E+02 -0.75210889755E+02  0.11013764753E+03  0.00000000000E+00 0. -1.
        -11    1    4    4    0    0 -0.10745380565E+03  0.75736872842E+02 -0.12176723951E+02  0.13202525085E+03  0.00000000000E+00 0. -1.
         11    1    4    4    0    0 -0.19922648437E+02  0.70709054520E+02 -0.60371319442E+02  0.95086163679E+02  0.00000000000E+00 0.  1.
          2    1    1    2  501    0  0.19848833261E+02 -0.47340458199E+02 -0.51515112156E+02  0.72724837193E+02  0.00000000000E+00 0. -1.
<scales pt_clust_5="13000.00000" pt_clust_6="13000.00000" pt_clust_7="13000.00000" pt_clust_8="13000.00000" pt_clust_9="51.33320"></scales>
<clustering>
<clus scale="   51.333">  1  9  2 -1</clus>
<clus scale="   91.828">  5  6 -1 -1</clus>
<clus scale="   92.980">  7  8 -1 -1</clus>
<clus scale="  186.409">  2  5  1 -1</clus>
<clus scale="   51.333">  1  5  2 -1</clus>
</clustering>
</event>
<event>
 9    1  0.1601012E-005  0.1012046E+03  0.7546771E-02  0.1277957E+00
          4   -1    0    0  502    0 -0.00000000000E+00  0.00000000000E+00  0.14517694506E+03  0.14517694506E+03  0.00000000000E+00 0. -1.
         21   -1    0    0  501  502  0.00000000000E+00 -0.00000000000E+00 -0.13760900042E+03  0.13760900042E+03  0.00000000000E+00 0. -1.
         23    2    1    2    0    0 -0.60168139943E+02 -0.48910149350E+01  0.61852773623E+02  0.12573765374E+03  0.91323955631E+02 0.  0.
         23    2    1    2    0    0  0.16565019071E+02 -0.10088100929E+02 -0.10713480886E+02  0.93612746214E+02  0.90952723675E+02 0.  0.
        -11    1    4    4    0    0 -0.19967853318E+02 -0.19406045077E+02  0.28060090779E+02  0.39530727873E+02  0.00000000000E+00 0. -1.
         11    1    4    4    0    0  0.36532872389E+02  0.93179441476E+01 -0.38773571665E+02  0.54082018341E+02  0.00000000000E+00 0.  1.
        -11    1    3    3    0    0 -0.37431365550E+02  0.38036414212E+02  0.55077682909E+02  0.76690462821E+02  0.00000000000E+00 0.  1.
         11    1    3    3    0    0 -0.22736774394E+02 -0.42927429147E+02  0.67750907138E+01  0.49047190920E+02  0.00000000000E+00 0. -1.
          4    1    1    2  501    0  0.43603120873E+02  0.14979115864E+02 -0.43571348095E+02  0.63435545530E+02  0.00000000000E+00 0. -1.
<scales pt_clust_5="13000.00000" pt_clust_6="13000.00000" pt_clust_7="13000.00000" pt_clust_8="13000.00000" pt_clust_9="46.10430"></scales>
<clustering>
<clus scale="   46.104">  2  9  1 -1</clus>
<clus scale="   90.953">  5  6 -1 -1</clus>
<clus scale="   91.324">  7  8 -1 -1</clus>
<clus scale="  100.870">  2  5  1 -1</clus>
<clus scale="   46.104">  2  5  1 -1</clus>
</clustering>
</event>
<event>
 9    1  0.1601012E-005  0.1522616E+03  0.7546771E-02  0.1197898E+00
         -4   -1    0    0    0  501 -0.00000000000E+00  0.00000000000E+00  0.58022820346E+02  0.58022820346E+02  0.00000000000E+00 0.  1.
         21   -1    0    0  501  502  0.00000000000E+00 -0.00000000000E+00 -0.10697845199E+04  0.10697845199E+04  0.00000000000E+00 0.  1.
         23    2    1    2    0    0  0.62165793566E+02 -0.68949794649E+02 -0.14547229122E+03  0.19484387695E+03  0.90461532159E+02 0.  0.
         23    2    1    2    0    0 -0.13283789008E+03  0.15042017761E+03 -0.42204820655E+03  0.47581773829E+03  0.89474558094E+02 0.  0.
        -13    1    4    4    0    0 -0.50544334815E+02  0.95686447547E+01 -0.62172988182E+02  0.80695533976E+02  0.00000000000E+00 0. -1.
         13    1    4    4    0    0 -0.82293555268E+02  0.14085153286E+03 -0.35987521837E+03  0.39512220432E+03  0.00000000000E+00 0.  1.
        -13    1    3    3    0    0  0.79864511024E+02 -0.34616074638E+02 -0.12122013116E+03  0.14923448979E+03  0.00000000000E+00 0. -1.
         13    1    3    3    0    0 -0.17698717458E+02 -0.34333720010E+02 -0.24252160053E+02  0.45609387155E+02  0.00000000000E+00 0.  1.
         -4    1    1    2    0  502  0.70672096517E+02 -0.81470382964E+02 -0.44424120178E+03  0.45714572500E+03  0.00000000000E+00 0.  1.
<scales pt_clust_5="13000.00000" pt_clust_6="13000.00000" pt_clust_7="13000.00000" pt_clust_8="13000.00000" pt_clust_9="107.85160"></scales>
<clustering>
<clus scale="   89.475">  5  6 -1 -1</clus>
<clus scale="   90.462">  7  8 -1 -1</clus>
<clus scale="  107.852">  2  9  1 -1</clus>
<clus scale="  151.677">  2  5  1 -1</clus>
<clus scale="  107.852">  2  5  1 -1</clus>
</clustering>
</event>
<event>
 9    1  0.1601012E-005  0.1872345E+03  0.7546771E-02  0.1188964E+00
         21   -1    0    0  501  502  0.00000000000E+00  0.00000000000E+00  0.35802783158E+03  0.35802783158E+03  0.00000000000E+00 0.  1.
          1   -1    0    0  502    0 -0.00000000000E+00 -0.00000000000E+00 -0.15004559215E+03  0.15004559215E+03  0.00000000000E+00 0. -1.
         23    2    1    2    0    0 -0.30288380068E+02 -0.24425775133E+02  0.86306986995E+01  0.99628592218E+02  0.91309161476E+02 0.  0.
         23    2    1    2    0    0  0.16100974928E+03  0.94116293721E+02  0.10632617629E+03  0.23352038159E+03  0.91893942942E+02 0.  0.
        -11    1    3    3    0    0  0.16350386325E+02 -0.44511772448E+02  0.11407569499E+02  0.48772591292E+02  0.00000000000E+00 0.  1.
         11    1    3    3    0    0 -0.46638766392E+02  0.20085997316E+02 -0.27768707991E+01  0.50856000926E+02  0.00000000000E+00 0. -1.
        -13    1    4    4    0    0  0.14524940531E+03  0.54826107069E+02  0.50092867079E+02  0.16313364794E+03  0.00000000000E+00 0.  1.
         13    1    4    4    0    0  0.15760343965E+02  0.39290186652E+02  0.56233309209E+02  0.70386733648E+02  0.00000000000E+00 0. -1.
          1    1    1    2  501    0 -0.13072136921E+03 -0.69690518589E+02  0.93025364446E+02  0.17492444992E+03  0.00000000000E+00 0. -1.
<scales pt_clust_5="13000.00000" pt_clust_6="13000.00000" pt_clust_7="13000.00000" pt_clust_8="13000.00000" pt_clust_9="163.13263"></scales>
<clustering>
<clus scale="   91.309">  5  6 -1 -1</clus>
<clus scale="   91.894">  7  8 -1 -1</clus>
<clus scale="   99.254">  2  5  1 -1</clus>
<clus scale="  163.133">  1  9  2 -1</clus>
<clus scale="  163.133">  1  5  2 -1</clus>
</clustering>
</event>
<event>
 9    1  0.1601012E-005  0.9254407E+02  0.7546771E-02  0.1298274E+00
         21   -1    0    0  501  502  0.00000000000E+00  0.00000000000E+00  0.88129142664E+03  0.88129142664E+03  0.00000000000E+00 0. -1.
          4   -1    0    0  502    0 -0.00000000000E+00 -0.00000000000E+00 -0.37250548521E+02  0.37250548521E+02  0.00000000000E+00 0. -1.
         23    2    1    2    0    0  0.12332095285E+02  0.37347940043E+02  0.13237342182E+03  0.16571081849E+03  0.91599144980E+02 0.  0.
         23    2    1    2    0    0 -0.11568286251E+02  0.48939406354E+02  0.13315036954E+03  0.16791397516E+03  0.89090916510E+02 0.  0.
        -11    1    3    3    0    0 -0.29314782651E+02 -0.14793590330E+02  0.39919448140E+02  0.51689158791E+02  0.00000000000E+00 0. -1.
         11    1    3    3    0    0  0.41646877936E+02  0.52141530374E+02  0.92453973676E+02  0.11402165970E+03  0.00000000000E+00 0.  1.
        -11    1    4    4    0    0 -0.47549147270E+02  0.35990866348E+02  0.55998012653E+02  0.81804897699E+02  0.00000000000E+00 0. -1.
         11    1    4    4    0    0  0.35980861018E+02  0.12948540006E+02  0.77152356892E+02  0.86109077465E+02  0.00000000000E+00 0.  1.
          4    1    1    2  501    0 -0.76380903338E+00 -0.86287346397E+02  0.57851708676E+03  0.58491718151E+03  0.00000000000E+00 0. -1.
<scales pt_clust_5="13000.00000" pt_clust_6="13000.00000" pt_clust_7="13000.00000" pt_clust_8="13000.00000" pt_clust_9="86.29073"></scales>
<clustering>
<clus scale="   86.291">  1  9  2 -1</clus>
<clus scale="   89.091">  7  8 -1 -1</clus>
<clus scale="   90.062">  1  7  2 -1</clus>
<clus scale="   91.599">  5  6 -1 -1</clus>
<clus scale="   86.291">  1  5  2 -1</clus>
</clustering>
</event>
<event>
 9    1  0.1601012E-005  0.1052749E+03  0.7546771E-02  0.1271857E+00
         21   -1    0    0  501  502  0.00000000000E+00  0.00000000000E+00  0.20398193016E+03  0.20398193016E+03  0.00000000000E+00 0. -1.
          1   -1    0    0  502    0 -0.00000000000E+00 -0.00000000000E+00 -0.28290691277E+03  0.28290691277E+03  0.00000000000E+00 0. -1.
         23    2    1    2    0    0  0.36645811095E+02  0.16944526838E+02 -0.23872656196E+03  0.26056280014E+03  0.96294179317E+02 0.  0.
         23    2    1    2    0    0 -0.68321545933E+02 -0.38978573216E+01  0.79655442341E+02  0.13916543793E+03  0.91318139976E+02 0.  0.
        -11    1    4    4    0    0 -0.41844515715E+02  0.42778669755E+02  0.49145273712E+02  0.77435366659E+02  0.00000000000E+00 0. -1.
         11    1    4    4    0    0 -0.26477030218E+02 -0.46676527076E+02  0.30510168629E+02  0.61730071269E+02  0.00000000000E+00 0.  1.
        -11    1    3    3    0    0  0.60567338214E+02  0.72854112266E+01 -0.22099107635E+03  0.22925648410E+03  0.00000000000E+00 0. -1.
         11    1    3    3    0    0 -0.23921527119E+02  0.96591156119E+01 -0.17735485607E+02  0.31306316037E+02  0.00000000000E+00 0.  1.
          1    1    1    2  501    0  0.31675734837E+02 -0.13046669517E+02  0.80146137013E+02  0.87160604869E+02  0.00000000000E+00 0. -1.
<scales pt_clust_5="13000.00000" pt_clust_6="13000.00000" pt_clust_7="13000.00000" pt_clust_8="13000.00000" pt_clust_9="34.25738"></scales>
<clustering>
<clus scale="   34.257">  1  9  2 -1</clus>
<clus scale="   91.318">  5  6 -1 -1</clus>
<clus scale="   96.294">  7  8 -1 -1</clus>
<clus scale="  100.743">  1  5  2 -1</clus>
<clus scale="   34.257">  1  5  2 -1</clus>
</clustering>
</event>
<event>
 9    1  0.1601012E-005  0.1690350E+03  0.7546771E-02  0.1179277E+00
          1   -1    0    0  502    0 -0.00000000000E+00  0.00000000000E+00  0.59583799841E+03  0.59583799841E+03  0.00000000000E+00 0. -1.
         21   -1    0    0  501  502  0.00000000000E+00 -0.00000000000E+00 -0.15665536439E+03  0.15665536439E+03  0.00000000000E+00 0. -1.
         23    2    1    2    0    0 -0.58364464058E+02  0.12550503727E+03  0.39529133680E+03  0.42906273680E+03  0.93175458788E+02 0.  0.
         23    2    1    2    0    0  0.41671936835E+02 -0.14270740849E+03  0.14069243897E+03  0.22370588942E+03  0.90266316098E+02 0.  0.
        -13    1    3    3    0    0  0.13978273663E+02  0.69937361913E+02  0.12657849932E+03  0.14528848274E+03  0.00000000000E+00 0. -1.
         13    1    3    3    0    0 -0.72342737721E+02  0.55567675360E+02  0.26871283747E+03  0.28377425406E+03  0.00000000000E+00 0.  1.
        -13    1    4    4    0    0  0.50740507082E+02 -0.68398440411E+02  0.11792078379E+03  0.14545878096E+03  0.00000000000E+00 0. -1.
         13    1    4    4    0    0 -0.90685702475E+01 -0.74308968076E+02  0.22771655186E+02  0.78247108463E+02  0.00000000000E+00 0.  1.
          1    1    1    2  501    0  0.16692527223E+02  0.17202371215E+02 -0.96801141749E+02  0.99724736573E+02  0.00000000000E+00 0. -1.
<scales pt_clust_5="13000.00000" pt_clust_6="13000.00000" pt_clust_7="13000.00000" pt_clust_8="13000.00000" pt_clust_9="23.97002"></scales>
<clustering>
<clus scale="   23.970">  2  9  1 -1</clus>
<clus scale="   90.266">  7  8 -1 -1</clus>
<clus scale="   93.175">  5  6 -1 -1</clus>
<clus scale="  167.449">  2  7  1 -1</clus>
<clus scale="   23.970">  2  5  1 -1</clus>
</clustering>
</event>
<event>
 9    1  0.1601012E-005  0.9452554E+02  0.7546771E-02  0.1293558E+00
         21   -1    0    0  501  502  0.00000000000E+00  0.00000000000E+00  0.59349224407E+03  0.59349224407E+03  0.00000000000E+00 0. -1.
         -3   -1    0    0    0  501 -0.00000000000E+00 -0.00000000000E+00 -0.58467269840E+02  0.58467269840E+02  0.00000000000E+00 0.  1.
         23    2    1    2    0    0  0.69963011203E+01 -0.11974848068E+02  0.18595923531E+01  0.93884293007E+02  0.92835646032E+02 0.  0.
         23    2    1    2    0    0 -0.36893043529E+02  0.43542718396E+02  0.46554126201E+03  0.47768015121E+03  0.90512956176E+02 0.  0.
        -11    1    4    4    0    0  0.20450126425E+02  0.44155171295E+02  0.24645207749E+03  0.25121009797E+03  0.00000000000E+00 0. -1.
         11    1    4    4    0    0 -0.57343169954E+02 -0.61245289912E+00  0.21908918453E+03  0.22647005324E+03  0.00000000000E+00 0.  1.
        -13    1    3    3    0    0 -0.10512804866E+02 -0.43433737490E+02 -0.22875930245E+02  0.50202756927E+02  0.00000000000E+00 0.  1.
         13    1    3    3    0    0  0.17509105987E+02  0.31458889422E+02  0.24735522598E+02  0.43681536080E+02  0.00000000000E+00 0. -1.
         -3    1    1    2    0  502  0.29896742409E+02 -0.31567870328E+02  0.67624119863E+02  0.80395069693E+02  0.00000000000E+00 0.  1.
<scales pt_clust_5="13000.00000" pt_clust_6="13000.00000" pt_clust_7="13000.00000" pt_clust_8="13000.00000" pt_clust_9="43.47811"></scales>
<clustering>
<clus scale="   43.478">  1  9  2 -1</clus>
<clus scale="   90.513">  5  6 -1 -1</clus>
<clus scale="   92.245">  1  5  2 -1</clus>
<clus scale="   92.836">  7  8 -1 -1</clus>
<clus scale="   43.478">  1  5  2 -1</clus>
</clustering>
</event>
<event>
 9    1  0.1601012E-005  0.1099048E+03  0.7546771E-02  0.1261717E+00
         21   -1    0    0  501  502  0.00000000000E+00  0.00000000000E+00  0.17873936888E+02  0.17873936888E+02  0.00000000000E+00 0.  1.
          2   -1    0    0  502    0 -0.00000000000E+00 -0.00000000000E+00 -0.13004922337E+04  0.13004922337E+04  0.00000000000E+00 0. -1.
         23    2    1    2    0    0 -0.81595139555E+02  0.15246292008E+02 -0.53292282701E+03  0.54720081391E+03  0.92367607816E+02 0.  0.
         23    2    1    2    0    0  0.19586785771E+02 -0.42023963662E+02 -0.30408895321E+03  0.32046895414E+03  0.89892176529E+02 0.  0.
        -11    1    4    4    0    0 -0.35712825421E+02 -0.19964781598E+02 -0.10583465004E+03  0.11346793183E+03  0.00000000000E+00 0.  1.
         11    1    4    4    0    0  0.55299611192E+02 -0.22059182064E+02 -0.19825430317E+03  0.20700102231E+03  0.00000000000E+00 0. -1.
        -11    1    3    3    0    0  0.32174946179E+01 -0.27867400435E+02 -0.94630593946E+02  0.98701031348E+02  0.00000000000E+00 0. -1.
         11    1    3    3    0    0 -0.84812634173E+02  0.43113692443E+02 -0.43829223306E+03  0.44849978256E+03  0.00000000000E+00 0.  1.
          2    1    1    2  501    0  0.62008353784E+02  0.26777671654E+02 -0.44560651655E+03  0.45069640251E+03  0.00000000000E+00 0. -1.
<scales pt_clust_5="13000.00000" pt_clust_6="13000.00000" pt_clust_7="13000.00000" pt_clust_8="13000.00000" pt_clust_9="67.54320"></scales>
<clustering>
<clus scale="   67.543">  1  9  2 -1</clus>
<clus scale="   89.892">  5  6 -1 -1</clus>
<clus scale="   92.368">  7  8 -1 -1</clus>
<clus scale="  107.833">  1  5  2 -1</clus>
<clus scale="   67.543">  1  5  2 -1</clus>
</clustering>
</event>
<event>
 9    1  0.1601012E-005  0.1001862E+03  0.7546771E-02  0.1281212E+00
         -3   -1    0    0    0  501 -0.00000000000E+00  0.00000000000E+00  0.41650681431E+03  0.41650681431E+03  0.00000000000E+00 0.  1.
         21   -1    0    0  501  502  0.00000000000E+00 -0.00000000000E+00 -0.10257873148E+03  0.10257873148E+03  0.00000000000E+00 0.  1.
         23    2    1    2    0    0  0.14509590646E+02 -0.48090706373E+02  0.21741627795E+03  0.24028606457E+03  0.89130862491E+02 0.  0.
         23    2    1    2    0    0 -0.68264899033E+02 -0.25599966880E+02  0.13586406693E+03  0.17945891029E+03  0.91820482760E+02 0.  0.
        -13    1    3    3    0    0  0.43538856713E+02 -0.55612522110E+02  0.13118991842E+03  0.14899389033E+03  0.00000000000E+00 0.  1.
         13    1    3    3    0    0 -0.29029266066E+02  0.75218157371E+01  0.86226359531E+02  0.91292174245E+02  0.00000000000E+00 0. -1.
        -13    1    4    4    0    0 -0.43030767289E+02 -0.20057671797E+02  0.14459367526E+03  0.15218833088E+03  0.00000000000E+00 0.  1.
         13    1    4    4    0    0 -0.25234131745E+02 -0.55422950829E+01 -0.87296083268E+01  0.27270579408E+02  0.00000000000E+00 0. -1.
         -3    1    1    2    0  502  0.53755308387E+02  0.73690673253E+02 -0.39352262052E+02  0.99340570931E+02  0.00000000000E+00 0.  1.
<scales pt_clust_5="13000.00000" pt_clust_6="13000.00000" pt_clust_7="13000.00000" pt_clust_8="13000.00000" pt_clust_9="91.21375"></scales>
<clustering>
<clus scale="   89.131">  5  6 -1 -1</clus>
<clus scale="   91.214">  2  9  1 -1</clus>
<clus scale="   91.820">  7  8 -1 -1</clus>
<clus scale="   97.727">  1  5  2 -1</clus>
<clus scale="   91.214">  2  5  1 -1</clus>
</clustering>
</event>
<event>
 9    1  0.1601012E-005  0.1106747E+03  0.7546771E-02  0.1259883E+00
         21   -1    0    0  501  502  0.00000000000E+00  0.00000000000E+00  0.53432144981E+02  0.53432144981E+02  0.00000000000E+00 0. -1.
          3   -1    0    0  502    0 -0.00000000000E+00 -0.00000000000E+00 -0.33165845769E+03  0.33165845769E+03  0.00000000000E+00 0. -1.
         23    2    1    2    0    0  0.44831562183E+02  0.28371853306E+02 -0.17378416091E+03  0.20357241624E+03  0.91793044643E+02 0.  0.
         23    2    1    2    0    0 -0.66186417613E+02 -0.41754591278E+02 -0.10019716268E+03  0.15596143666E+03  0.90334990716E+02 0.  0.
        -13    1    4    4    0    0 -0.80467753200E+02 -0.56066986850E+02 -0.90847183716E+02  0.13368536610E+03  0.00000000000E+00 0. -1.
         13    1    4    4    0    0  0.14281335587E+02  0.14312395572E+02 -0.93499789612E+01  0.22276070564E+02  0.00000000000E+00 0.  1.
        -13    1    3    3    0    0  0.73201947071E+02  0.15815706553E+02 -0.12696626710E+03  0.14740791909E+03  0.00000000000E+00 0.  1.
         13    1    3    3    0    0 -0.28370384888E+02  0.12556146754E+02 -0.46817893807E+02  0.56164497153E+02  0.00000000000E+00 0. -1.
          3    1    1    2  501    0  0.21354855429E+02  0.13382737971E+02 -0.42449891249E+01  0.25556749768E+02  0.00000000000E+00 0. -1.
<scales pt_clust_5="13000.00000" pt_clust_6="13000.00000" pt_clust_7="13000.00000" pt_clust_8="13000.00000" pt_clust_9="25.20174"></scales>
<clustering>
<clus scale="   25.202">  1  9  2 -1</clus>
<clus scale="   90.335">  5  6 -1 -1</clus>
<clus scale="   91.793">  7  8 -1 -1</clus>
<clus scale="  109.468">  1  5  2 -1</clus>
<clus scale="   25.202">  1  5  2 -1</clus>
</clustering>
</event>
<event>
 9    1  0.1601012E-005  0.9416496E+02  0.7546771E-02  0.1299280E+00
         21   -1    0    0  501  502  0.00000000000E+00  0.00000000000E+00  0.25596929047E+02  0.25596929047E+02  0.00000000000E+00 0. -1.
          1   -1    0    0  502    0 -0.00000000000E+00 -0.00000000000E+00 -0.65175235992E+03  0.65175235992E+03  0.00000000000E+00 0. -1.
         23    2    1    2    0    0  0.18070870780E+02  0.19537144173E+02 -0.41709007269E+03  0.42767681557E+03  0.90747305550E+02 0.  0.
         23    2    1    2    0    0  0.20605784661E+02 -0.34908558866E+02 -0.17171718305E+03  0.19375243896E+03  0.80062543080E+02 0.  0.
        -11    1    4    4    0    0 -0.18822619070E+02 -0.30820799163E+02 -0.13490716529E+03  0.13965728014E+03  0.00000000000E+00 0.  1.
         11    1    4    4    0    0  0.39428403731E+02 -0.40877597035E+01 -0.36810017763E+02  0.54095158821E+02  0.00000000000E+00 0. -1.
        -13    1    3    3    0    0  0.22628712374E+00  0.54930885598E+02 -0.24190357987E+03  0.24806207964E+03  0.00000000000E+00 0.  1.
         13    1    3    3    0    0  0.17844583656E+02 -0.35393741426E+02 -0.17518649282E+03  0.17961473594E+03  0.00000000000E+00 0. -1.
          1    1    1    2  501    0 -0.38676655441E+02  0.15371414694E+02 -0.37348175128E+02  0.55920034434E+02  0.00000000000E+00 0. -1.
<scales pt_clust_5="13000.00000" pt_clust_6="13000.00000" pt_clust_7="13000.00000" pt_clust_8="13000.00000" pt_clust_9="41.61928"></scales>
<clustering>
<clus scale="   41.619">  1  9  2 -1</clus>
<clus scale="   80.063">  5  6 -1 -1</clus>
<clus scale="   83.916">  1  5  2 -1</clus>
<clus scale="   90.747">  7  8 -1 -1</clus>
<clus scale="   41.619">  1  5  2 -1</clus>
</clustering>
</event>
<event>
 9    1  0.1601012E-005  0.2625446E+03  0.7546771E-02  0.1140467E+00
         21   -1    0    0  501  502  0.00000000000E+00  0.00000000000E+00  0.48245084786E+02  0.48245084786E+02  0.00000000000E+00 0.  1.
          2   -1    0    0  502    0 -0.00000000000E+00 -0.00000000000E+00 -0.21575631809E+04  0.21575631809E+04  0.00000000000E+00 0. -1.
         23    2    1    2    0    0  0.20228319622E+02  0.58021145735E+02 -0.20552130854E+03  0.23327145405E+03  0.91656558662E+02 0.  0.
         23    2    1    2    0    0  0.63013401535E+02  0.20026921046E+03 -0.11147808699E+04  0.11381572754E+04  0.92666876911E+02 0.  0.
        -11    1    3    3    0    0 -0.33361454170E+02  0.33282531499E+01 -0.69977257472E+02  0.77594332633E+02  0.00000000000E+00 0. -1.
         11    1    3    3    0    0  0.53589773792E+02  0.54692892585E+02 -0.13554405107E+03  0.15567712142E+03  0.00000000000E+00 0.  1.
        -11    1    4    4    0    0  0.27879279437E+02  0.28261609190E+01 -0.10642530480E+03  0.11005265517E+03  0.00000000000E+00 0. -1.
         11    1    4    4    0    0  0.35134122099E+02  0.19744304954E+03 -0.10083555651E+04  0.10281046202E+04  0.00000000000E+00 0.  1.
          2    1    1    2  501    0 -0.83241721158E+02 -0.25829035620E+03 -0.78901591768E+03  0.83437953630E+03  0.00000000000E+00 0. -1.
<scales pt_clust_5="13000.00000" pt_clust_6="13000.00000" pt_clust_7="13000.00000" pt_clust_8="13000.00000" pt_clust_9="245.64711"></scales>
<clustering>
<clus scale="   91.657">  5  6 -1 -1</clus>
<clus scale="   92.667">  7  8 -1 -1</clus>
<clus scale="  110.348">  2  5  1 -1</clus>
<clus scale="  245.647">  1  9  2 -1</clus>
<clus scale="  245.647">  1  5  2 -1</clus>
</clustering>
</event>
<event>
 9    1  0.1601012E-005  0.1118429E+03  0.7546771E-02  0.1258320E+00
         21   -1    0    0  501  502  0.00000000000E+00  0.00000000000E+00  0.34264749410E+03  0.34264749410E+03  0.00000000000E+00 0. -1.
          1   -1    0    0  502    0 -0.00000000000E+00 -0.00000000000E+00 -0.16116686275E+03  0.16116686275E+03  0.00000000000E+00 0. -1.
         23    2    1    2    0    0  0.38035685042E+02 -0.62365608487E+02 -0.11177466002E+03  0.16111983611E+03  0.90165650368E+02 0.  0.
         23    2    1    2    0    0 -0.26552212332E+00  0.14420230642E+02  0.89400634382E+02  0.12989868985E+03  0.93129923458E+02 0.  0.
        -13    1    3    3    0    0  0.18642261246E+02 -0.41889689084E+02 -0.87335670957E-02  0.45850627392E+02  0.00000000000E+00 0.  1.
         13    1    3    3    0    0  0.19393423796E+02 -0.20475919403E+02 -0.11176592646E+03  0.11526920872E+03  0.00000000000E+00 0. -1.
        -13    1    4    4    0    0  0.40773173385E+00  0.46001738717E+02  0.86757342099E+02  0.98199605998E+02  0.00000000000E+00 0.  1.
         13    1    4    4    0    0 -0.67325385716E+00 -0.31581508074E+02  0.26432922831E+01  0.31699083853E+02  0.00000000000E+00 0. -1.
          1    1    1    2  501    0 -0.37770162919E+02  0.47945377845E+02  0.20385465700E+03  0.21279583089E+03  0.00000000000E+00 0. -1.
<scales pt_clust_5="13000.00000" pt_clust_6="13000.00000" pt_clust_7="13000.00000" pt_clust_8="13000.00000" pt_clust_9="61.03560"></scales>
<clustering>
<clus scale="   61.036">  1  9  2 -1</clus>
<clus scale="   90.166">  5  6 -1 -1</clus>
<clus scale="   93.130">  7  8 -1 -1</clus>
<clus scale="  109.387">  2  5  1 -1</clus>
<clus scale="   61.036">  1  5  2 -1</clus>
</clustering>
</event>
<event>
 9    1  0.1601012E-005  0.9811817E+02  0.7546771E-02  0.1290783E+00
         21   -1    0    0  501  502  0.00000000000E+00  0.00000000000E+00  0.14575041629E+03  0.14575041629E+03  0.00000000000E+00 0.  1.
         -4   -1    0    0    0  501 -0.00000000000E+00 -0.00000000000E+00 -0.14818121300E+03  0.14818121300E+03  0.00000000000E+00 0.  1.
         23    2    1    2    0    0  0.30622489359E+02 -0.15260555129E+02 -0.54986275272E+02  0.10231080324E+03  0.79204725834E+02 0.  0.
         23    2    1    2    0    0 -0.42077604236E+02 -0.71532850968E+01 -0.30053078318E+02  0.10526242425E+03  0.91407309213E+02 0.  0.
        -11    1    4    4    0    0 -0.67801265737E+02 -0.13322107622E+02 -0.57436701387E+01  0.69335993060E+02  0.00000000000E+00 0.  1.
         11    1    4    4    0    0  0.25723661500E+02  0.61688225251E+01 -0.24309408179E+02  0.35926431194E+02  0.00000000000E+00 0. -1.
        -13    1    3    3    0    0  0.22061627210E+00  0.24635454131E+02 -0.44800460127E+02  0.51127639290E+02  0.00000000000E+00 0. -1.
         13    1    3    3    0    0  0.30401873086E+02 -0.39896009260E+02 -0.10185815145E+02  0.51183163952E+02  0.00000000000E+00 0.  1.
         -4    1    1    2    0  502  0.11455114878E+02  0.22413840226E+02  0.82608556880E+02  0.86358401793E+02  0.00000000000E+00 0.  1.
<scales pt_clust_5="13000.00000" pt_clust_6="13000.00000" pt_clust_7="13000.00000" pt_clust_8="13000.00000" pt_clust_9="25.17141"></scales>
<clustering>
<clus scale="   25.171">  1  9  2 -1</clus>
<clus scale="   79.205">  7  8 -1 -1</clus>
<clus scale="   86.864">  2  7  1 -1</clus>
<clus scale="   91.407">  5  6 -1 -1</clus>
<clus scale="   25.171">  1  5  2 -1</clus>
</clustering>
</event>
<event>
 9    1  0.1601012E-005  0.1322002E+03  0.7546771E-02  0.1233216E+00
         -1   -1    0    0    0  501 -0.00000000000E+00  0.00000000000E+00  0.13108122285E+03  0.13108122285E+03  0.00000000000E+00 0.  1.
         21   -1    0    0  501  502  0.00000000000E+00 -0.00000000000E+00 -0.19142946153E+03  0.19142946153E+03  0.00000000000E+00 0. -1.
         23    2    1    2    0    0  0.26199091839E+02 -0.41270506691E+02  0.55109839685E+01  0.12712314669E+03  0.11721892485E+03 0.  0.
         23    2    1    2    0    0  0.40690671846E+01  0.80725687250E+02 -0.12543187813E+02  0.12248025209E+03  0.91164064745E+02 0.  0.
        -13    1    3    3    0    0  0.21377344157E+02  0.18722569964E+02 -0.41815873262E+02  0.50557815676E+02  0.00000000000E+00 0. -1.
         13    1    3    3    0    0  0.48217476817E+01 -0.59993076655E+02  0.47326857231E+02  0.76565331009E+02  0.00000000000E+00 0.  1.
        -13    1    4    4    0    0 -0.12218561861E+02 -0.15990212801E+02  0.90310391122E+01  0.22057647808E+02  0.00000000000E+00 0.  1.
         13    1    4    4    0    0  0.16287629045E+02  0.96715900051E+02 -0.21574226926E+02  0.10042260428E+03  0.00000000000E+00 0. -1.
         -1    1    1    2    0  502 -0.30268159024E+02 -0.39455180559E+02 -0.53316034838E+02  0.72907285606E+02  0.00000000000E+00 0.  1.
<scales pt_clust_5="13000.00000" pt_clust_6="13000.00000" pt_clust_7="13000.00000" pt_clust_8="13000.00000" pt_clust_9="49.72799"></scales>
<clustering>
<clus scale="   49.728">  2  9  1 -1</clus>
<clus scale="   91.164">  7  8 -1 -1</clus>
<clus scale="  109.761">  2  7  1 -1</clus>
<clus scale="  117.219">  5  6 -1 -1</clus>
<clus scale="   49.728">  2  5  1 -1</clus>
</clustering>
</event>
<event>
 9    1  0.1601012E-005  0.1174264E+03  0.7546771E-02  0.1248341E+00
          2   -1    0    0  502    0 -0.00000000000E+00  0.00000000000E+00  0.47176157473E+03  0.47176157473E+03  0.00000000000E+00 0. -1.
         21   -1    0    0  501  502  0.00000000000E+00 -0.00000000000E+00 -0.62694738589E+02  0.62694738589E+02  0.00000000000E+00 0. -1.
         23    2    1    2    0    0  0.69591915775E+02  0.78201253812E+01  0.20854077290E+03  0.23797043375E+03  0.90755078496E+02 0.  0.
         23    2    1    2    0    0 -0.78358069409E+02  0.28112717525E+02  0.22261296112E+03  0.25340635186E+03  0.87908684295E+02 0.  0.
        -13    1    4    4    0    0 -0.40617930033E+02 -0.22923859662E+01  0.19159348700E+03  0.19586509524E+03  0.00000000000E+00 0. -1.
         13    1    4    4    0    0 -0.37740139376E+02  0.30405103491E+02  0.31019474129E+02  0.57541256622E+02  0.00000000000E+00 0.  1.
        -13    1    3    3    0    0  0.14664889127E+02 -0.33190669441E+02  0.12362086799E+03  0.12883632451E+03  0.00000000000E+00 0. -1.
         13    1    3    3    0    0  0.54927026648E+02  0.41010794822E+02  0.84919904913E+02  0.10913410924E+03  0.00000000000E+00 0.  1.
          2    1    1    2  501    0  0.87661536337E+01 -0.35932842906E+02 -0.22086897893E+02  0.43079527706E+02  0.00000000000E+00 0. -1.
<scales pt_clust_5="13000.00000" pt_clust_6="13000.00000" pt_clust_7="13000.00000" pt_clust_8="13000.00000" pt_clust_9="36.98668"></scales>
<clustering>
<clus scale="   36.987">  2  9  1 -1</clus>
<clus scale="   87.909">  5  6 -1 -1</clus>
<clus scale="   90.755">  7  8 -1 -1</clus>
<clus scale="  115.241">  2  5  1 -1</clus>
<clus scale="   36.987">  2  5  1 -1</clus>
</clustering>
</event>
<event>
 9    1  0.1601012E-005  0.9154846E+02  0.7546771E-02  0.1299406E+00
         21   -1    0    0  501  502  0.00000000000E+00  0.00000000000E+00  0.19875272535E+03  0.19875272535E+03  0.00000000000E+00 0.  1.
         -3   -1    0    0    0  501 -0.00000000000E+00 -0.00000000000E+00 -0.10870599703E+03  0.10870599703E+03  0.00000000000E+00 0.  1.
         23    2    1    2    0    0 -0.32455029228E+02 -0.85096195451E+01  0.30569977529E+02  0.10149808262E+03  0.90783229186E+02 0.  0.
         23    2    1    2    0    0 -0.36389345222E+02 -0.38817340237E+02  0.63049405410E+02  0.12234154579E+03  0.90339669885E+02 0.  0.
        -11    1    3    3    0    0 -0.17541464802E+02 -0.35588793626E+02 -0.18281898829E+02  0.43686302704E+02  0.00000000000E+00 0.  1.
         11    1    3    3    0    0 -0.14913564426E+02  0.27079174081E+02  0.48851876358E+02  0.57811779911E+02  0.00000000000E+00 0. -1.
        -13    1    4    4    0    0 -0.79364305101E+01  0.26683108856E+02  0.11936209132E+01  0.27863954464E+02  0.00000000000E+00 0. -1.
         13    1    4    4    0    0 -0.28452914712E+02 -0.65500449094E+02  0.61855784496E+02  0.94477591326E+02  0.00000000000E+00 0.  1.
         -3    1    1    2    0  502  0.68844374450E+02  0.47326959782E+02 -0.35726546208E+01  0.83619093972E+02  0.00000000000E+00 0.  1.
<scales pt_clust_5="13000.00000" pt_clust_6="13000.00000" pt_clust_7="13000.00000" pt_clust_8="13000.00000" pt_clust_9="83.54278"></scales>
<clustering>
<clus scale="   83.543">  1  9  2 -1</clus>
<clus scale="   90.340">  7  8 -1 -1</clus>
<clus scale="   90.783">  5  6 -1 -1</clus>
<clus scale="   91.109">  1  7  2 -1</clus>
<clus scale="   83.543">  1  5  2 -1</clus>
</clustering>
</event>
<event>
 9    1  0.1601012E-005  0.1055085E+03  0.7546771E-02  0.1269135E+00
          1   -1    0    0  502    0 -0.00000000000E+00  0.00000000000E+00  0.59378429330E+02  0.59378429330E+02  0.00000000000E+00 0. -1.
         21   -1    0    0  501  502  0.00000000000E+00 -0.00000000000E+00 -0.27749523911E+03  0.27749523911E+03  0.00000000000E+00 0. -1.
         23    2    1    2    0    0  0.21623825366E+02  0.45309069026E+02 -0.58525125625E+02  0.11947955690E+03  0.91267040208E+02 0.  0.
         23    2    1    2    0    0  0.66359715531E+01 -0.61226906555E+02 -0.96204957374E+02  0.14619108628E+03  0.91234147560E+02 0.  0.
        -13    1    4    4    0    0  0.41210371418E+02 -0.36068968102E+02 -0.19057723044E+02  0.57986739691E+02  0.00000000000E+00 0.  1.
         13    1    4    4    0    0 -0.34574399865E+02 -0.25157938452E+02 -0.77147234330E+02  0.88204346593E+02  0.00000000000E+00 0. -1.
        -13    1    3    3    0    0  0.23661343671E+02  0.67046889194E+02 -0.17835584916E+02  0.73302473520E+02  0.00000000000E+00 0. -1.
         13    1    3    3    0    0 -0.20375183050E+01 -0.21737820168E+02 -0.40689540709E+02  0.46177083381E+02  0.00000000000E+00 0.  1.
          1    1    1    2  501    0 -0.28259796919E+02  0.15917837529E+02 -0.63386726784E+02  0.71203025258E+02  0.00000000000E+00 0. -1.
<scales pt_clust_5="13000.00000" pt_clust_6="13000.00000" pt_clust_7="13000.00000" pt_clust_8="13000.00000" pt_clust_9="32.43445"></scales>
<clustering>
<clus scale="   32.434">  2  9  1 -1</clus>
<clus scale="   91.234">  5  6 -1 -1</clus>
<clus scale="   91.267">  7  8 -1 -1</clus>
<clus scale="  105.480">  2  5  1 -1</clus>
<clus scale="   32.434">  2  5  1 -1</clus>
</clustering>
</event>
<event>
 9    1  0.1601012E-005  0.1645250E+03  0.7546771E-02  0.1203996E+00
         21   -1    0    0  501  502  0.00000000000E+00  0.00000000000E+00  0.57090820199E+03  0.57090820199E+03  0.00000000000E+00 0. -1.
          2   -1    0    0  502    0 -0.00000000000E+00 -0.00000000000E+00 -0.39912403773E+03  0.39912403773E+03  0.00000000000E+00 0. -1.
         23    2    1    2    0    0 -0.35402052006E+02  0.39694037028E+02 -0.24952215292E+03  0.27084420975E+03  0.90919520987E+02 0.  0.
         23    2    1    2    0    0  0.75109326398E+02 -0.16749947795E+03 -0.48634696713E+02  0.21056194092E+03  0.90958843528E+02 0.  0.
        -11    1    4    4    0    0  0.50113023875E+01 -0.20160503429E+02  0.24187982880E+02  0.31884440813E+02  0.00000000000E+00 0.  1.
         11    1    4    4    0    0  0.70098024010E+02 -0.14733897452E+03 -0.72822679593E+02  0.17867750011E+03  0.00000000000E+00 0. -1.
        -13    1    3    3    0    0  0.27124343194E+02 -0.41420905591E+01 -0.88047089607E+02  0.92223515961E+02  0.00000000000E+00 0.  1.
         13    1    3    3    0    0 -0.62526395200E+02  0.43836127587E+02 -0.16147506331E+03  0.17862069379E+03  0.00000000000E+00 0. -1.
          2    1    1    2  501    0 -0.39707274392E+02  0.12780544092E+03  0.46994101388E+03  0.48862608905E+03  0.00000000000E+00 0. -1.
<scales pt_clust_5="13000.00000" pt_clust_6="13000.00000" pt_clust_7="13000.00000" pt_clust_8="13000.00000" pt_clust_9="137.09477"></scales>
<clustering>
<clus scale="   90.920">  7  8 -1 -1</clus>
<clus scale="   90.959">  5  6 -1 -1</clus>
<clus scale="  105.334">  2  7  1 -1</clus>
<clus scale="  137.095">  1  9  2 -1</clus>
<clus scale="  137.095">  1  5  2 -1</clus>
</clustering>
</event>
<event>
 9    1  0.1601012E-005  0.1348586E+03  0.7546771E-02  0.1220799E+00
         21   -1    0    0  501  502  0.00000000000E+00  0.00000000000E+00  0.88217548434E+03  0.88217548434E+03  0.00000000000E+00 0.  1.
          1   -1    0    0  502    0 -0.00000000000E+00 -0.00000000000E+00 -0.35343065589E+02  0.35343065589E+02  0.00000000000E+00 0. -1.
         23    2    1    2    0    0  0.98527044643E+02  0.23726480186E+02  0.20217307475E+03  0.24388795829E+03  0.91306405359E+02 0.  0.
         23    2    1    2    0    0 -0.74016525763E+02 -0.66441515434E+02  0.36237958454E+03  0.38708704805E+03  0.92868177612E+02 0.  0.
        -11    1    4    4    0    0 -0.79647403678E+02 -0.14879861474E+02  0.25976699560E+03  0.27211029233E+03  0.00000000000E+00 0.  1.
         11    1    4    4    0    0  0.56308779146E+01 -0.51561653959E+02  0.10261258894E+03  0.11497675571E+03  0.00000000000E+00 0. -1.
        -11    1    3    3    0    0  0.40286422146E+02  0.21436190613E+02  0.17259655942E+03  0.17852752842E+03  0.00000000000E+00 0.  1.
         11    1    3    3    0    0  0.58240622497E+02  0.22902895732E+01  0.29576515325E+02  0.65360429879E+02  0.00000000000E+00 0. -1.
          1    1    1    2  501    0 -0.24510518880E+02  0.42715035248E+02  0.28227975946E+03  0.28654354359E+03  0.00000000000E+00 0. -1.
<scales pt_clust_5="13000.00000" pt_clust_6="13000.00000" pt_clust_7="13000.00000" pt_clust_8="13000.00000" pt_clust_9="49.24774"></scales>
<clustering>
<clus scale="   49.248">  1  9  2 -1</clus>
<clus scale="   91.306">  7  8 -1 -1</clus>
<clus scale="   92.868">  5  6 -1 -1</clus>
<clus scale="  133.788">  2  7  1 -1</clus>
<clus scale="   49.248">  1  5  2 -1</clus>
</clustering>
</event>
<event>
 9    1  0.1601012E-005  0.1469123E+03  0.7546771E-02  0.1204889E+00
         21   -1    0    0  501  502  0.00000000000E+00  0.00000000000E+00  0.81284707737E+03  0.81284707737E+03  0.00000000000E+00 0. -1.
          1   -1    0    0  502    0 -0.00000000000E+00 -0.00000000000E+00 -0.80608036926E+02  0.80608036926E+02  0.00000000000E+00 0. -1.
         23    2    1    2    0    0  0.11293369302E+03 -0.24716642059E+02  0.25503640684E+02  0.14830569369E+03  0.89326433258E+02 0.  0.
         23    2    1    2    0    0 -0.88692424562E+02  0.87577806916E+02  0.36061739768E+03  0.39253513203E+03  0.92210107523E+02 0.  0.
        -11    1    3    3    0    0  0.82034727474E+02  0.26546598023E+02  0.13911298376E+02  0.87338093641E+02  0.00000000000E+00 0.  1.
         11    1    3    3    0    0  0.30898965547E+02 -0.51263240082E+02  0.11592342307E+02  0.60967600049E+02  0.00000000000E+00 0. -1.
        -11    1    4    4    0    0 -0.42305137075E+02 -0.11319366687E+02  0.13379142489E+03  0.14077641159E+03  0.00000000000E+00 0.  1.
         11    1    4    4    0    0 -0.46387287487E+02  0.98897173603E+02  0.22682597278E+03  0.25175872043E+03  0.00000000000E+00 0. -1.
          1    1    1    2  501    0 -0.24241268459E+02 -0.62861164857E+02  0.34611800209E+03  0.35261428858E+03  0.00000000000E+00 0. -1.
<scales pt_clust_5="13000.00000" pt_clust_6="13000.00000" pt_clust_7="13000.00000" pt_clust_8="13000.00000" pt_clust_9="67.37333"></scales>
<clustering>
<clus scale="   67.373">  1  9  2 -1</clus>
<clus scale="   89.326">  5  6 -1 -1</clus>
<clus scale="   92.210">  7  8 -1 -1</clus>
<clus scale="  145.120">  2  5  1 -1</clus>
<clus scale="   67.373">  1  5  2 -1</clus>
</clustering>
</event>
<event>
 9    1  0.1601012E-005  0.9217824E+02  0.7546771E-02  0.1299386E+00
          3   -1    0    0  502    0 -0.00000000000E+00  0.00000000000E+00  0.78785142193E+03  0.78785142193E+03  0.00000000000E+00 0. -1.
         21   -1    0    0  501  502  0.00000000000E+00 -0.00000000000E+00 -0.18020237031E+02  0.18020237031E+02  0.00000000000E+00 0.  1.
         23    2    1    2    0    0  0.14570314466E+02 -0.10894294146E+02  0.48611926976E+03  0.49444234692E+03  0.88489040489E+02 0.  0.
         23    2    1    2    0    0 -0.42387129364E+01 -0.20997727415E+02  0.19061608186E+03  0.21248146111E+03  0.91405740568E+02 0.  0.
        -13    1    3    3    0    0  0.19909860084E+02 -0.48462880401E+02  0.28114764706E+03  0.28598785420E+03  0.00000000000E+00 0. -1.
         13    1    3    3    0    0 -0.53395456170E+01  0.37568586256E+02  0.20497162271E+03  0.20845449272E+03  0.00000000000E+00 0.  1.
        -13    1    4    4    0    0  0.15370055591E+02 -0.48974737700E+02  0.15433213347E+03  0.16264430812E+03  0.00000000000E+00 0. -1.
         13    1    4    4    0    0 -0.19608768528E+02  0.27977010286E+02  0.36283948383E+02  0.49837152988E+02  0.00000000000E+00 0.  1.
          3    1    1    2  501    0 -0.10331601530E+02  0.31892021560E+02  0.93095833278E+02  0.98947850927E+02  0.00000000000E+00 0. -1.
<scales pt_clust_5="13000.00000" pt_clust_6="13000.00000" pt_clust_7="13000.00000" pt_clust_8="13000.00000" pt_clust_9="33.52377"></scales>
<clustering>
<clus scale="   33.524">  2  9  1 -1</clus>
<clus scale="   88.489">  5  6 -1 -1</clus>
<clus scale="   89.287">  1  5  2 -1</clus>
<clus scale="   91.406">  7  8 -1 -1</clus>
<clus scale="   33.524">  2  5  1 -1</clus>
</clustering>
</event>
<event>
 9    1  0.1601012E-005  0.9403667E+02  0.7546771E-02  0.1294912E+00
         -2   -1    0    0    0  501 -0.00000000000E+00  0.00000000000E+00  0.60893082741E+02  0.60893082741E+02  0.00000000000E+00 0.  1.
         21   -1    0    0  501  502  0.00000000000E+00 -0.00000000000E+00 -0.46170571235E+03  0.46170571235E+03  0.00000000000E+00 0.  1.
         23    2    1    2    0    0  0.19201152093E+02 -0.81053120722E+01 -0.16902096448E+02  0.94191411131E+02  0.90288209313E+02 0.  0.
         23    2    1    2    0    0  0.53995035526E+02  0.33457770816E+02 -0.22314655824E+03  0.24995435182E+03  0.92994114069E+02 0.  0.
        -11    1    3    3    0    0  0.37797628607E+02 -0.39692189623E+02 -0.26833169121E+01  0.54875594166E+02  0.00000000000E+00 0.  1.
         11    1    3    3    0    0 -0.18596476515E+02  0.31586877550E+02 -0.14218779536E+02  0.39315816965E+02  0.00000000000E+00 0. -1.
        -13    1    4    4    0    0  0.53008122785E+02 -0.19492661726E+02 -0.85487181069E+02  0.10245917758E+03  0.00000000000E+00 0.  1.
         13    1    4    4    0    0  0.98691274059E+00  0.52950432542E+02 -0.13765937717E+03  0.14749517425E+03  0.00000000000E+00 0. -1.
         -2    1    1    2    0  502 -0.73196187618E+02 -0.25352458744E+02 -0.16076397492E+03  0.17845303214E+03  0.00000000000E+00 0.  1.
<scales pt_clust_5="13000.00000" pt_clust_6="13000.00000" pt_clust_7="13000.00000" pt_clust_8="13000.00000" pt_clust_9="77.46244"></scales>
<clustering>
<clus scale="   77.462">  2  9  1 -1</clus>
<clus scale="   90.288">  5  6 -1 -1</clus>
<clus scale="   91.362">  1  5  2 -1</clus>
<clus scale="   92.994">  7  8 -1 -1</clus>
<clus scale="   77.462">  2  5  1 -1</clus>
</clustering>
</event>
<event>
 9    1  0.1601012E-005  0.1746294E+03  0.7546771E-02  0.1173185E+00
         21   -1    0    0  501  502  0.00000000000E+00  0.00000000000E+00  0.45676345334E+03  0.45676345334E+03  0.00000000000E+00 0.  1.
         -2   -1    0    0    0  501 -0.00000000000E+00 -0.00000000000E+00 -0.14110011857E+03  0.14110011857E+03  0.00000000000E+00 0.  1.
         23    2    1    2    0    0  0.12945741672E+03 -0.57713743586E+02 -0.84925565497E+01  0.16866589791E+03  0.91027263273E+02 0.  0.
         23    2    1    2    0    0 -0.18487916450E+03  0.92612984814E+01  0.25857262046E+03  0.33060571196E+03  0.90411612158E+02 0.  0.
        -13    1    3    3    0    0  0.23228544527E+02 -0.41659198776E+02 -0.33590022052E+02  0.58338183936E+02  0.00000000000E+00 0.  1.
         13    1    3    3    0    0  0.10622887219E+03 -0.16054544810E+02  0.25097465502E+02  0.11032771398E+03  0.00000000000E+00 0. -1.
        -13    1    4    4    0    0 -0.36175322849E+02  0.35855523721E+02  0.96048731959E+02  0.10871812855E+03  0.00000000000E+00 0. -1.
         13    1    4    4    0    0 -0.14870384165E+03 -0.26594225239E+02  0.16252388850E+03  0.22188758341E+03  0.00000000000E+00 0.  1.
         -2    1    1    2    0  502  0.55421747778E+02  0.48452445104E+02  0.65583270849E+02  0.98591962038E+02  0.00000000000E+00 0.  1.
<scales pt_clust_5="13000.00000" pt_clust_6="13000.00000" pt_clust_7="13000.00000" pt_clust_8="13000.00000" pt_clust_9="73.61528"></scales>
<clustering>
<clus scale="   73.615">  1  9  2 -1</clus>
<clus scale="   90.412">  7  8 -1 -1</clus>
<clus scale="   91.027">  5  6 -1 -1</clus>
<clus scale="  174.309">  1  7  2 -1</clus>
<clus scale="   73.615">  1  5  2 -1</clus>
</clustering>
</event>
<event>
 9    1  0.1601012E-005  0.1151182E+03  0.7546771E-02  0.1252561E+00
         21   -1    0    0  501  502  0.00000000000E+00  0.00000000000E+00  0.78867789365E+02  0.78867789365E+02  0.00000000000E+00 0. -1.
          1   -1    0    0  502    0 -0.00000000000E+00 -0.00000000000E+00 -0.42996189964E+03  0.42996189964E+03  0.00000000000E+00 0. -1.
         23    2    1    2    0    0 -0.63402437053E+02 -0.36043866459E+02 -0.34719804926E+03  0.36558705095E+03  0.88251782310E+02 0.  0.
         23    2    1    2    0    0  0.57113642778E+02  0.61988194033E+01 -0.17972402816E+02  0.10965068716E+03  0.91650817660E+02 0.  0.
        -11    1    4    4    0    0  0.58313023982E+02  0.39290837933E+02 -0.27012735058E+02  0.75325072630E+02  0.00000000000E+00 0.  1.
         11    1    4    4    0    0 -0.11993812041E+01 -0.33092018530E+02  0.90403322415E+01  0.34325614527E+02  0.00000000000E+00 0. -1.
        -11    1    3    3    0    0 -0.63914292190E+01 -0.49034412175E+02 -0.99877339266E+02  0.11144822495E+03  0.00000000000E+00 0.  1.
         11    1    3    3    0    0 -0.57011007834E+02  0.12990545715E+02 -0.24732070999E+03  0.25413882600E+03  0.00000000000E+00 0. -1.
          1    1    1    2  501    0  0.62887942757E+01  0.29845047056E+02  0.14076341792E+02  0.33591950903E+02  0.00000000000E+00 0. -1.
<scales pt_clust_5="13000.00000" pt_clust_6="13000.00000" pt_clust_7="13000.00000" pt_clust_8="13000.00000" pt_clust_9="30.50042"></scales>
<clustering>
<clus scale="   30.500">  1  9  2 -1</clus>
<clus scale="   88.252">  7  8 -1 -1</clus>
<clus scale="   91.651">  5  6 -1 -1</clus>
<clus scale="  112.431">  2  7  1 -1</clus>
<clus scale="   30.500">  1  5  2 -1</clus>
</clustering>
</event>
<event>
 9    1  0.1601012E-005  0.1090932E+03  0.7546771E-02  0.1267653E+00
          1   -1    0    0  502    0 -0.00000000000E+00  0.00000000000E+00  0.94285969755E+02  0.94285969755E+02  0.00000000000E+00 0. -1.
         21   -1    0    0  501  502  0.00000000000E+00 -0.00000000000E+00 -0.31789974615E+03  0.31789974615E+03  0.00000000000E+00 0. -1.
         23    2    1    2    0    0 -0.41494051291E+01 -0.18603459828E+02 -0.28786064411E+01  0.10718423738E+03  0.10543655953E+03 0.  0.
         23    2    1    2    0    0 -0.77703482595E+02  0.21343176219E+02 -0.10057926390E+03  0.15958881390E+03  0.94122467119E+02 0.  0.
        -11    1    3    3    0    0 -0.26967690858E+02 -0.42507435436E+02  0.31591623594E+02  0.59432054473E+02  0.00000000000E+00 0.  1.
         11    1    3    3    0    0  0.22818285729E+02  0.23903975608E+02 -0.34470230035E+02  0.47752182904E+02  0.00000000000E+00 0. -1.
        -13    1    4    4    0    0  0.20069890270E+02  0.14428760301E+02 -0.12003496071E+02  0.27478601442E+02  0.00000000000E+00 0.  1.
         13    1    4    4    0    0 -0.97773372866E+02  0.69144159177E+01 -0.88575767827E+02  0.13211021246E+03  0.00000000000E+00 0. -1.
          1    1    1    2  501    0  0.81852887724E+02 -0.27397163911E+01 -0.12015590606E+03  0.14541266463E+03  0.00000000000E+00 0. -1.
<scales pt_clust_5="13000.00000" pt_clust_6="13000.00000" pt_clust_7="13000.00000" pt_clust_8="13000.00000" pt_clust_9="81.89873"></scales>
<clustering>
<clus scale="   81.899">  2  9  1 -1</clus>
<clus scale="   94.122">  7  8 -1 -1</clus>
<clus scale="   98.201">  2  7  1 -1</clus>
<clus scale="  105.437">  5  6 -1 -1</clus>
<clus scale="   81.899">  2  5  1 -1</clus>
</clustering>
</event>
<event>
 9    1  0.1601012E-005  0.1619127E+03  0.7546771E-02  0.1198319E+00
          2   -1    0    0  502    0 -0.00000000000E+00  0.00000000000E+00  0.15154838363E+04  0.15154838363E+04  0.00000000000E+00 0. -1.
         21   -1    0    0  501  502  0.00000000000E+00 -0.00000000000E+00 -0.32993110503E+02  0.32993110503E+02  0.00000000000E+00 0. -1.
         23    2    1    2    0    0 -0.12290123167E+02  0.82369125252E+02  0.49842310804E+03  0.51385497012E+03  0.93196651059E+02 0.  0.
         23    2    1    2    0    0  0.13905523419E+03 -0.86412336333E+02  0.67678596151E+03  0.70219490620E+03  0.90746892861E+02 0.  0.
        -11    1    3    3    0    0 -0.19832218924E+02 -0.15629130031E+02  0.73634042169E+02  0.77843167838E+02  0.00000000000E+00 0. -1.
         11    1    3    3    0    0  0.75420957578E+01  0.97998255283E+02  0.42478906587E+03  0.43601180229E+03  0.00000000000E+00 0.  1.
        -13    1    4    4    0    0  0.11982710609E+03 -0.60186328575E+02  0.63624939194E+03  0.65022628234E+03  0.00000000000E+00 0. -1.
         13    1    4    4    0    0  0.19228128091E+02 -0.26226007758E+02  0.40536569571E+02  0.51968623856E+02  0.00000000000E+00 0.  1.
          2    1    1    2  501    0 -0.12676511102E+03  0.40432110808E+01  0.30728165627E+03  0.33242707051E+03  0.00000000000E+00 0. -1.
<scales pt_clust_5="13000.00000" pt_clust_6="13000.00000" pt_clust_7="13000.00000" pt_clust_8="13000.00000" pt_clust_9="134.09221"></scales>
<clustering>
<clus scale="   90.747">  7  8 -1 -1</clus>
<clus scale="   93.197">  5  6 -1 -1</clus>
<clus scale="  124.985">  1  5  2 -1</clus>
<clus scale="  134.092">  2  9  1 -1</clus>
<clus scale="  134.092">  2  5  1 -1</clus>
</clustering>
</event>
<event>
 9    1  0.1601012E-005  0.1297369E+03  0.7546771E-02  0.1228170E+00
          1   -1    0    0  502    0 -0.00000000000E+00  0.00000000000E+00  0.17204434695E+03  0.17204434695E+03  0.00000000000E+00 0. -1.
         21   -1    0    0  501  502  0.00000000000E+00 -0.00000000000E+00 -0.18243370282E+03  0.18243370282E+03  0.00000000000E+00 0. -1.
         23    2    1    2    0    0 -0.71282335448E+02  0.77392888897E+02  0.85784994543E+02  0.16409031702E+03  0.92172318258E+02 0.  0.
         23    2    1    2    0    0  0.56859903178E+02 -0.29531717418E+02 -0.48686097783E+02  0.12143969126E+03  0.90951039422E+02 0.  0.
        -11    1    4    4    0    0 -0.83308190503E+01 -0.23251416288E+02  0.15967354602E+02  0.29410666746E+02  0.00000000000E+00 0.  1.
         11    1    4    4    0    0  0.65190722229E+02 -0.62803011301E+01 -0.64653452385E+02  0.92029024510E+02  0.00000000000E+00 0. -1.
        -13    1    3    3    0    0  0.18807612985E+02  0.21284303436E+02  0.38641180101E+02  0.47957154612E+02  0.00000000000E+00 0.  1.
         13    1    3    3    0    0 -0.90089948433E+02  0.56108585461E+02  0.47143814443E+02  0.11613316241E+03  0.00000000000E+00 0. -1.
          1    1    1    2  501    0  0.14422432269E+02 -0.47861171479E+02 -0.47488252630E+02  0.68948041493E+02  0.00000000000E+00 0. -1.
<scales pt_clust_5="13000.00000" pt_clust_6="13000.00000" pt_clust_7="13000.00000" pt_clust_8="13000.00000" pt_clust_9="49.98698"></scales>
<clustering>
<clus scale="   49.987">  2  9  1 -1</clus>
<clus scale="   90.951">  5  6 -1 -1</clus>
<clus scale="   92.172">  7  8 -1 -1</clus>
<clus scale="  128.872">  2  5  1 -1</clus>
<clus scale="   49.987">  2  5  1 -1</clus>
</clustering>
</event>
<event>
 9    1  0.1601012E-005  0.1005221E+03  0.7546771E-02  0.1284016E+00
          1   -1    0    0  502    0 -0.00000000000E+00  0.00000000000E+00  0.26003624780E+03  0.26003624780E+03  0.00000000000E+00 0. -1.
         21   -1    0    0  501  502  0.00000000000E+00 -0.00000000000E+00 -0.54266146292E+02  0.54266146292E+02  0.00000000000E+00 0.  1.
         23    2    1    2    0    0  0.34914792947E+01  0.66129764369E+01  0.14202790677E+03  0.17352295670E+03  0.99410101670E+02 0.  0.
         23    2    1    2    0    0 -0.21220777529E+02 -0.23237232301E+02  0.32501550191E+02  0.10119823263E+03  0.90523152612E+02 0.  0.
        -11    1    3    3    0    0 -0.39555661654E+02  0.30962903025E+02  0.71141708303E+02  0.87089002709E+02  0.00000000000E+00 0.  1.
         11    1    3    3    0    0  0.43047140949E+02 -0.24349926588E+02  0.70886198470E+02  0.86433953989E+02  0.00000000000E+00 0. -1.
        -11    1    4    4    0    0 -0.15462593962E+02  0.32292931831E+02 -0.14923737579E+01  0.35835072732E+02  0.00000000000E+00 0.  1.
         11    1    4    4    0    0 -0.57581835670E+01 -0.55530164132E+02  0.33993923949E+02  0.65363159898E+02  0.00000000000E+00 0. -1.
          1    1    1    2  501    0  0.17729298234E+02  0.16624255864E+02  0.31240644540E+02  0.39581204759E+02  0.00000000000E+00 0. -1.
<scales pt_clust_5="13000.00000" pt_clust_6="13000.00000" pt_clust_7="13000.00000" pt_clust_8="13000.00000" pt_clust_9="24.30421"></scales>
<clustering>
<clus scale="   24.304">  2  9  1 -1</clus>
<clus scale="   90.523">  7  8 -1 -1</clus>
<clus scale="   91.743">  2  7  1 -1</clus>
<clus scale="   99.410">  5  6 -1 -1</clus>
<clus scale="   24.304">  2  5  1 -1</clus>
</clustering>
</event>
<event>
 9    1  0.1601012E-005  0.1543048E+03  0.7546771E-02  0.1195436E+00
         21   -1    0    0  501  502  0.00000000000E+00  0.00000000000E+00  0.99417878248E+02  0.99417878248E+02  0.00000000000E+00 0. -1.
         -1   -1    0    0    0  501 -0.00000000000E+00 -0.00000000000E+00 -0.33435088941E+03  0.33435088941E+03  0.00000000000E+00 0.  1.
         23    2    1    2    0    0  0.62538549969E+02 -0.86067177791E+02 -0.60507791539E+02  0.15346689614E+03  0.92586532764E+02 0.  0.
         23    2    1    2    0    0 -0.80863239061E+02  0.11459988858E+03 -0.93911349578E+02  0.19293830311E+03  0.93455065847E+02 0.  0.
        -13    1    4    4    0    0 -0.85212318927E+02  0.49031547309E+02 -0.34031516594E+02  0.10403545574E+03  0.00000000000E+00 0. -1.
         13    1    4    4    0    0  0.43490798653E+01  0.65568341271E+02 -0.59879832985E+02  0.88902847373E+02  0.00000000000E+00 0.  1.
        -13    1    3    3    0    0  0.66383155930E+02 -0.47093699260E+02 -0.90267135036E-04  0.81391276567E+02  0.00000000000E+00 0. -1.
         13    1    3    3    0    0 -0.38446059613E+01 -0.38973478531E+02 -0.60507701272E+02  0.72075619575E+02  0.00000000000E+00 0.  1.
         -1    1    1    2    0  502  0.18324689093E+02 -0.28532710789E+02 -0.80513870041E+02  0.87363568404E+02  0.00000000000E+00 0.  1.
<scales pt_clust_5="13000.00000" pt_clust_6="13000.00000" pt_clust_7="13000.00000" pt_clust_8="13000.00000" pt_clust_9="33.91034"></scales>
<clustering>
<clus scale="   33.910">  1  9  2 -1</clus>
<clus scale="   92.587">  7  8 -1 -1</clus>
<clus scale="   93.455">  5  6 -1 -1</clus>
<clus scale="  153.780">  2  7  1 -1</clus>
<clus scale="   33.910">  1  5  2 -1</clus>
</clustering>
</event>
<event>
 9    1  0.1601012E-005  0.1106995E+03  0.7546771E-02  0.1259520E+00
         21   -1    0    0  501  502  0.00000000000E+00  0.00000000000E+00  0.93818879345E+02  0.93818879345E+02  0.00000000000E+00 0. -1.
         -3   -1    0    0    0  501 -0.00000000000E+00 -0.00000000000E+00 -0.16074009246E+03  0.16074009246E+03  0.00000000000E+00 0.  1.
         23    2    1    2    0    0  0.31815131790E+02  0.32888438532E+02 -0.30502011968E+02  0.11032132229E+03  0.95637698724E+02 0.  0.
         23    2    1    2    0    0 -0.53348952854E+02 -0.41147363390E+02 -0.29804617703E+02  0.12024456711E+03  0.95032754344E+02 0.  0.
        -13    1    4    4    0    0 -0.88456879557E+01 -0.64610403034E+02 -0.24470013442E+02  0.69652939159E+02  0.00000000000E+00 0.  1.
         13    1    4    4    0    0 -0.44503264898E+02  0.23463039645E+02 -0.53346042614E+01  0.50591627950E+02  0.00000000000E+00 0. -1.
        -13    1    3    3    0    0  0.27291577729E+02  0.55975077347E+02  0.10399907446E+02  0.63136341150E+02  0.00000000000E+00 0. -1.
         13    1    3    3    0    0  0.45235540614E+01 -0.23086638815E+02 -0.40901919414E+02  0.47184981137E+02  0.00000000000E+00 0.  1.
         -3    1    1    2    0  502  0.21533821064E+02  0.82589248577E+01 -0.66145834453E+01  0.23993082411E+02  0.00000000000E+00 0.  1.
<scales pt_clust_5="13000.00000" pt_clust_6="13000.00000" pt_clust_7="13000.00000" pt_clust_8="13000.00000" pt_clust_9="23.06330"></scales>
<clustering>
<clus scale="   23.063">  1  9  2 -1</clus>
<clus scale="   95.033">  5  6 -1 -1</clus>
<clus scale="   95.638">  7  8 -1 -1</clus>
<clus scale="  110.177">  1  5  2 -1</clus>
<clus scale="   23.063">  1  5  2 -1</clus>
</clustering>
</event>
<event>
 9    1  0.1601012E-005  0.1525370E+03  0.7546771E-02  0.1197590E+00
          2   -1    0    0  502    0 -0.00000000000E+00  0.00000000000E+00  0.16841300713E+03  0.16841300713E+03  0.00000000000E+00 0. -1.
         21   -1    0    0  501  502  0.00000000000E+00 -0.00000000000E+00 -0.29600253592E+03  0.29600253592E+03  0.00000000000E+00 0. -1.
         23    2    1    2    0    0 -0.43448225156E+02  0.12973201250E+03  0.85552647523E+02  0.18445354894E+03  0.89362815989E+02 0.  0.
         23    2    1    2    0    0  0.34239524017E+02 -0.74553533252E+02 -0.11947161717E+03  0.17085819765E+03  0.90490231914E+02 0.  0.
        -13    1    4    4    0    0  0.64447336641E+02 -0.38440776004E+02 -0.71852893044E+02  0.10389413217E+03  0.00000000000E+00 0. -1.
         13    1    4    4    0    0 -0.30207812623E+02 -0.36112757248E+02 -0.47618724122E+02  0.66964065487E+02  0.00000000000E+00 0.  1.
        -13    1    3    3    0    0 -0.13554680930E+02  0.11880346449E+03  0.93333627630E+02  0.15168770088E+03  0.00000000000E+00 0. -1.
         13    1    3    3    0    0 -0.29893544225E+02  0.10928548008E+02 -0.77809801062E+01  0.32765848064E+02  0.00000000000E+00 0.  1.
          2    1    1    2  501    0  0.92087011381E+01 -0.55178479249E+02 -0.93670559152E+02  0.10910379645E+03  0.00000000000E+00 0. -1.
<scales pt_clust_5="13000.00000" pt_clust_6="13000.00000" pt_clust_7="13000.00000" pt_clust_8="13000.00000" pt_clust_9="55.94162"></scales>
<clustering>
<clus scale="   55.942">  2  9  1 -1</clus>
<clus scale="   89.363">  7  8 -1 -1</clus>
<clus scale="   90.490">  5  6 -1 -1</clus>
<clus scale="  151.871">  1  7  2 -1</clus>
<clus scale="   55.942">  2  5  1 -1</clus>
</clustering>
</event>
<event>
 9    1  0.1601012E-005  0.1003155E+03  0.7546771E-02  0.1279996E+00
         -1   -1    0    0    0  501 -0.00000000000E+00  0.00000000000E+00  0.21048530737E+03  0.21048530737E+03  0.00000000000E+00 0.  1.
         21   -1    0    0  501  502  0.00000000000E+00 -0.00000000000E+00 -0.15507126300E+03  0.15507126300E+03  0.00000000000E+00 0. -1.
         23    2    1    2    0    0  0.15275736220E+02  0.34468288253E+02  0.13831817470E+03  0.16998845293E+03  0.91338631843E+02 0.  0.
         23    2    1    2    0    0 -0.53080488743E+02 -0.52994343156E+02 -0.95639540299E+02  0.15158397609E+03  0.90580579848E+02 0.  0.
        -11    1    3    3    0    0  0.14537970175E+01  0.64277538898E+02  0.76074713581E+02  0.99604606214E+02  0.00000000000E+00 0.  1.
         11    1    3    3    0    0  0.13821939203E+02 -0.29809250645E+02  0.62243461117E+02  0.70383846720E+02  0.00000000000E+00 0. -1.
        -13    1    4    4    0    0 -0.10123921250E+02 -0.27220979370E+02  0.13099723135E+02  0.31860292615E+02  0.00000000000E+00 0.  1.
         13    1    4    4    0    0 -0.42956567493E+02 -0.25773363787E+02 -0.10873926343E+03  0.11972368347E+03  0.00000000000E+00 0. -1.
         -1    1    1    2    0  502  0.37804752522E+02  0.18526054903E+02  0.12735409973E+02  0.43984141355E+02  0.00000000000E+00 0.  1.
<scales pt_clust_5="13000.00000" pt_clust_6="13000.00000" pt_clust_7="13000.00000" pt_clust_8="13000.00000" pt_clust_9="42.10007"></scales>
<clustering>
<clus scale="   42.100">  2  9  1 -1</clus>
<clus scale="   90.581">  7  8 -1 -1</clus>
<clus scale="   91.339">  5  6 -1 -1</clus>
<clus scale="   99.626">  2  7  1 -1</clus>
<clus scale="   42.100">  2  5  1 -1</clus>
</clustering>
</event>
<event>
 9    1  0.1601012E-005  0.1246210E+03  0.7546771E-02  0.1236138E+00
          1   -1    0    0  502    0 -0.00000000000E+00  0.00000000000E+00  0.24882525667E+03  0.24882525667E+03  0.00000000000E+00 0. -1.
         21   -1    0    0  501  502  0.00000000000E+00 -0.00000000000E+00 -0.79520399721E+02  0.79520399721E+02  0.00000000000E+00 0.  1.
         23    2    1    2    0    0 -0.24464501631E+02  0.69025185969E+02  0.64877562221E+02  0.13421721591E+03  0.91881308381E+02 0.  0.
         23    2    1    2    0    0  0.53359428321E+02 -0.80887614052E+02  0.84722307037E+02  0.15719714578E+03  0.90238786740E+02 0.  0.
        -13    1    3    3    0    0 -0.57761772491E+02  0.54838614901E+02  0.54693700230E+02  0.96618305152E+02  0.00000000000E+00 0. -1.
         13    1    3    3    0    0  0.33297270861E+02  0.14186571068E+02  0.10183861992E+02  0.37598910762E+02  0.00000000000E+00 0.  1.
        -13    1    4    4    0    0  0.74359241057E+02 -0.68649969635E+02  0.86070731354E+02  0.13285437839E+03  0.00000000000E+00 0.  1.
         13    1    4    4    0    0 -0.20999812736E+02 -0.12237644418E+02 -0.13484243178E+01  0.24342767385E+02  0.00000000000E+00 0. -1.
          1    1    1    2  501    0 -0.28894926691E+02  0.11862428083E+02  0.19704987691E+02  0.36931294702E+02  0.00000000000E+00 0. -1.
<scales pt_clust_5="13000.00000" pt_clust_6="13000.00000" pt_clust_7="13000.00000" pt_clust_8="13000.00000" pt_clust_9="31.23516"></scales>
<clustering>
<clus scale="   31.235">  2  9  1 -1</clus>
<clus scale="   90.239">  7  8 -1 -1</clus>
<clus scale="   91.881">  5  6 -1 -1</clus>
<clus scale="  123.415">  2  7  1 -1</clus>
<clus scale="   31.235">  2  5  1 -1</clus>
</clustering>
</event>
<event>
 9    1  0.1601012E-005  0.9947004E+02  0.7546771E-02  0.1281971E+00
         21   -1    0    0  501  502  0.00000000000E+00  0.00000000000E+00  0.13739448975E+03  0.13739448975E+03  0.00000000000E+00 0.  1.
         -1   -1    0    0    0  501 -0.00000000000E+00 -0.00000000000E+00 -0.16084480221E+03  0.16084480221E+03  0.00000000000E+00 0.  1.
         23    2    1    2    0    0 -0.10198582451E+02  0.44706409637E+02 -0.10522468496E+03  0.14612176655E+03  0.90424898059E+02 0.  0.
         23    2    1    2    0    0  0.94772915042E+01 -0.10654673818E+02  0.48879664849E+02  0.10476667785E+03  0.91561422140E+02 0.  0.
        -13    1    4    4    0    0 -0.99850876083E+01  0.37700747482E+02  0.11623098234E+02  0.40695758352E+02  0.00000000000E+00 0.  1.
         13    1    4    4    0    0  0.19462379112E+02 -0.48355421300E+02  0.37256566615E+02  0.64070919502E+02  0.00000000000E+00 0. -1.
        -13    1    3    3    0    0  0.12973365272E+02  0.45478133280E+02 -0.10292489750E+02  0.48399423120E+02  0.00000000000E+00 0. -1.
         13    1    3    3    0    0 -0.23171947723E+02 -0.77172364304E+00 -0.94932195209E+02  0.97722343432E+02  0.00000000000E+00 0.  1.
         -1    1    1    2    0  502  0.72129094700E+00 -0.34051735819E+02  0.32894707645E+02  0.47350847553E+02  0.00000000000E+00 0.  1.
<scales pt_clust_5="13000.00000" pt_clust_6="13000.00000" pt_clust_7="13000.00000" pt_clust_8="13000.00000" pt_clust_9="34.05937"></scales>
<clustering>
<clus scale="   34.059">  1  9  2 -1</clus>
<clus scale="   90.425">  7  8 -1 -1</clus>
<clus scale="   91.561">  5  6 -1 -1</clus>
<clus scale="   98.425">  2  7  1 -1</clus>
<clus scale="   34.059">  1  5  2 -1</clus>
</clustering>
</event>
<event>
 9    1  0.1601012E-005  0.1061645E+03  0.7546771E-02  0.1268105E+00
         21   -1    0    0  501  502  0.00000000000E+00  0.00000000000E+00  0.32437669082E+03  0.32437669082E+03  0.00000000000E+00 0. -1.
         -1   -1    0    0    0  501 -0.00000000000E+00 -0.00000000000E+00 -0.69636077598E+02  0.69636077598E+02  0.00000000000E+00 0.  1.
         23    2    1    2    0    0  0.58980136316E+02 -0.78375070223E+01  0.18285769294E+02  0.11088037443E+03  0.91760585648E+02 0.  0.
         23    2    1    2    0    0 -0.30063453316E+02  0.35532455875E+02  0.11230614098E+03  0.15268667658E+03  0.92380654127E+02 0.  0.
        -13    1    4    4    0    0  0.18890168988E+02  0.24488775337E+02  0.94508330008E+02  0.99440248606E+02  0.00000000000E+00 0.  1.
         13    1    4    4    0    0 -0.48953622304E+02  0.11043680537E+02  0.17797810975E+02  0.53246427974E+02  0.00000000000E+00 0. -1.
        -13    1    3    3    0    0  0.20985577518E+02  0.23056996067E+02 -0.29165033397E+02  0.42692138673E+02  0.00000000000E+00 0.  1.
         13    1    3    3    0    0  0.37994558797E+02 -0.30894503089E+02  0.47450802691E+02  0.68188235755E+02  0.00000000000E+00 0. -1.
         -1    1    1    2    0  502 -0.28916683000E+02 -0.27694948852E+02  0.12414870295E+03  0.13044571741E+03  0.00000000000E+00 0.  1.
<scales pt_clust_5="13000.00000" pt_clust_6="13000.00000" pt_clust_7="13000.00000" pt_clust_8="13000.00000" pt_clust_9="40.03979"></scales>
<clustering>
<clus scale="   40.040">  1  9  2 -1</clus>
<clus scale="   91.761">  7  8 -1 -1</clus>
<clus scale="   92.381">  5  6 -1 -1</clus>
<clus scale="  105.625">  2  7  1 -1</clus>
<clus scale="   40.040">  1  5  2 -1</clus>
</clustering>
</event>
<event>
 9    1  0.1601012E-005  0.9577916E+02  0.7546771E-02  0.1290071E+00
          4   -1    0    0  502    0 -0.00000000000E+00  0.00000000000E+00  0.12667187065E+03  0.12667187065E+03  0.00000000000E+00 0. -1.
         21   -1    0    0  501  502  0.00000000000E+00 -0.00000000000E+00 -0.15018322444E+03  0.15018322444E+03  0.00000000000E+00 0. -1.
         23    2    1    2    0    0 -0.20773040648E+02 -0.23900390807E+02  0.53907620893E+02  0.11069662922E+03  0.91350775758E+02 0.  0.
         23    2    1    2    0    0  0.37337482426E+02 -0.12774271448E+02 -0.27781290626E+02  0.10225767354E+03  0.90152992647E+02 0.  0.
        -11    1    3    3    0    0  0.25310056501E+02 -0.90121113798E+01 -0.11573014973E+02  0.29253235499E+02  0.00000000000E+00 0.  1.
         11    1    3    3    0    0 -0.46083097149E+02 -0.14888279427E+02  0.65480635866E+02  0.81443393719E+02  0.00000000000E+00 0. -1.
        -13    1    4    4    0    0 -0.17719991173E+02  0.22604178059E+02 -0.22713137341E+02  0.36617394238E+02  0.00000000000E+00 0.  1.
         13    1    4    4    0    0  0.55057473599E+02 -0.35378449507E+02 -0.50681532847E+01  0.65640279298E+02  0.00000000000E+00 0. -1.
          4    1    1    2  501    0 -0.16564441778E+02  0.36674662255E+02 -0.49637684058E+02  0.63900792339E+02  0.00000000000E+00 0. -1.
<scales pt_clust_5="13000.00000" pt_clust_6="13000.00000" pt_clust_7="13000.00000" pt_clust_8="13000.00000" pt_clust_9="40.24191"></scales>
<clustering>
<clus scale="   40.242">  2  9  1 -1</clus>
<clus scale="   90.153">  7  8 -1 -1</clus>
<clus scale="   91.351">  5  6 -1 -1</clus>
<clus scale="   94.637">  2  7  1 -1</clus>
<clus scale="   40.242">  2  5  1 -1</clus>
</clustering>
</event>
<event>
 9    1  0.1601012E-005  0.9674666E+02  0.7546771E-02  0.1288858E+00
         21   -1    0    0  501  502  0.00000000000E+00  0.00000000000E+00  0.88514847005E+03  0.88514847005E+03  0.00000000000E+00 0. -1.
         -3   -1    0    0    0  501 -0.00000000000E+00 -0.00000000000E+00 -0.25906275961E+02  0.25906275961E+02  0.00000000000E+00 0.  1.
         23    2    1    2    0    0 -0.12946299981E+02  0.35533518470E+02  0.10221274840E+03  0.14227274231E+03  0.91454084932E+02 0.  0.
         23    2    1    2    0    0 -0.19214999351E+02 -0.14333706108E+02  0.44193764530E+03  0.45134441315E+03  0.88477260492E+02 0.  0.
        -11    1    4    4    0    0  0.18833695721E+02 -0.39798192849E+02  0.26197658375E+03  0.26565077580E+03  0.00000000000E+00 0.  1.
         11    1    4    4    0    0 -0.38048695072E+02  0.25464486741E+02  0.17996106154E+03  0.18569363735E+03  0.00000000000E+00 0. -1.
        -11    1    3    3    0    0 -0.22281524826E+02 -0.21285966442E+02  0.69554422032E+02  0.76074807526E+02  0.00000000000E+00 0. -1.
         11    1    3    3    0    0  0.93352248447E+01  0.56819484912E+02  0.32658326372E+02  0.66197934786E+02  0.00000000000E+00 0.  1.
         -3    1    1    2    0  502  0.32161299332E+02 -0.21199812361E+02  0.31509180039E+03  0.31743759054E+03  0.00000000000E+00 0.  1.
<scales pt_clust_5="13000.00000" pt_clust_6="13000.00000" pt_clust_7="13000.00000" pt_clust_8="13000.00000" pt_clust_9="38.51988"></scales>
<clustering>
<clus scale="   38.520">  1  9  2 -1</clus>
<clus scale="   88.477">  5  6 -1 -1</clus>
<clus scale="   91.454">  7  8 -1 -1</clus>
<clus scale="   93.938">  1  5  2 -1</clus>
<clus scale="   38.520">  1  5  2 -1</clus>
</clustering>
</event>
<event>
 9    1  0.1601012E-005  0.1070237E+03  0.7546771E-02  0.1266630E+00
          1   -1    0    0  502    0 -0.00000000000E+00  0.00000000000E+00  0.74091976479E+03  0.74091976479E+03  0.00000000000E+00 0. -1.
         21   -1    0    0  501  502  0.00000000000E+00 -0.00000000000E+00 -0.24846814565E+02  0.24846814565E+02  0.00000000000E+00 0. -1.
         23    2    1    2    0    0  0.39969928101E+02 -0.22693578037E+02  0.35349671882E+03  0.36783328579E+03  0.90712745957E+02 0.  0.
         23    2    1    2    0    0 -0.43128162668E+02  0.54341043094E+02  0.33996916869E+03  0.35891258400E+03  0.91794443831E+02 0.  0.
        -11    1    4    4    0    0  0.23750000504E+02  0.30115257934E+02  0.71000616546E+02  0.80697452465E+02  0.00000000000E+00 0. -1.
         11    1    4    4    0    0 -0.66878163172E+02  0.24225785159E+02  0.26896855214E+03  0.27821513154E+03  0.00000000000E+00 0.  1.
        -13    1    3    3    0    0  0.67808508055E+02 -0.16327626442E+02  0.20290366924E+03  0.21455648240E+03  0.00000000000E+00 0.  1.
         13    1    3    3    0    0 -0.27838579955E+02 -0.63659515946E+01  0.15059304958E+03  0.15327680339E+03  0.00000000000E+00 0. -1.
          1    1    1    2  501    0  0.31582345674E+01 -0.31647465057E+02  0.22607062711E+02  0.39020709560E+02  0.00000000000E+00 0. -1.
<scales pt_clust_5="13000.00000" pt_clust_6="13000.00000" pt_clust_7="13000.00000" pt_clust_8="13000.00000" pt_clust_9="31.80466"></scales>
<clustering>
<clus scale="   31.805">  2  9  1 -1</clus>
<clus scale="   90.713">  7  8 -1 -1</clus>
<clus scale="   91.794">  5  6 -1 -1</clus>
<clus scale="  106.097">  1  7  2 -1</clus>
<clus scale="   31.805">  2  5  1 -1</clus>
</clustering>
</event>
<event>
 9    1  0.1601012E-005  0.9961647E+02  0.7546771E-02  0.1281736E+00
         21   -1    0    0  501  502  0.00000000000E+00  0.00000000000E+00  0.27874322067E+02  0.27874322067E+02  0.00000000000E+00 0.  1.
          2   -1    0    0  502    0 -0.00000000000E+00 -0.00000000000E+00 -0.61487375138E+03  0.61487375138E+03  0.00000000000E+00 0. -1.
         23    2    1    2    0    0  0.41048830829E+02  0.12774470070E+02 -0.42894350604E+03  0.44091756701E+03  0.92561200941E+02 0.  0.
         23    2    1    2    0    0 -0.15347460258E+02 -0.73513232361E+01 -0.91864392412E+02  0.13061751796E+03  0.91281339362E+02 0.  0.
        -11    1    4    4    0    0  0.29550526373E+02 -0.25432778748E+02 -0.19590425181E+02  0.43633067764E+02  0.00000000000E+00 0.  1.
         11    1    4    4    0    0 -0.44897986631E+02  0.18081455512E+02 -0.72273967231E+02  0.86984450198E+02  0.00000000000E+00 0. -1.
        -11    1    3    3    0    0  0.26902639001E+02 -0.39545795595E+02 -0.19578636238E+03  0.20154384542E+03  0.00000000000E+00 0.  1.
         11    1    3    3    0    0  0.14146191828E+02  0.52320265665E+02 -0.23315714367E+03  0.23937372158E+03  0.00000000000E+00 0. -1.
          2    1    1    2  501    0 -0.25701370571E+02 -0.54231468339E+01 -0.66191530859E+02  0.71212988480E+02  0.00000000000E+00 0. -1.
<scales pt_clust_5="13000.00000" pt_clust_6="13000.00000" pt_clust_7="13000.00000" pt_clust_8="13000.00000" pt_clust_9="26.26731"></scales>
<clustering>
<clus scale="   26.267">  1  9  2 -1</clus>
<clus scale="   91.281">  5  6 -1 -1</clus>
<clus scale="   92.561">  7  8 -1 -1</clus>
<clus scale="   98.428">  1  5  2 -1</clus>
<clus scale="   26.267">  1  5  2 -1</clus>
</clustering>
</event>
<event>
 9    1  0.1601012E-005  0.1109074E+03  0.7546771E-02  0.1258902E+00
         21   -1    0    0  501  502  0.00000000000E+00  0.00000000000E+00  0.40786373673E+03  0.40786373673E+03  0.00000000000E+00 0. -1.
         -3   -1    0    0    0  501 -0.00000000000E+00 -0.00000000000E+00 -0.39112658444E+02  0.39112658444E+02  0.00000000000E+00 0.  1.
         23    2    1    2    0    0 -0.37287314700E+02 -0.45791049996E+02  0.12393815815E+03  0.16524820764E+03  0.91973577648E+02 0.  0.
         23    2    1    2    0    0  0.22171829698E+02  0.64952939510E+02  0.19502078178E+03  0.22627629001E+03  0.91964013139E+02 0.  0.
        -11    1    4    4    0    0 -0.15738956307E+02  0.48526854047E+02  0.17108102180E+03  0.17852531005E+03  0.00000000000E+00 0. -1.
         11    1    4    4    0    0  0.37910786005E+02  0.16426085463E+02  0.23939759979E+02  0.47750979958E+02  0.00000000000E+00 0.  1.
        -11    1    3    3    0    0 -0.65274820566E+02 -0.23126902435E+02  0.10130748732E+03  0.12271455824E+03  0.00000000000E+00 0. -1.
         11    1    3    3    0    0  0.27987505866E+02 -0.22664147561E+02  0.22630670826E+02  0.42533649400E+02  0.00000000000E+00 0.  1.
         -3    1    1    2    0  502  0.15115485002E+02 -0.19161889514E+02  0.49792138360E+02  0.55451897525E+02  0.00000000000E+00 0.  1.
<scales pt_clust_5="13000.00000" pt_clust_6="13000.00000" pt_clust_7="13000.00000" pt_clust_8="13000.00000" pt_clust_9="24.40606"></scales>
<clustering>
<clus scale="   24.406">  1  9  2 -1</clus>
<clus scale="   91.964">  5  6 -1 -1</clus>
<clus scale="   91.974">  7  8 -1 -1</clus>
<clus scale="  110.900">  1  5  2 -1</clus>
<clus scale="   24.406">  1  5  2 -1</clus>
</clustering>
</event>
<event>
 9    1  0.1601012E-005  0.9203555E+02  0.7546771E-02  0.1298882E+00
         21   -1    0    0  501  502  0.00000000000E+00  0.00000000000E+00  0.25333617641E+02  0.25333617641E+02  0.00000000000E+00 0.  1.
          1   -1    0    0  502    0 -0.00000000000E+00 -0.00000000000E+00 -0.46608181492E+03  0.46608181492E+03  0.00000000000E+00 0. -1.
         23    2    1    2    0    0  0.13386268331E+02 -0.11970810704E+02 -0.27015144403E+03  0.28527210754E+03  0.89865900898E+02 0.  0.
         23    2    1    2    0    0 -0.44453611285E+01 -0.87348813530E+01 -0.14805322081E+03  0.17425482615E+03  0.91372473188E+02 0.  0.
        -13    1    3    3    0    0 -0.23044311470E+02  0.23497572635E+02 -0.54150332662E+02  0.63367458039E+02  0.00000000000E+00 0. -1.
         13    1    3    3    0    0  0.36430579801E+02 -0.35468383339E+02 -0.21600111136E+03  0.22190464950E+03  0.00000000000E+00 0.  1.
        -13    1    4    4    0    0  0.27472178945E+02  0.23449966698E+02 -0.27304460278E+02  0.45278638509E+02  0.00000000000E+00 0.  1.
         13    1    4    4    0    0 -0.31917540074E+02 -0.32184848051E+02 -0.12074876053E+03  0.12897618764E+03  0.00000000000E+00 0. -1.
          1    1    1    2  501    0 -0.89409072022E+01  0.20705692057E+02 -0.22543532450E+02  0.31888498875E+02  0.00000000000E+00 0. -1.
<scales pt_clust_5="13000.00000" pt_clust_6="13000.00000" pt_clust_7="13000.00000" pt_clust_8="13000.00000" pt_clust_9="22.55361"></scales>
<clustering>
<clus scale="   22.554">  1  9  2 -1</clus>
<clus scale="   89.866">  5  6 -1 -1</clus>
<clus scale="   90.540">  2  5  1 -1</clus>
<clus scale="   91.372">  7  8 -1 -1</clus>
<clus scale="   22.554">  1  5  2 -1</clus>
</clustering>
</event>
<event>
 9    1  0.1601012E-005  0.9602266E+02  0.7546771E-02  0.1290779E+00
         21   -1    0    0  501  502  0.00000000000E+00  0.00000000000E+00  0.53976010074E+03  0.53976010074E+03  0.00000000000E+00 0. -1.
          1   -1    0    0  502    0 -0.00000000000E+00 -0.00000000000E+00 -0.61124589599E+02  0.61124589599E+02  0.00000000000E+00 0. -1.
         23    2    1    2    0    0 -0.14600386329E+01  0.32636053708E+02  0.19680539544E+01  0.96820078612E+02  0.91120857500E+02 0.  0.
         23    2    1    2    0    0  0.40790888791E+02 -0.13545208474E+02  0.18514143192E+03  0.20927858839E+03  0.87594568697E+02 0.  0.
        -11    1    4    4    0    0  0.20596093975E+02  0.31488173235E+02  0.12972160976E+03  0.13506813162E+03  0.00000000000E+00 0. -1.
         11    1    4    4    0    0  0.20194794817E+02 -0.45033381710E+02  0.55419822152E+02  0.74210456765E+02  0.00000000000E+00 0.  1.
        -13    1    3    3    0    0 -0.30684407843E+02  0.22741599029E+02  0.34868431073E+02  0.51715768355E+02  0.00000000000E+00 0.  1.
         13    1    3    3    0    0  0.29224369210E+02  0.98944546789E+01 -0.32900377119E+02  0.45104310256E+02  0.00000000000E+00 0. -1.
          1    1    1    2  501    0 -0.39330850158E+02 -0.19090845233E+02  0.29152602527E+03  0.29478602334E+03  0.00000000000E+00 0. -1.
<scales pt_clust_5="13000.00000" pt_clust_6="13000.00000" pt_clust_7="13000.00000" pt_clust_8="13000.00000" pt_clust_9="43.71929"></scales>
<clustering>
<clus scale="   43.719">  1  9  2 -1</clus>
<clus scale="   87.595">  5  6 -1 -1</clus>
<clus scale="   91.121">  7  8 -1 -1</clus>
<clus scale="   92.683">  1  5  2 -1</clus>
<clus scale="   43.719">  1  5  2 -1</clus>
</clustering>
</event>
<event>
 9    1  0.1601012E-005  0.1986938E+03  0.7546771E-02  0.1151980E+00
         -1   -1    0    0    0  501 -0.00000000000E+00  0.00000000000E+00  0.18325411451E+04  0.18325411451E+04  0.00000000000E+00 0.  1.
         21   -1    0    0  501  502  0.00000000000E+00 -0.00000000000E+00 -0.38838846973E+02  0.38838846973E+02  0.00000000000E+00 0.  1.
         23    2    1    2    0    0  0.12686256403E+03 -0.11268106602E+03  0.88642473174E+03  0.90824307201E+03  0.10181129612E+03 0.  0.
         23    2    1    2    0    0 -0.77399020393E+02  0.16107038918E+03  0.84988411264E+03  0.87323598972E+03  0.91125244516E+02 0.  0.
        -11    1    3    3    0    0  0.12884361977E+02 -0.51365098856E+02  0.12285580982E+03  0.13378314606E+03  0.00000000000E+00 0. -1.
         11    1    3    3    0    0  0.11397820205E+03 -0.61315967164E+02  0.76356892192E+03  0.77445992594E+03  0.00000000000E+00 0.  1.
        -11    1    4    4    0    0 -0.35156828180E+02  0.12240293477E+03  0.72157265516E+03  0.73272476257E+03  0.00000000000E+00 0.  1.
         11    1    4    4    0    0 -0.42242192213E+02  0.38667454406E+02  0.12831145748E+03  0.14051122714E+03  0.00000000000E+00 0. -1.
         -1    1    1    2    0  502 -0.49463543633E+02 -0.48389323156E+02  0.57393453738E+02  0.89900930341E+02  0.00000000000E+00 0.  1.
<scales pt_clust_5="13000.00000" pt_clust_6="13000.00000" pt_clust_7="13000.00000" pt_clust_8="13000.00000" pt_clust_9="69.19659"></scales>
<clustering>
<clus scale="   69.197">  2  9  1 -1</clus>
<clus scale="   91.125">  7  8 -1 -1</clus>
<clus scale="  101.811">  5  6 -1 -1</clus>
<clus scale="  193.436">  2  7  1 -1</clus>
<clus scale="   69.197">  2  5  1 -1</clus>
</clustering>
</event>
<event>
 9    1  0.1601012E-005  0.3503015E+03  0.7546771E-02  0.1062516E+00
         21   -1    0    0  501  502  0.00000000000E+00  0.00000000000E+00  0.35804079614E+03  0.35804079614E+03  0.00000000000E+00 0.  1.
          1   -1    0    0  502    0 -0.00000000000E+00 -0.00000000000E+00 -0.48975283910E+03  0.48975283910E+03  0.00000000000E+00 0. -1.
         23    2    1    2    0    0 -0.58492645788E+02 -0.32605806809E+03 -0.24334264107E+03  0.42096588609E+03  0.90892149909E+02 0.  0.
         23    2    1    2    0    0  0.61915018152E+02  0.35276054695E+03  0.13250881788E+03  0.39275965454E+03  0.91804610206E+02 0.  0.
        -11    1    4    4    0    0  0.33629359099E+02  0.32849504208E+03  0.10522540110E+03  0.34657223129E+03  0.00000000000E+00 0.  1.
         11    1    4    4    0    0  0.28285659052E+02  0.24265504873E+02  0.27283416783E+02  0.46187423246E+02  0.00000000000E+00 0. -1.
        -11    1    3    3    0    0 -0.62530209755E+02 -0.10525866102E+03 -0.79321810542E+02  0.14588133012E+03  0.00000000000E+00 0.  1.
         11    1    3    3    0    0  0.40375639677E+01 -0.22079940707E+03 -0.16402083053E+03  0.27508455597E+03  0.00000000000E+00 0. -1.
          1    1    1    2  501    0 -0.34223723638E+01 -0.26702478863E+02 -0.20878219775E+02  0.34068094619E+02  0.00000000000E+00 0. -1.
<scales pt_clust_5="13000.00000" pt_clust_6="13000.00000" pt_clust_7="13000.00000" pt_clust_8="13000.00000" pt_clust_9="26.92092"></scales>
<clustering>
<clus scale="   26.921">  1  9  2 -1</clus>
<clus scale="   90.892">  7  8 -1 -1</clus>
<clus scale="   91.805">  5  6 -1 -1</clus>
<clus scale="  350.063">  2  7  1 -1</clus>
<clus scale="   26.921">  1  5  2 -1</clus>
</clustering>
</event>
<event>
 9    1  0.1601012E-005  0.1000662E+03  0.7546771E-02  0.1280315E+00
          1   -1    0    0  502    0 -0.00000000000E+00  0.00000000000E+00  0.27699436580E+03  0.27699436580E+03  0.00000000000E+00 0. -1.
         21   -1    0    0  501  502  0.00000000000E+00 -0.00000000000E+00 -0.96735455125E+03  0.96735455125E+03  0.00000000000E+00 0. -1.
         23    2    1    2    0    0 -0.34737117640E+02  0.46807337714E+01  0.25408636972E+03  0.27301996805E+03  0.93549147839E+02 0.  0.
         23    2    1    2    0    0  0.43444214569E+02 -0.82903635179E+02 -0.40068833648E+03  0.42190412592E+03  0.93228407508E+02 0.  0.
        -11    1    3    3    0    0  0.23513146536E+02 -0.18932503045E+02  0.41379819789E+02  0.51221062243E+02  0.00000000000E+00 0.  1.
         11    1    3    3    0    0 -0.58250264177E+02  0.23613236817E+02  0.21270654994E+03  0.22179890580E+03  0.00000000000E+00 0. -1.
        -11    1    4    4    0    0 -0.23664114000E+02 -0.32702313032E+02 -0.20641196047E+03  0.21032196507E+03  0.00000000000E+00 0.  1.
         11    1    4    4    0    0  0.67108328569E+02 -0.50201322147E+02 -0.19427637602E+03  0.21158216084E+03  0.00000000000E+00 0. -1.
          1    1    1    2  501    0 -0.87070969283E+01  0.78222901408E+02 -0.54375821869E+03  0.54942482309E+03  0.00000000000E+00 0. -1.
<scales pt_clust_5="13000.00000" pt_clust_6="13000.00000" pt_clust_7="13000.00000" pt_clust_8="13000.00000" pt_clust_9="78.70601"></scales>
<clustering>
<clus scale="   78.706">  2  9  1 -1</clus>
<clus scale="   93.228">  7  8 -1 -1</clus>
<clus scale="   93.549">  5  6 -1 -1</clus>
<clus scale="   99.766">  2  7  1 -1</clus>
<clus scale="   78.706">  2  5  1 -1</clus>
</clustering>
</event>
<event>
 9    1  0.1601012E-005  0.1566310E+03  0.7546771E-02  0.1192703E+00
         21   -1    0    0  501  502  0.00000000000E+00  0.00000000000E+00  0.40954386592E+03  0.40954386592E+03  0.00000000000E+00 0. -1.
         -1   -1    0    0    0  501 -0.00000000000E+00 -0.00000000000E+00 -0.13962063242E+03  0.13962063242E+03  0.00000000000E+00 0.  1.
         23    2    1    2    0    0 -0.14561376356E+03 -0.66233830953E+02  0.49242067631E+01  0.18576570976E+03  0.94309928464E+02 0.  0.
         23    2    1    2    0    0  0.89840135028E+02 -0.25435523574E+02  0.96356458594E+02  0.16351311128E+03  0.93454559680E+02 0.  0.
        -11    1    4    4    0    0  0.78989921963E+02 -0.62769279856E+01  0.16845224756E+02  0.81009685802E+02  0.00000000000E+00 0.  1.
         11    1    4    4    0    0  0.10850213064E+02 -0.19158595588E+02  0.79511233838E+02  0.82503425474E+02  0.00000000000E+00 0. -1.
        -13    1    3    3    0    0 -0.85367917194E+02 -0.86316541738E+02 -0.49279878060E+01  0.12150107706E+03  0.00000000000E+00 0. -1.
         13    1    3    3    0    0 -0.60245846369E+02  0.20082710785E+02  0.98521945691E+01  0.64264632692E+02  0.00000000000E+00 0.  1.
         -1    1    1    2    0  502  0.55773628536E+02  0.91669354527E+02  0.16864256814E+03  0.19988567730E+03  0.00000000000E+00 0.  1.
<scales pt_clust_5="13000.00000" pt_clust_6="13000.00000" pt_clust_7="13000.00000" pt_clust_8="13000.00000" pt_clust_9="107.30316"></scales>
<clustering>
<clus scale="   93.455">  5  6 -1 -1</clus>
<clus scale="   94.310">  7  8 -1 -1</clus>
<clus scale="  107.303">  1  9  2 -1</clus>
<clus scale="  156.117">  1  5  2 -1</clus>
<clus scale="  107.303">  1  5  2 -1</clus>
</clustering>
</event>
<event>
 9    1  0.1601012E-005  0.1222519E+03  0.7546771E-02  0.1239818E+00
         -4   -1    0    0    0  501 -0.00000000000E+00  0.00000000000E+00  0.23727157426E+03  0.23727157426E+03  0.00000000000E+00 0.  1.
         21   -1    0    0  501  502  0.00000000000E+00 -0.00000000000E+00 -0.13734932205E+03  0.13734932205E+03  0.00000000000E+00 0. -1.
         23    2    1    2    0    0  0.89811637436E+02  0.24574040803E+02  0.10946228870E+03  0.16967339774E+03  0.90205629274E+02 0.  0.
         23    2    1    2    0    0 -0.69598476445E+02  0.21224642876E+02  0.50008962233E+02  0.12715177534E+03  0.91499968742E+02 0.  0.
        -11    1    3    3    0    0  0.95938873333E+02 -0.81047450676E+01  0.84416098348E+02  0.12804699125E+03  0.00000000000E+00 0.  1.
         11    1    3    3    0    0 -0.61272358970E+01  0.32678785871E+02  0.25046190350E+02  0.41626406484E+02  0.00000000000E+00 0. -1.
        -11    1    4    4    0    0  0.20436853622E+02  0.71042303275E+01  0.24136534614E+02  0.32414616729E+02  0.00000000000E+00 0.  1.
         11    1    4    4    0    0 -0.90035330067E+02  0.14120412548E+02  0.25872427618E+02  0.94737158611E+02  0.00000000000E+00 0. -1.
         -4    1    1    2    0  502 -0.20213160991E+02 -0.45798683679E+02 -0.59548998727E+02  0.77795723233E+02  0.00000000000E+00 0.  1.
<scales pt_clust_5="13000.00000" pt_clust_6="13000.00000" pt_clust_7="13000.00000" pt_clust_8="13000.00000" pt_clust_9="50.06088"></scales>
<clustering>
<clus scale="   50.061">  2  9  1 -1</clus>
<clus scale="   90.206">  5  6 -1 -1</clus>
<clus scale="   91.500">  7  8 -1 -1</clus>
<clus scale="  121.286">  1  5  2 -1</clus>
<clus scale="   50.061">  2  5  1 -1</clus>
</clustering>
</event>
<event>
 9    1  0.1601012E-005  0.1049632E+03  0.7546771E-02  0.1271067E+00
          3   -1    0    0  502    0 -0.00000000000E+00  0.00000000000E+00  0.29222068713E+03  0.29222068713E+03  0.00000000000E+00 0. -1.
         21   -1    0    0  501  502  0.00000000000E+00 -0.00000000000E+00 -0.51314772842E+03  0.51314772842E+03  0.00000000000E+00 0. -1.
         23    2    1    2    0    0 -0.34407090342E+02  0.34984098092E+02  0.22665413943E+03  0.25007620262E+03  0.93585646382E+02 0.  0.
         23    2    1    2    0    0 -0.18349607598E+02 -0.65072295534E+02 -0.10864819475E+02  0.11437300381E+03  0.91608012498E+02 0.  0.
        -11    1    4    4    0    0 -0.40200429899E+02 -0.65318769778E+02 -0.32793848767E+02  0.83414943304E+02  0.00000000000E+00 0. -1.
         11    1    4    4    0    0  0.21850822301E+02  0.24647424429E+00  0.21929029292E+02  0.30958060509E+02  0.00000000000E+00 0.  1.
        -11    1    3    3    0    0 -0.42098772274E+01 -0.31705216168E+02  0.80258172532E+02  0.86396284970E+02  0.00000000000E+00 0. -1.
         11    1    3    3    0    0 -0.30197213115E+02  0.66689314260E+02  0.14639596690E+03  0.16367991765E+03  0.00000000000E+00 0.  1.
          3    1    1    2  501    0  0.52756697940E+02  0.30088197442E+02 -0.43671636124E+03  0.44091920912E+03  0.00000000000E+00 0. -1.
<scales pt_clust_5="13000.00000" pt_clust_6="13000.00000" pt_clust_7="13000.00000" pt_clust_8="13000.00000" pt_clust_9="60.73359"></scales>
<clustering>
<clus scale="   60.734">  2  9  1 -1</clus>
<clus scale="   91.608">  5  6 -1 -1</clus>
<clus scale="   93.586">  7  8 -1 -1</clus>
<clus scale="  103.204">  2  5  1 -1</clus>
<clus scale="   60.734">  2  5  1 -1</clus>
</clustering>
</event>
<event>
 9    1  0.1601012E-005  0.1179962E+03  0.7546771E-02  0.1247699E+00
         21   -1    0    0  501  502  0.00000000000E+00  0.00000000000E+00  0.22165653344E+03  0.22165653344E+03  0.00000000000E+00 0. -1.
          3   -1    0    0  502    0 -0.00000000000E+00 -0.00000000000E+00 -0.53202973162E+03  0.53202973162E+03  0.00000000000E+00 0. -1.
         23    2    1    2    0    0  0.54180531450E+02 -0.50567841273E+02 -0.41561943409E+03  0.43149849701E+03  0.89212120103E+02 0.  0.
         23    2    1    2    0    0 -0.29246493208E+02  0.64983475603E+02 -0.75364433939E+02  0.13929509232E+03  0.92979112569E+02 0.  0.
        -11    1    4    4    0    0 -0.45754850628E+02  0.81501455237E+02 -0.64337911159E+02  0.11346964517E+03  0.00000000000E+00 0.  1.
         11    1    4    4    0    0  0.16508357420E+02 -0.16517979634E+02 -0.11026522780E+02  0.25825447151E+02  0.00000000000E+00 0. -1.
        -13    1    3    3    0    0  0.65491895712E+02 -0.14884997175E+01 -0.24404251086E+03  0.25268191692E+03  0.00000000000E+00 0.  1.
         13    1    3    3    0    0 -0.11311364261E+02 -0.49079341556E+02 -0.17157692323E+03  0.17881658009E+03  0.00000000000E+00 0. -1.
          3    1    1    2  501    0 -0.24934038242E+02 -0.14415634329E+02  0.18061066985E+03  0.18289267574E+03  0.00000000000E+00 0. -1.
<scales pt_clust_5="13000.00000" pt_clust_6="13000.00000" pt_clust_7="13000.00000" pt_clust_8="13000.00000" pt_clust_9="28.80133"></scales>
<clustering>
<clus scale="   28.801">  1  9  2 -1</clus>
<clus scale="   89.212">  7  8 -1 -1</clus>
<clus scale="   92.979">  5  6 -1 -1</clus>
<clus scale="  115.051">  2  7  1 -1</clus>
<clus scale="   28.801">  1  5  2 -1</clus>
</clustering>
</event>
<event>
 9    1  0.1601012E-005  0.1174765E+03  0.7546771E-02  0.1248005E+00
          3   -1    0    0  502    0 -0.00000000000E+00  0.00000000000E+00  0.49661684782E+02  0.49661684782E+02  0.00000000000E+00 0. -1.
         21   -1    0    0  501  502  0.00000000000E+00 -0.00000000000E+00 -0.56436412256E+03  0.56436412256E+03  0.00000000000E+00 0.  1.
         23    2    1    2    0    0 -0.25477650892E+02 -0.82247618761E+02 -0.99857839460E+02  0.16175469568E+03  0.93697449204E+02 0.  0.
         23    2    1    2    0    0  0.29073990358E+02  0.44767558941E+02 -0.14419719118E+03  0.17901718665E+03  0.91678197643E+02 0.  0.
        -11    1    3    3    0    0 -0.32915533479E+02  0.10182882368E+02 -0.29422173041E+02  0.45307700273E+02  0.00000000000E+00 0.  1.
         11    1    3    3    0    0  0.74378825870E+01 -0.92430501129E+02 -0.70435666418E+02  0.11644699541E+03  0.00000000000E+00 0. -1.
        -11    1    4    4    0    0 -0.13123425596E+02  0.58465879579E+02 -0.98734872912E+02  0.11549484189E+03  0.00000000000E+00 0.  1.
         11    1    4    4    0    0  0.42197415954E+02 -0.13698320638E+02 -0.45462318270E+02  0.63522344761E+02  0.00000000000E+00 0. -1.
          3    1    1    2  501    0 -0.35963394657E+01  0.37480059820E+02 -0.27064740713E+03  0.27325392500E+03  0.00000000000E+00 0. -1.
<scales pt_clust_5="13000.00000" pt_clust_6="13000.00000" pt_clust_7="13000.00000" pt_clust_8="13000.00000" pt_clust_9="37.65221"></scales>
<clustering>
<clus scale="   37.652">  2  9  1 -1</clus>
<clus scale="   91.678">  7  8 -1 -1</clus>
<clus scale="   93.697">  5  6 -1 -1</clus>
<clus scale="  115.872">  2  7  1 -1</clus>
<clus scale="   37.652">  2  5  1 -1</clus>
</clustering>
</event>
<event>
 9    1  0.1601012E-005  0.1059985E+03  0.7546771E-02  0.1268440E+00
          1   -1    0    0  502    0 -0.00000000000E+00  0.00000000000E+00  0.53035138198E+03  0.53035138198E+03  0.00000000000E+00 0. -1.
         21   -1    0    0  501  502  0.00000000000E+00 -0.00000000000E+00 -0.12195513755E+03  0.12195513755E+03  0.00000000000E+00 0. -1.
         23    2    1    2    0    0  0.23897267071E+02 -0.45647275569E+02  0.44916480786E+03  0.46125806175E+03  0.91406902202E+02 0.  0.
         23    2    1    2    0    0 -0.50799860662E+02  0.52201517385E+02  0.25585940577E+02  0.11914833378E+03  0.90752745563E+02 0.  0.
        -11    1    4    4    0    0  0.18388469181E+02 -0.88124232339E+01  0.16914852396E+02  0.26493524373E+02  0.00000000000E+00 0.  1.
         11    1    4    4    0    0 -0.69188329844E+02  0.61013940619E+02  0.86710881802E+01  0.92654809409E+02  0.00000000000E+00 0. -1.
        -13    1    3    3    0    0  0.20889891148E+02  0.25615704520E+02  0.16501704809E+03  0.16829491386E+03  0.00000000000E+00 0.  1.
         13    1    3    3    0    0  0.30073759228E+01 -0.71262980088E+02  0.28414775977E+03  0.29296314789E+03  0.00000000000E+00 0. -1.
          1    1    1    2  501    0  0.26902593591E+02 -0.65542418163E+01 -0.66354504012E+02  0.71900123994E+02  0.00000000000E+00 0. -1.
<scales pt_clust_5="13000.00000" pt_clust_6="13000.00000" pt_clust_7="13000.00000" pt_clust_8="13000.00000" pt_clust_9="27.68949"></scales>
<clustering>
<clus scale="   27.689">  2  9  1 -1</clus>
<clus scale="   90.753">  5  6 -1 -1</clus>
<clus scale="   91.407">  7  8 -1 -1</clus>
<clus scale="  105.435">  2  5  1 -1</clus>
<clus scale="   27.689">  2  5  1 -1</clus>
</clustering>
</event>
<event>
 9    1  0.1601012E-005  0.9415618E+02  0.7546771E-02  0.1294732E+00
         21   -1    0    0  501  502  0.00000000000E+00  0.00000000000E+00  0.14179948153E+03  0.14179948153E+03  0.00000000000E+00 0.  1.
         -1   -1    0    0    0  501 -0.00000000000E+00 -0.00000000000E+00 -0.49120891333E+03  0.49120891333E+03  0.00000000000E+00 0.  1.
         23    2    1    2    0    0 -0.13566236933E+02 -0.96826845233E+01 -0.44932193175E+03  0.45857608268E+03  0.90133390552E+02 0.  0.
         23    2    1    2    0    0 -0.25206618024E+02  0.38113501187E+01  0.43660525230E+02  0.10586051398E+03  0.93007026481E+02 0.  0.
        -11    1    3    3    0    0  0.25213471208E+01  0.39519177079E+02 -0.21321223946E+03  0.21685843678E+03  0.00000000000E+00 0. -1.
         11    1    3    3    0    0 -0.16087584053E+02 -0.49201861602E+02 -0.23610969229E+03  0.24171764590E+03  0.00000000000E+00 0.  1.
        -13    1    4    4    0    0 -0.53841125698E+02 -0.15012883800E+02  0.81051214252E+01  0.56479611274E+02  0.00000000000E+00 0.  1.
         13    1    4    4    0    0  0.28634507674E+02  0.18824233919E+02  0.35555403805E+02  0.49380902706E+02  0.00000000000E+00 0. -1.
         -1    1    1    2    0  502  0.38772854957E+02  0.58713344046E+01  0.56251974717E+02  0.68571798203E+02  0.00000000000E+00 0.  1.
<scales pt_clust_5="13000.00000" pt_clust_6="13000.00000" pt_clust_7="13000.00000" pt_clust_8="13000.00000" pt_clust_9="39.21488"></scales>
<clustering>
<clus scale="   39.215">  1  9  2 -1</clus>
<clus scale="   90.133">  5  6 -1 -1</clus>
<clus scale="   91.319">  2  5  1 -1</clus>
<clus scale="   93.007">  7  8 -1 -1</clus>
<clus scale="   39.215">  1  5  2 -1</clus>
</clustering>
</event>
<event>
 9    1  0.1601012E-005  0.1017548E+03  0.7546771E-02  0.1277588E+00
         21   -1    0    0  501  502  0.00000000000E+00  0.00000000000E+00  0.37256281952E+03  0.37256281952E+03  0.00000000000E+00 0.  1.
          4   -1    0    0  502    0 -0.00000000000E+00 -0.00000000000E+00 -0.67281379464E+02  0.67281379464E+02  0.00000000000E+00 0. -1.
         23    2    1    2    0    0  0.23468499063E+02 -0.24007205948E+02  0.34232056896E+02  0.10322876255E+03  0.91417871953E+02 0.  0.
         23    2    1    2    0    0 -0.87023602602E+00  0.71919640683E+02  0.83978433334E+02  0.14218852687E+03  0.89398030634E+02 0.  0.
        -11    1    3    3    0    0 -0.30293091229E+02 -0.11101519550E+02  0.35440745035E+02  0.47926626432E+02  0.00000000000E+00 0.  1.
         11    1    3    3    0    0  0.53761590292E+02 -0.12905686399E+02 -0.12086881387E+01  0.55302136117E+02  0.00000000000E+00 0. -1.
        -13    1    4    4    0    0 -0.14555047795E+02 -0.18301929797E+02  0.19593360210E+02  0.30507537018E+02  0.00000000000E+00 0.  1.
         13    1    4    4    0    0  0.13684811769E+02  0.90221570480E+02  0.64385073124E+02  0.11168098985E+03  0.00000000000E+00 0. -1.
          4    1    1    2  501    0 -0.22598263037E+02 -0.47912434734E+02  0.18707094982E+03  0.19442690956E+03  0.00000000000E+00 0. -1.
<scales pt_clust_5="13000.00000" pt_clust_6="13000.00000" pt_clust_7="13000.00000" pt_clust_8="13000.00000" pt_clust_9="52.97436"></scales>
<clustering>
<clus scale="   52.974">  1  9  2 -1</clus>
<clus scale="   89.398">  7  8 -1 -1</clus>
<clus scale="   91.418">  5  6 -1 -1</clus>
<clus scale="   99.944">  1  7  2 -1</clus>
<clus scale="   52.974">  1  5  2 -1</clus>
</clustering>
</event>
<event>
 9    1  0.1601012E-005  0.9829781E+02  0.7546771E-02  0.1291828E+00
         -1   -1    0    0    0  501 -0.00000000000E+00  0.00000000000E+00  0.31545567705E+02  0.31545567705E+02  0.00000000000E+00 0.  1.
         21   -1    0    0  501  502  0.00000000000E+00 -0.00000000000E+00 -0.34432608512E+03  0.34432608512E+03  0.00000000000E+00 0. -1.
         23    2    1    2    0    0 -0.23091570727E+02  0.67754362818E+01 -0.13059743923E+03  0.16146076863E+03  0.91840957615E+02 0.  0.
         23    2    1    2    0    0  0.44348550542E+02 -0.15019665700E+02 -0.14363856036E+03  0.16962800395E+03  0.77131312758E+02 0.  0.
        -11    1    3    3    0    0  0.35510428198E+02  0.25231111573E+01 -0.40789261739E+02  0.54139823364E+02  0.00000000000E+00 0. -1.
         11    1    3    3    0    0 -0.58601998925E+02  0.42523251245E+01 -0.89808177496E+02  0.10732094526E+03  0.00000000000E+00 0.  1.
        -13    1    4    4    0    0  0.56837219385E+02 -0.32487401800E+02 -0.12537599458E+03  0.14143917703E+03  0.00000000000E+00 0. -1.
         13    1    4    4    0    0 -0.12488668842E+02  0.17467736100E+02 -0.18262565785E+02  0.28188826917E+02  0.00000000000E+00 0.  1.
         -1    1    1    2    0  502 -0.21256979815E+02  0.82442294183E+01 -0.38544517817E+02  0.44782880248E+02  0.00000000000E+00 0.  1.
<scales pt_clust_5="13000.00000" pt_clust_6="13000.00000" pt_clust_7="13000.00000" pt_clust_8="13000.00000" pt_clust_9="22.79970"></scales>
<clustering>
<clus scale="   22.800">  2  9  1 -1</clus>
<clus scale="   77.131">  7  8 -1 -1</clus>
<clus scale="   84.717">  2  7  1 -1</clus>
<clus scale="   91.841">  5  6 -1 -1</clus>
<clus scale="   22.800">  2  5  1 -1</clus>
</clustering>
</event>
<event>
 9    1  0.1601012E-005  0.9320127E+02  0.7546771E-02  0.1296136E+00
          2   -1    0    0  502    0 -0.00000000000E+00  0.00000000000E+00  0.16449874710E+03  0.16449874710E+03  0.00000000000E+00 0. -1.
         21   -1    0    0  501  502  0.00000000000E+00 -0.00000000000E+00 -0.39935681304E+03  0.39935681304E+03  0.00000000000E+00 0.  1.
         23    2    1    2    0    0 -0.51980516069E+01  0.18708490976E+02  0.13497927094E+03  0.16329728221E+03  0.89830793277E+02 0.  0.
         23    2    1    2    0    0 -0.33976195737E+02 -0.14836014116E+02 -0.16686312371E+03  0.19380202302E+03  0.91331445196E+02 0.  0.
        -11    1    4    4    0    0 -0.46279434111E+02 -0.43319531073E+02 -0.13595516086E+03  0.15000724502E+03  0.00000000000E+00 0.  1.
         11    1    4    4    0    0  0.12303238374E+02  0.28483516956E+02 -0.30907962845E+02  0.43794777998E+02  0.00000000000E+00 0. -1.
        -13    1    3    3    0    0 -0.46154810105E+02  0.21370448044E+02  0.74745684695E+02  0.90409512365E+02  0.00000000000E+00 0.  1.
         13    1    3    3    0    0  0.40956758498E+02 -0.26619570676E+01  0.60233586241E+02  0.72887769849E+02  0.00000000000E+00 0. -1.
          2    1    1    2  501    0  0.39174247344E+02 -0.38724768601E+01 -0.20297421317E+03  0.20675625490E+03  0.00000000000E+00 0. -1.
<scales pt_clust_5="13000.00000" pt_clust_6="13000.00000" pt_clust_7="13000.00000" pt_clust_8="13000.00000" pt_clust_9="39.36518"></scales>
<clustering>
<clus scale="   39.365">  2  9  1 -1</clus>
<clus scale="   89.831">  7  8 -1 -1</clus>
<clus scale="   91.331">  5  6 -1 -1</clus>
<clus scale="   91.731">  1  7  2 -1</clus>
<clus scale="   39.365">  2  5  1 -1</clus>
</clustering>
</event>
<event>
 9    1  0.1601012E-005  0.1005095E+03  0.7546771E-02  0.1279955E+00
         -3   -1    0    0    0  501 -0.00000000000E+00  0.00000000000E+00  0.10410753600E+03  0.10410753600E+03  0.00000000000E+00 0.  1.
         21   -1    0    0  501  502  0.00000000000E+00 -0.00000000000E+00 -0.26054562363E+03  0.26054562363E+03  0.00000000000E+00 0.  1.
         23    2    1    2    0    0  0.14753742774E+02  0.42112772298E+02  0.57232912298E+02  0.11564106256E+03  0.90033830213E+02 0.  0.
         23    2    1    2    0    0 -0.18282083604E+02 -0.21418035293E+02 -0.12275515887E+03  0.15570394371E+03  0.91552838523E+02 0.  0.
        -11    1    3    3    0    0  0.22034798679E+02  0.67734963105E+02  0.29230565105E+02  0.76993399172E+02  0.00000000000E+00 0.  1.
         11    1    3    3    0    0 -0.72810559050E+01 -0.25622190807E+02  0.28002347193E+02  0.38647663385E+02  0.00000000000E+00 0. -1.
        -13    1    4    4    0    0 -0.33294773996E+02  0.22710166651E+02 -0.90359041934E+02  0.98939628582E+02  0.00000000000E+00 0.  1.
         13    1    4    4    0    0  0.15012690392E+02 -0.44128201944E+02 -0.32396116932E+02  0.56764315127E+02  0.00000000000E+00 0. -1.
         -3    1    1    2    0  502  0.35283408304E+01 -0.20694737005E+02 -0.90915841063E+02  0.93308153367E+02  0.00000000000E+00 0.  1.
<scales pt_clust_5="13000.00000" pt_clust_6="13000.00000" pt_clust_7="13000.00000" pt_clust_8="13000.00000" pt_clust_9="20.99336"></scales>
<clustering>
<clus scale="   20.993">  2  9  1 -1</clus>
<clus scale="   90.034">  5  6 -1 -1</clus>
<clus scale="   91.553">  7  8 -1 -1</clus>
<clus scale="   99.128">  1  5  2 -1</clus>
<clus scale="   20.993">  2  5  1 -1</clus>
</clustering>
</event>
<event>
 9    1  0.1601012E-005  0.1211211E+03  0.7546771E-02  0.1242293E+00
         21   -1    0    0  501  502  0.00000000000E+00  0.00000000000E+00  0.92600202573E+02  0.92600202573E+02  0.00000000000E+00 0.  1.
         -3   -1    0    0    0  501 -0.00000000000E+00 -0.00000000000E+00 -0.65447747359E+03  0.65447747359E+03  0.00000000000E+00 0.  1.
         23    2    1    2    0    0 -0.66410090522E+02  0.85024005794E+02 -0.43537954252E+03  0.45804437784E+03  0.92789678005E+02 0.  0.
         23    2    1    2    0    0  0.44277918354E+02 -0.16236940247E+02 -0.17490993361E+03  0.20205493874E+03  0.89490452633E+02 0.  0.
        -11    1    3    3    0    0  0.20783115709E+02  0.32484156486E+02 -0.15600664529E+03  0.16070230769E+03  0.00000000000E+00 0.  1.
         11    1    3    3    0    0 -0.87193206231E+02  0.52539849308E+02 -0.27937289723E+03  0.29734207015E+03  0.00000000000E+00 0. -1.
        -11    1    4    4    0    0 -0.27452620744E+02  0.48234269528E+00 -0.50266401353E+02  0.57276436212E+02  0.00000000000E+00 0. -1.
         11    1    4    4    0    0  0.71730539098E+02 -0.16719282943E+02 -0.12464353225E+03  0.14477850253E+03  0.00000000000E+00 0.  1.
         -3    1    1    2    0  502  0.22132172168E+02 -0.68787065546E+02  0.48412205111E+02  0.86978359579E+02  0.00000000000E+00 0.  1.
<scales pt_clust_5="13000.00000" pt_clust_6="13000.00000" pt_clust_7="13000.00000" pt_clust_8="13000.00000" pt_clust_9="72.25990"></scales>
<clustering>
<clus scale="   72.260">  1  9  2 -1</clus>
<clus scale="   89.490">  7  8 -1 -1</clus>
<clus scale="   92.790">  5  6 -1 -1</clus>
<clus scale="  118.613">  1  7  2 -1</clus>
<clus scale="   72.260">  1  5  2 -1</clus>
</clustering>
</event>
<event>
 9    1  0.1601012E-005  0.9353503E+02  0.7546771E-02  0.1295070E+00
          4   -1    0    0  502    0 -0.00000000000E+00  0.00000000000E+00  0.35400982592E+03  0.35400982592E+03  0.00000000000E+00 0. -1.
         21   -1    0    0  501  502  0.00000000000E+00 -0.00000000000E+00 -0.53555835841E+02  0.53555835841E+02  0.00000000000E+00 0.  1.
         23    2    1    2    0    0 -0.16499355166E+02  0.32603760862E+02  0.21110408145E+03  0.23217919066E+03  0.89481894408E+02 0.  0.
         23    2    1    2    0    0 -0.21656330377E+02  0.65021432101E+01  0.39010832669E+02  0.10109548483E+03  0.90483023136E+02 0.  0.
        -11    1    3    3    0    0  0.49972838203E+01 -0.28831383046E+02  0.43947783928E+02  0.52798003808E+02  0.00000000000E+00 0. -1.
         11    1    3    3    0    0 -0.21496638987E+02  0.61435143908E+02  0.16715629752E+03  0.17938118685E+03  0.00000000000E+00 0.  1.
        -11    1    4    4    0    0 -0.54916547190E+02  0.59748900147E+01  0.39360898281E+02  0.67829247227E+02  0.00000000000E+00 0.  1.
         11    1    4    4    0    0  0.33260216812E+02  0.52725319544E+00 -0.35006561215E+00  0.33266237603E+02  0.00000000000E+00 0. -1.
          4    1    1    2  501    0  0.38155685544E+02 -0.39105904072E+02  0.50339075958E+02  0.74290986269E+02  0.00000000000E+00 0. -1.
<scales pt_clust_5="13000.00000" pt_clust_6="13000.00000" pt_clust_7="13000.00000" pt_clust_8="13000.00000" pt_clust_9="54.63633"></scales>
<clustering>
<clus scale="   54.636">  2  9  1 -1</clus>
<clus scale="   89.482">  5  6 -1 -1</clus>
<clus scale="   90.483">  7  8 -1 -1</clus>
<clus scale="   92.567">  1  5  2 -1</clus>
<clus scale="   54.636">  2  5  1 -1</clus>
</clustering>
</event>
<event>
 9    1  0.1601012E-005  0.9603681E+02  0.7546771E-02  0.1290140E+00
         21   -1    0    0  501  502  0.00000000000E+00  0.00000000000E+00  0.89362544079E+02  0.89362544079E+02  0.00000000000E+00 0. -1.
          1   -1    0    0  502    0 -0.00000000000E+00 -0.00000000000E+00 -0.43255352869E+03  0.43255352869E+03  0.00000000000E+00 0. -1.
         23    2    1    2    0    0 -0.91202617350E+01 -0.38535292270E+02 -0.24569278484E+03  0.26537429506E+03  0.92143496960E+02 0.  0.
         23    2    1    2    0    0 -0.53927394694E+02 -0.35407830391E+01 -0.13587513224E+03  0.17158183396E+03  0.89763985768E+02 0.  0.
        -11    1    3    3    0    0 -0.30458869252E+02 -0.61634222248E+02 -0.17388249261E+03  0.18698032331E+03  0.00000000000E+00 0. -1.
         11    1    3    3    0    0  0.21338607517E+02  0.23098929978E+02 -0.71810292228E+02  0.78393971751E+02  0.00000000000E+00 0.  1.
        -13    1    4    4    0    0 -0.53926817194E+02  0.33666078047E+02 -0.61664967266E+02  0.88566780520E+02  0.00000000000E+00 0.  1.
         13    1    4    4    0    0 -0.57750041863E-03 -0.37206861087E+02 -0.74210164977E+02  0.83015053443E+02  0.00000000000E+00 0. -1.
          1    1    1    2  501    0  0.63047656429E+02  0.42076075309E+02  0.38376932475E+02  0.84959943743E+02  0.00000000000E+00 0. -1.
<scales pt_clust_5="13000.00000" pt_clust_6="13000.00000" pt_clust_7="13000.00000" pt_clust_8="13000.00000" pt_clust_9="75.79844"></scales>
<clustering>
<clus scale="   75.798">  1  9  2 -1</clus>
<clus scale="   89.764">  7  8 -1 -1</clus>
<clus scale="   92.143">  5  6 -1 -1</clus>
<clus scale="   93.756">  1  7  2 -1</clus>
<clus scale="   75.798">  1  5  2 -1</clus>
</clustering>
</event>
<event>
 9    1  0.1771362E-005  0.9350626E+02  0.7546771E-02  0.1294651E+00
          2   -1    0    0  502    0 -0.00000000000E+00  0.00000000000E+00  0.69276188529E+02  0.69276188529E+02  0.00000000000E+00 0. -1.
         21   -1    0    0  501  502  0.00000000000E+00 -0.00000000000E+00 -0.82344438052E+03  0.82344438052E+03  0.00000000000E+00 0.  1.
         23    2    1    2    0    0 -0.12343061039E+01  0.21126471873E+02  0.26100235168E+02  0.97348320029E+02  0.91365320616E+02 0.  0.
         23    2    1    2    0    0  0.39502191090E+02  0.85070876271E+01 -0.41357452640E+03  0.42549795182E+03  0.91497674732E+02 0.  0.
        -11    1    3    3    0    0  0.30975318613E+02  0.39866281467E+02  0.31777299859E+02  0.59653898008E+02  0.00000000000E+00 0. -1.
         11    1    3    3    0    0 -0.32209624717E+02 -0.18739809594E+02 -0.56770646902E+01  0.37694422021E+02  0.00000000000E+00 0.  1.
        -11    1    4    4    0    0  0.46934099207E+01 -0.40002437711E+02 -0.16072641258E+03  0.16569611588E+03  0.00000000000E+00 0.  1.
         11    1    4    4    0    0  0.34808781170E+02  0.48509525338E+02 -0.25284811382E+03  0.25980183594E+03  0.00000000000E+00 0. -1.
          2    1    1    2  501    0 -0.38267884986E+02 -0.29633559500E+02 -0.36669390076E+03  0.36987429719E+03  0.00000000000E+00 0. -1.
<scales pt_clust_5="13000.00000" pt_clust_6="13000.00000" pt_clust_7="13000.00000" pt_clust_8="13000.00000" pt_clust_9="48.40019"></scales>
<clustering>
<clus scale="   48.400">  2  9  1 -1</clus>
<clus scale="   91.365">  5  6 -1 -1</clus>
<clus scale="   91.498">  7  8 -1 -1</clus>
<clus scale="   93.377">  1  5  2 -1</clus>
<clus scale="   48.400">  2  5  1 -1</clus>
</clustering>
</event>
<event>
 9    1  0.1601012E-005  0.1391300E+03  0.7546771E-02  0.1214706E+00
          1   -1    0    0  502    0 -0.00000000000E+00  0.00000000000E+00  0.93085148533E+03  0.93085148533E+03  0.00000000000E+00 0. -1.
         21   -1    0    0  501  502  0.00000000000E+00 -0.00000000000E+00 -0.46758698898E+02  0.46758698898E+02  0.00000000000E+00 0. -1.
         23    2    1    2    0    0 -0.63729547838E+02  0.57274676688E+02  0.36870922316E+03  0.38954259659E+03  0.91951614760E+02 0.  0.
         23    2    1    2    0    0  0.34475469022E+02 -0.14405534235E+03  0.42592132745E+03  0.46004346218E+03  0.91052239364E+02 0.  0.
        -11    1    4    4    0    0 -0.21020802002E+02 -0.77668847075E+02  0.26985371304E+03  0.28159430101E+03  0.00000000000E+00 0. -1.
         11    1    4    4    0    0  0.55496271024E+02 -0.66386495278E+02  0.15606761441E+03  0.17844916117E+03  0.00000000000E+00 0.  1.
        -13    1    3    3    0    0 -0.52004004133E+02 -0.13553210641E+02  0.14840585379E+03  0.15783663518E+03  0.00000000000E+00 0. -1.
         13    1    3    3    0    0 -0.11725543704E+02  0.70827887329E+02  0.22030336937E+03  0.23170596141E+03  0.00000000000E+00 0.  1.
          1    1    1    2  501    0  0.29254078815E+02  0.86780665665E+02  0.89462235817E+02  0.12802412545E+03  0.00000000000E+00 0. -1.
<scales pt_clust_5="13000.00000" pt_clust_6="13000.00000" pt_clust_7="13000.00000" pt_clust_8="13000.00000" pt_clust_9="91.57885"></scales>
<clustering>
<clus scale="   91.052">  5  6 -1 -1</clus>
<clus scale="   91.579">  2  9  1 -1</clus>
<clus scale="   91.952">  7  8 -1 -1</clus>
<clus scale="  138.537">  2  5  1 -1</clus>
<clus scale="   91.579">  2  5  1 -1</clus>
</clustering>
</event>
<event>
 9    1  0.1601012E-005  0.1102442E+03  0.7546771E-02  0.1263421E+00
          2   -1    0    0  502    0 -0.00000000000E+00  0.00000000000E+00  0.19314413966E+03  0.19314413966E+03  0.00000000000E+00 0. -1.
         21   -1    0    0  501  502  0.00000000000E+00 -0.00000000000E+00 -0.83081925385E+02  0.83081925385E+02  0.00000000000E+00 0.  1.
         23    2    1    2    0    0 -0.48480735684E+01  0.74189681163E+02  0.95637490578E+02  0.14573926256E+03  0.81029565219E+02 0.  0.
         23    2    1    2    0    0  0.29739476465E+01 -0.46728496069E+02  0.17928179926E+02  0.10273967218E+03  0.89675101864E+02 0.  0.
        -11    1    3    3    0    0  0.35396792672E+02  0.30271852718E+02  0.23446464831E+02  0.52144555915E+02  0.00000000000E+00 0.  1.
         11    1    3    3    0    0 -0.40244866240E+02  0.43917828445E+02  0.72191025746E+02  0.93594706647E+02  0.00000000000E+00 0. -1.
        -13    1    4    4    0    0 -0.54569829656E+01 -0.70563273770E+02  0.27186301076E+02  0.75815890382E+02  0.00000000000E+00 0. -1.
         13    1    4    4    0    0  0.84309306121E+01  0.23834777700E+02 -0.92581211499E+01  0.26923781797E+02  0.00000000000E+00 0.  1.
          2    1    1    2  501    0  0.18741259219E+01 -0.27461185094E+02 -0.35034562262E+01  0.27747130307E+02  0.00000000000E+00 0. -1.
<scales pt_clust_5="13000.00000" pt_clust_6="13000.00000" pt_clust_7="13000.00000" pt_clust_8="13000.00000" pt_clust_9="27.52506"></scales>
<clustering>
<clus scale="   27.525">  2  9  1 -1</clus>
<clus scale="   81.030">  5  6 -1 -1</clus>
<clus scale="   89.675">  7  8 -1 -1</clus>
<clus scale="  103.334">  1  5  2 -1</clus>
<clus scale="   27.525">  2  5  1 -1</clus>
</clustering>
</event>
<event>
 9    1  0.1601012E-005  0.1196100E+03  0.7546771E-02  0.1243758E+00
         21   -1    0    0  501  502  0.00000000000E+00  0.00000000000E+00  0.72447618933E+02  0.72447618933E+02  0.00000000000E+00 0. -1.
          3   -1    0    0  502    0 -0.00000000000E+00 -0.00000000000E+00 -0.45658796391E+03  0.45658796391E+03  0.00000000000E+00 0. -1.
         23    2    1    2    0    0  0.66521089257E+01 -0.87606256211E+02 -0.25091874411E+03  0.28133224818E+03  0.92024513253E+02 0.  0.
         23    2    1    2    0    0 -0.55409808680E+02  0.48759233971E+02 -0.14212444918E+03  0.18472980745E+03  0.92076234229E+02 0.  0.
        -11    1    3    3    0    0  0.18629886845E+02  0.11996465745E+02 -0.21213312139E+02  0.30675600827E+02  0.00000000000E+00 0.  1.
         11    1    3    3    0    0 -0.11977777919E+02 -0.99602721956E+02 -0.22970543197E+03  0.25065664735E+03  0.00000000000E+00 0. -1.
        -11    1    4    4    0    0  0.22504760242E+02  0.30356372186E+02 -0.50138152566E+02  0.62783818844E+02  0.00000000000E+00 0.  1.
         11    1    4    4    0    0 -0.77914568922E+02  0.18402861785E+02 -0.91986296616E+02  0.12194598861E+03  0.00000000000E+00 0. -1.
          3    1    1    2  501    0  0.48757699754E+02  0.38847022240E+02  0.89028483101E+01  0.62973527218E+02  0.00000000000E+00 0. -1.
<scales pt_clust_5="13000.00000" pt_clust_6="13000.00000" pt_clust_7="13000.00000" pt_clust_8="13000.00000" pt_clust_9="62.34103"></scales>
<clustering>
<clus scale="   62.341">  1  9  2 -1</clus>
<clus scale="   92.025">  5  6 -1 -1</clus>
<clus scale="   92.076">  7  8 -1 -1</clus>
<clus scale="  119.570">  2  5  1 -1</clus>
<clus scale="   62.341">  1  5  2 -1</clus>
</clustering>
</event>
<event>
 9    1  0.1601012E-005  0.1298999E+03  0.7546771E-02  0.1234200E+00
          1   -1    0    0  502    0 -0.00000000000E+00  0.00000000000E+00  0.71103397997E+03  0.71103397997E+03  0.00000000000E+00 0. -1.
         21   -1    0    0  501  502  0.00000000000E+00 -0.00000000000E+00 -0.39307846020E+02  0.39307846020E+02  0.00000000000E+00 0.  1.
         23    2    1    2    0    0 -0.58436365989E+02 -0.59863553350E+02  0.47076671087E+03  0.48678393354E+03  0.91317292999E+02 0.  0.
         23    2    1    2    0    0  0.85771168922E+02  0.80193039511E+02  0.17485197890E+03  0.22063845512E+03  0.65730482641E+02 0.  0.
        -11    1    4    4    0    0  0.11703182206E+02  0.33117816879E+02  0.14823361572E+02  0.38124615629E+02  0.00000000000E+00 0.  1.
         11    1    4    4    0    0  0.74067986716E+02  0.47075222632E+02  0.16002861732E+03  0.18251383949E+03  0.00000000000E+00 0. -1.
        -11    1    3    3    0    0 -0.21350688089E+02  0.13540062560E+02  0.34153586267E+02  0.42492971547E+02  0.00000000000E+00 0.  1.
         11    1    3    3    0    0 -0.37085677900E+02 -0.73403615909E+02  0.43661312461E+03  0.44429096200E+03  0.00000000000E+00 0. -1.
          1    1    1    2  501    0 -0.27334802933E+02 -0.20329486161E+02  0.26107444182E+02  0.42919437330E+02  0.00000000000E+00 0. -1.
<scales pt_clust_5="13000.00000" pt_clust_6="13000.00000" pt_clust_7="13000.00000" pt_clust_8="13000.00000" pt_clust_9="34.06581"></scales>
<clustering>
<clus scale="   34.066">  2  9  1 -1</clus>
<clus scale="   65.730">  5  6 -1 -1</clus>
<clus scale="   91.317">  7  8 -1 -1</clus>
<clus scale="  113.383">  2  5  1 -1</clus>
<clus scale="   34.066">  2  5  1 -1</clus>
</clustering>
</event>
<event>
 9    1  0.1601012E-005  0.9214092E+02  0.7546771E-02  0.1300916E+00
         21   -1    0    0  501  502  0.00000000000E+00  0.00000000000E+00  0.33614116344E+02  0.33614116344E+02  0.00000000000E+00 0. -1.
         -1   -1    0    0    0  501 -0.00000000000E+00 -0.00000000000E+00 -0.39268931924E+03  0.39268931924E+03  0.00000000000E+00 0.  1.
         23    2    1    2    0    0  0.26963719073E+02 -0.24221418096E+01 -0.26827489873E+03  0.28424918000E+03  0.89962581804E+02 0.  0.
         23    2    1    2    0    0 -0.25657895807E+01  0.43471223894E+00 -0.73280261329E+02  0.11195175169E+03  0.84595660381E+02 0.  0.
        -11    1    4    4    0    0 -0.82880000356E+01  0.33293562918E+02 -0.70594573806E+02  0.78490420607E+02  0.00000000000E+00 0. -1.
         11    1    4    4    0    0  0.57222104550E+01 -0.32858850679E+02 -0.26856875232E+01  0.33461331084E+02  0.00000000000E+00 0.  1.
        -13    1    3    3    0    0 -0.27797247997E+02 -0.13821643216E+02 -0.49436715142E+02  0.58375625234E+02  0.00000000000E+00 0. -1.
         13    1    3    3    0    0  0.54760967069E+02  0.11399501407E+02 -0.21883818358E+03  0.22587355476E+03  0.00000000000E+00 0.  1.
         -1    1    1    2    0  502 -0.24397929492E+02  0.19874295707E+01 -0.17520042843E+02  0.30102503899E+02  0.00000000000E+00 0.  1.
<scales pt_clust_5="13000.00000" pt_clust_6="13000.00000" pt_clust_7="13000.00000" pt_clust_8="13000.00000" pt_clust_9="24.47874"></scales>
<clustering>
<clus scale="   24.479">  1  9  2 -1</clus>
<clus scale="   84.596">  5  6 -1 -1</clus>
<clus scale="   86.909">  1  5  2 -1</clus>
<clus scale="   89.963">  7  8 -1 -1</clus>
<clus scale="   24.479">  1  5  2 -1</clus>
</clustering>
</event>
<event>
 9    1  0.1601012E-005  0.3506247E+03  0.7546771E-02  0.1062362E+00
         21   -1    0    0  501  502  0.00000000000E+00  0.00000000000E+00  0.11405020199E+03  0.11405020199E+03  0.00000000000E+00 0.  1.
          2   -1    0    0  502    0 -0.00000000000E+00 -0.00000000000E+00 -0.17069762494E+04  0.17069762494E+04  0.00000000000E+00 0. -1.
         23    2    1    2    0    0 -0.23013398362E+02 -0.35276169503E+03 -0.11045783745E+04  0.11633242953E+04  0.90882345273E+02 0.  0.
         23    2    1    2    0    0  0.11522459046E+03  0.29670370125E+03 -0.39194641682E+03  0.51300037725E+03  0.90761229676E+02 0.  0.
        -11    1    4    4    0    0  0.73492978180E+02  0.24985078747E+03 -0.35466785054E+03  0.44001808832E+03  0.00000000000E+00 0. -1.
         11    1    4    4    0    0  0.41731612280E+02  0.46852913780E+02 -0.37278566287E+02  0.72982288930E+02  0.00000000000E+00 0.  1.
        -13    1    3    3    0    0 -0.11586294609E+02 -0.26232604239E+03 -0.67704203036E+03  0.72617842547E+03  0.00000000000E+00 0.  1.
         13    1    3    3    0    0 -0.11427103753E+02 -0.90435652638E+02 -0.42753634414E+03  0.43714586986E+03  0.00000000000E+00 0. -1.
          2    1    1    2  501    0 -0.92211192098E+02  0.56057993776E+02 -0.96401256056E+02  0.14470177878E+03  0.00000000000E+00 0. -1.
<scales pt_clust_5="13000.00000" pt_clust_6="13000.00000" pt_clust_7="13000.00000" pt_clust_8="13000.00000" pt_clust_9="107.91387"></scales>
<clustering>
<clus scale="   90.761">  5  6 -1 -1</clus>
<clus scale="   90.882">  7  8 -1 -1</clus>
<clus scale="  107.914">  1  9  2 -1</clus>
<clus scale="  350.593">  1  5  2 -1</clus>
<clus scale="  107.914">  1  5  2 -1</clus>
</clustering>
</event>
<event>
 9    1  0.1601012E-005  0.9919398E+02  0.7546771E-02  0.1282799E+00
         21   -1    0    0  501  502  0.00000000000E+00  0.00000000000E+00  0.74015020180E+02  0.74015020180E+02  0.00000000000E+00 0. -1.
          3   -1    0    0  502    0 -0.00000000000E+00 -0.00000000000E+00 -0.45065384794E+03  0.45065384794E+03  0.00000000000E+00 0. -1.
         23    2    1    2    0    0 -0.31363634601E+02  0.52684292428E+02 -0.25972386911E+03  0.28230555684E+03  0.92090319767E+02 0.  0.
         23    2    1    2    0    0 -0.23432359722E+02 -0.15239682050E+02 -0.14261448582E+03  0.17119333491E+03  0.90481727212E+02 0.  0.
        -11    1    4    4    0    0  0.47844703652E+01 -0.47027157375E+02 -0.47494887772E+02  0.67009022168E+02  0.00000000000E+00 0.  1.
         11    1    4    4    0    0 -0.28216830087E+02  0.31787475325E+02 -0.95119598048E+02  0.10418431274E+03  0.00000000000E+00 0. -1.
        -13    1    3    3    0    0  0.10492079598E+02  0.64751509326E+02 -0.13284928984E+03  0.14816131582E+03  0.00000000000E+00 0. -1.
         13    1    3    3    0    0 -0.41855714199E+02 -0.12067216898E+02 -0.12687457927E+03  0.13414424102E+03  0.00000000000E+00 0.  1.
          3    1    1    2  501    0  0.54795994322E+02 -0.37444610378E+02  0.25699527169E+02  0.71169976373E+02  0.00000000000E+00 0. -1.
<scales pt_clust_5="13000.00000" pt_clust_6="13000.00000" pt_clust_7="13000.00000" pt_clust_8="13000.00000" pt_clust_9="66.36791"></scales>
<clustering>
<clus scale="   66.368">  1  9  2 -1</clus>
<clus scale="   90.482">  5  6 -1 -1</clus>
<clus scale="   92.090">  7  8 -1 -1</clus>
<clus scale="   97.702">  1  5  2 -1</clus>
<clus scale="   66.368">  1  5  2 -1</clus>
</clustering>
</event>
<event>
 9    1  0.1601012E-005  0.1342357E+03  0.7546771E-02  0.1230629E+00
         21   -1    0    0  501  502  0.00000000000E+00  0.00000000000E+00  0.15890415720E+03  0.15890415720E+03  0.00000000000E+00 0.  1.
         -2   -1    0    0    0  501 -0.00000000000E+00 -0.00000000000E+00 -0.30540725350E+03  0.30540725350E+03  0.00000000000E+00 0.  1.
         23    2    1    2    0    0 -0.68852176896E+02 -0.12636412852E+01 -0.16440121935E+03  0.21196868917E+03  0.11472029120E+03 0.  0.
         23    2    1    2    0    0  0.48984539173E+02  0.10280409914E+03 -0.15909353319E+02  0.14349359168E+03  0.85843668689E+02 0.  0.
        -11    1    4    4    0    0 -0.77161534644E+01  0.73406865123E+02 -0.27144979134E+02  0.78644496080E+02  0.00000000000E+00 0.  1.
         11    1    4    4    0    0  0.56700692637E+02  0.29397234013E+02  0.11235625815E+02  0.64849095604E+02  0.00000000000E+00 0. -1.
        -11    1    3    3    0    0 -0.56475661045E+02 -0.40802476778E+02 -0.38881041468E+02  0.79787704487E+02  0.00000000000E+00 0. -1.
         11    1    3    3    0    0 -0.12376515852E+02  0.39538835493E+02 -0.12552017788E+03  0.13218098468E+03  0.00000000000E+00 0.  1.
         -2    1    1    2    0  502  0.19867637723E+02 -0.10154045785E+03  0.33807476367E+02  0.10884912984E+03  0.00000000000E+00 0.  1.
<scales pt_clust_5="13000.00000" pt_clust_6="13000.00000" pt_clust_7="13000.00000" pt_clust_8="13000.00000" pt_clust_9="103.46588"></scales>
<clustering>
<clus scale="   85.844">  5  6 -1 -1</clus>
<clus scale="  103.466">  1  9  2 -1</clus>
<clus scale="  110.579">  1  5  2 -1</clus>
<clus scale="  114.720">  7  8 -1 -1</clus>
<clus scale="  103.466">  1  5  2 -1</clus>
</clustering>
</event>
<event>
 9    1  0.1601012E-005  0.9556380E+02  0.7546771E-02  0.1291158E+00
          2   -1    0    0  502    0 -0.00000000000E+00  0.00000000000E+00  0.21217490361E+03  0.21217490361E+03  0.00000000000E+00 0. -1.
         21   -1    0    0  501  502  0.00000000000E+00 -0.00000000000E+00 -0.77931738108E+02  0.77931738108E+02  0.00000000000E+00 0. -1.
         23    2    1    2    0    0  0.11181977311E+02  0.24490600889E+02  0.96790510199E+02  0.13659460769E+03  0.92546517151E+02 0.  0.
         23    2    1    2    0    0 -0.28792623165E+02 -0.17022799008E+01  0.63992428287E+02  0.11434825010E+03  0.90269477225E+02 0.  0.
        -11    1    3    3    0    0  0.22333536913E+02 -0.23759910957E+02  0.76345610785E+02  0.83017904851E+02  0.00000000000E+00 0. -1.
         11    1    3    3    0    0 -0.11151559602E+02  0.48250511846E+02  0.20444899414E+02  0.53576702838E+02  0.00000000000E+00 0.  1.
        -11    1    4    4    0    0  0.13575554785E+02  0.21280008400E+02  0.61045442550E+02  0.66058159990E+02  0.00000000000E+00 0. -1.
         11    1    4    4    0    0 -0.42368177949E+02 -0.22982288301E+02  0.29469857368E+01  0.48290090114E+02  0.00000000000E+00 0.  1.
          2    1    1    2  501    0  0.17610645854E+02 -0.22788320988E+02 -0.26539772986E+02  0.39163783921E+02  0.00000000000E+00 0. -1.
<scales pt_clust_5="13000.00000" pt_clust_6="13000.00000" pt_clust_7="13000.00000" pt_clust_8="13000.00000" pt_clust_9="28.80004"></scales>
<clustering>
<clus scale="   28.800">  2  9  1 -1</clus>
<clus scale="   90.269">  7  8 -1 -1</clus>
<clus scale="   92.547">  5  6 -1 -1</clus>
<clus scale="   93.360">  2  7  1 -1</clus>
<clus scale="   28.800">  2  5  1 -1</clus>
</clustering>
</event>
<event>
 9    1  0.1601012E-005  0.1005862E+03  0.7546771E-02  0.1282342E+00
         21   -1    0    0  501  502  0.00000000000E+00  0.00000000000E+00  0.20664158360E+03  0.20664158360E+03  0.00000000000E+00 0.  1.
          3   -1    0    0  502    0 -0.00000000000E+00 -0.00000000000E+00 -0.98838451253E+02  0.98838451253E+02  0.00000000000E+00 0. -1.
         23    2    1    2    0    0 -0.23243783922E+01  0.24113468614E+02 -0.21082843610E+02  0.94827575603E+02  0.89223991709E+02 0.  0.
         23    2    1    2    0    0 -0.38099645912E+02 -0.43519802432E+02  0.55825400905E+02  0.12492874514E+03  0.95630328634E+02 0.  0.
        -13    1    4    4    0    0 -0.23331964840E+02 -0.73904520222E+02  0.44097957599E+02  0.89167755141E+02  0.00000000000E+00 0. -1.
         13    1    4    4    0    0 -0.14767681073E+02  0.30384717790E+02  0.11727443306E+02  0.35760990002E+02  0.00000000000E+00 0.  1.
        -13    1    3    3    0    0  0.29226521349E+02  0.34804120537E+02  0.12896629670E+02  0.47242347670E+02  0.00000000000E+00 0.  1.
         13    1    3    3    0    0 -0.31550899741E+02 -0.10690651922E+02 -0.33979473280E+02  0.47585227933E+02  0.00000000000E+00 0. -1.
          3    1    1    2  501    0  0.40424024304E+02  0.19406333818E+02  0.73060575051E+02  0.85723714105E+02  0.00000000000E+00 0. -1.
<scales pt_clust_5="13000.00000" pt_clust_6="13000.00000" pt_clust_7="13000.00000" pt_clust_8="13000.00000" pt_clust_9="44.84091"></scales>
<clustering>
<clus scale="   44.841">  1  9  2 -1</clus>
<clus scale="   89.224">  7  8 -1 -1</clus>
<clus scale="   94.516">  2  7  1 -1</clus>
<clus scale="   95.630">  5  6 -1 -1</clus>
<clus scale="   44.841">  1  5  2 -1</clus>
</clustering>
</event>
<event>
 9    1  0.1601012E-005  0.1060467E+03  0.7546771E-02  0.1269193E+00
         21   -1    0    0  501  502  0.00000000000E+00  0.00000000000E+00  0.67163862004E+02  0.67163862004E+02  0.00000000000E+00 0. -1.
          2   -1    0    0  502    0 -0.00000000000E+00 -0.00000000000E+00 -0.27329939464E+03  0.27329939464E+03  0.00000000000E+00 0. -1.
         23    2    1    2    0    0  0.17998390164E+02 -0.65130031047E+02 -0.12391842667E+03  0.17027276746E+03  0.95242720851E+02 0.  0.
         23    2    1    2    0    0  0.62472219587E+01  0.27639109383E+02 -0.79671146459E+02  0.12547023847E+03  0.92694881274E+02 0.  0.
        -11    1    3    3    0    0  0.32047821088E+02 -0.98490848036E+01  0.36138594878E+00  0.33529060645E+02  0.00000000000E+00 0.  1.
         11    1    3    3    0    0 -0.14049430924E+02 -0.55280946243E+02 -0.12427981262E+03  0.13674370681E+03  0.00000000000E+00 0. -1.
        -11    1    4    4    0    0  0.10219107268E+02 -0.24887675229E+02  0.33869263251E+01  0.27116375156E+02  0.00000000000E+00 0.  1.
         11    1    4    4    0    0 -0.39718853096E+01  0.52526784612E+02 -0.83058072784E+02  0.98353863316E+02  0.00000000000E+00 0. -1.
          2    1    1    2  501    0 -0.24245612123E+02  0.37490921664E+02 -0.25459595045E+01  0.44720250717E+02  0.00000000000E+00 0. -1.
<scales pt_clust_5="13000.00000" pt_clust_6="13000.00000" pt_clust_7="13000.00000" pt_clust_8="13000.00000" pt_clust_9="44.64772"></scales>
<clustering>
<clus scale="   44.648">  1  9  2 -1</clus>
<clus scale="   92.695">  7  8 -1 -1</clus>
<clus scale="   95.243">  5  6 -1 -1</clus>
<clus scale="  103.765">  1  7  2 -1</clus>
<clus scale="   44.648">  1  5  2 -1</clus>
</clustering>
</event>
<event>
 9    1  0.1601012E-005  0.2456124E+03  0.7546771E-02  0.1116255E+00
         21   -1    0    0  501  502  0.00000000000E+00  0.00000000000E+00  0.17994961430E+03  0.17994961430E+03  0.00000000000E+00 0. -1.
          2   -1    0    0  502    0 -0.00000000000E+00 -0.00000000000E+00 -0.52687989561E+03  0.52687989561E+03  0.00000000000E+00 0. -1.
         23    2    1    2    0    0 -0.20080677278E+03 -0.98858740101E+02 -0.35468313432E+03  0.43001521691E+03  0.94955518586E+02 0.  0.
         23    2    1    2    0    0  0.21985265343E+03  0.87366056712E+02  0.11223321057E+02  0.25430048637E+03  0.92599985674E+02 0.  0.
        -11    1    4    4    0    0  0.71033361163E+02  0.61716994480E+02 -0.28184674840E+02  0.98229841197E+02  0.00000000000E+00 0. -1.
         11    1    4    4    0    0  0.14881929226E+03  0.25649062232E+02  0.39407995897E+02  0.15607064517E+03  0.00000000000E+00 0.  1.
        -11    1    3    3    0    0 -0.90190716977E+02 -0.90756172678E+02 -0.14953123663E+03  0.19680101381E+03  0.00000000000E+00 0. -1.
         11    1    3    3    0    0 -0.11061605581E+03 -0.81025674235E+01 -0.20515189769E+03  0.23321420310E+03  0.00000000000E+00 0.  1.
          2    1    1    2  501    0 -0.19045880643E+02  0.11492683389E+02 -0.34704680379E+01  0.22513806638E+02  0.00000000000E+00 0. -1.
<scales pt_clust_5="13000.00000" pt_clust_6="13000.00000" pt_clust_7="13000.00000" pt_clust_8="13000.00000" pt_clust_9="22.24471"></scales>
<clustering>
<clus scale="   22.245">  1  9  2 -1</clus>
<clus scale="   92.600">  5  6 -1 -1</clus>
<clus scale="   94.956">  7  8 -1 -1</clus>
<clus scale="  244.711">  1  5  2 -1</clus>
<clus scale="   22.245">  1  5  2 -1</clus>
</clustering>
</event>
<event>
 9    1  0.1601012E-005  0.1896771E+03  0.7546771E-02  0.1160382E+00
          1   -1    0    0  502    0 -0.00000000000E+00  0.00000000000E+00  0.12117453954E+04  0.12117453954E+04  0.00000000000E+00 0. -1.
         21   -1    0    0  501  502  0.00000000000E+00 -0.00000000000E+00 -0.43854689854E+02  0.43854689854E+02  0.00000000000E+00 0.  1.
         23    2    1    2    0    0  0.10953195975E+03 -0.10267644431E+03  0.58538131355E+03  0.61337774120E+03  0.10498223048E+03 0.  0.
         23    2    1    2    0    0 -0.13665333536E+03  0.96458879125E+02  0.58400701570E+03  0.61435713263E+03  0.91608092426E+02 0.  0.
        -13    1    3    3    0    0  0.92646692369E+02 -0.15890810785E+02  0.27324959045E+03  0.28896585638E+03  0.00000000000E+00 0. -1.
         13    1    3    3    0    0  0.16885267379E+02 -0.86785633529E+02  0.31213172310E+03  0.32441188481E+03  0.00000000000E+00 0.  1.
        -13    1    4    4    0    0 -0.95463973126E+02  0.63840227403E+02  0.51486277446E+03  0.52751551762E+03  0.00000000000E+00 0.  1.
         13    1    4    4    0    0 -0.41189362235E+02  0.32618651722E+02  0.69144241238E+02  0.86841615012E+02  0.00000000000E+00 0. -1.
          1    1    1    2  501    0  0.27121375614E+02  0.62175651883E+01 -0.14976236916E+01  0.27865211443E+02  0.00000000000E+00 0. -1.
<scales pt_clust_5="13000.00000" pt_clust_6="13000.00000" pt_clust_7="13000.00000" pt_clust_8="13000.00000" pt_clust_9="27.82494"></scales>
<clustering>
<clus scale="   27.825">  2  9  1 -1</clus>
<clus scale="   91.608">  7  8 -1 -1</clus>
<clus scale="  104.982">  5  6 -1 -1</clus>
<clus scale="  182.615">  2  7  1 -1</clus>
<clus scale="   27.825">  2  5  1 -1</clus>
</clustering>
</event>
<event>
 9    1  0.1601012E-005  0.9180703E+02  0.7546771E-02  0.1299402E+00
          2   -1    0    0  502    0 -0.00000000000E+00  0.00000000000E+00  0.22180466207E+03  0.22180466207E+03  0.00000000000E+00 0. -1.
         21   -1    0    0  501  502  0.00000000000E+00 -0.00000000000E+00 -0.69120852135E+02  0.69120852135E+02  0.00000000000E+00 0.  1.
         23    2    1    2    0    0  0.33505538480E+01  0.83053337725E+01  0.10058328018E+03  0.13529425899E+03  0.90040743462E+02 0.  0.
         23    2    1    2    0    0  0.18443260459E+02  0.33092522358E+02  0.43001706037E+02  0.10797056463E+03  0.91505339803E+02 0.  0.
        -11    1    3    3    0    0  0.44072093985E+02  0.14378533175E+02  0.70198017649E+02  0.84124035604E+02  0.00000000000E+00 0.  1.
         11    1    3    3    0    0 -0.40721540137E+02 -0.60731994021E+01  0.30385262531E+02  0.51170223384E+02  0.00000000000E+00 0. -1.
        -13    1    4    4    0    0 -0.26336515466E+02  0.69949893625E+01  0.48723760154E+02  0.55826039861E+02  0.00000000000E+00 0. -1.
         13    1    4    4    0    0  0.44779775924E+02  0.26097532996E+02 -0.57220541161E+01  0.52144524771E+02  0.00000000000E+00 0.  1.
          2    1    1    2  501    0 -0.21793814307E+02 -0.41397856131E+02  0.90988237208E+01  0.47660690588E+02  0.00000000000E+00 0. -1.
<scales pt_clust_5="13000.00000" pt_clust_6="13000.00000" pt_clust_7="13000.00000" pt_clust_8="13000.00000" pt_clust_9="46.78411"></scales>
<clustering>
<clus scale="   46.784">  2  9  1 -1</clus>
<clus scale="   90.041">  5  6 -1 -1</clus>
<clus scale="   90.347">  1  5  2 -1</clus>
<clus scale="   91.505">  7  8 -1 -1</clus>
<clus scale="   46.784">  2  5  1 -1</clus>
</clustering>
</event>
<event>
 9    1  0.1601012E-005  0.1556452E+03  0.7546771E-02  0.1199612E+00
         21   -1    0    0  501  502  0.00000000000E+00  0.00000000000E+00  0.33428221013E+03  0.33428221013E+03  0.00000000000E+00 0. -1.
          2   -1    0    0  502    0 -0.00000000000E+00 -0.00000000000E+00 -0.29672461272E+03  0.29672461272E+03  0.00000000000E+00 0. -1.
         23    2    1    2    0    0  0.49521805880E+02 -0.81862411449E+02 -0.24642553128E+03  0.29342611558E+03  0.12735571904E+03 0.  0.
         23    2    1    2    0    0 -0.48600185383E+02  0.14628775618E+02  0.17656587896E+03  0.21085392749E+03  0.10347893519E+03 0.  0.
        -11    1    4    4    0    0  0.44893657960E+01  0.22897402722E+02 -0.29044332466E+01  0.23513425721E+02  0.00000000000E+00 0.  1.
         11    1    4    4    0    0 -0.53089551179E+02 -0.82686271036E+01  0.17947031221E+03  0.18734050177E+03  0.00000000000E+00 0. -1.
        -11    1    3    3    0    0 -0.30889170172E+02 -0.62454014643E+01 -0.12679338462E+03  0.13065109359E+03  0.00000000000E+00 0.  1.
         11    1    3    3    0    0  0.80410976052E+02 -0.75617009985E+02 -0.11963214666E+03  0.16277502199E+03  0.00000000000E+00 0. -1.
          2    1    1    2  501    0 -0.92162049642E+00  0.67233635831E+02  0.10741724974E+03  0.12672677978E+03  0.00000000000E+00 0. -1.
<scales pt_clust_5="13000.00000" pt_clust_6="13000.00000" pt_clust_7="13000.00000" pt_clust_8="13000.00000" pt_clust_9="67.23995"></scales>
<clustering>
<clus scale="   67.240">  1  9  2 -1</clus>
<clus scale="  103.479">  5  6 -1 -1</clus>
<clus scale="  127.356">  7  8 -1 -1</clus>
<clus scale="  136.799">  1  5  2 -1</clus>
<clus scale="   67.240">  1  5  2 -1</clus>
</clustering>
</event>
<event>
 9    1  0.1601012E-005  0.1017707E+03  0.7546771E-02  0.1281158E+00
          1   -1    0    0  502    0 -0.00000000000E+00  0.00000000000E+00  0.26839073557E+03  0.26839073557E+03  0.00000000000E+00 0. -1.
         21   -1    0    0  501  502  0.00000000000E+00 -0.00000000000E+00 -0.10239867750E+03  0.10239867750E+03  0.00000000000E+00 0.  1.
         23    2    1    2    0    0  0.45184642389E+02 -0.19445379409E+02  0.21225829177E+03  0.23186417385E+03  0.79294627805E+02 0.  0.
         23    2    1    2    0    0 -0.34782050698E+02  0.42448489221E+02 -0.44253546509E+02  0.11359920747E+03  0.89077147857E+02 0.  0.
        -11    1    3    3    0    0  0.85687087469E+01  0.23385086762E+02  0.21319304774E+02  0.32784109085E+02  0.00000000000E+00 0.  1.
         11    1    3    3    0    0  0.36615933642E+02 -0.42830466172E+02  0.19093898700E+03  0.19908006476E+03  0.00000000000E+00 0. -1.
        -11    1    4    4    0    0 -0.24705013915E+02  0.10414505205E+02  0.24984358670E+02  0.36647207388E+02  0.00000000000E+00 0. -1.
         11    1    4    4    0    0 -0.10077036783E+02  0.32033984016E+02 -0.69237905180E+02  0.76952000077E+02  0.00000000000E+00 0.  1.
          1    1    1    2  501    0 -0.10402591691E+02 -0.23003109812E+02 -0.20126871916E+01  0.25326031758E+02  0.00000000000E+00 0. -1.
<scales pt_clust_5="13000.00000" pt_clust_6="13000.00000" pt_clust_7="13000.00000" pt_clust_8="13000.00000" pt_clust_9="25.24593"></scales>
<clustering>
<clus scale="   25.246">  2  9  1 -1</clus>
<clus scale="   79.295">  5  6 -1 -1</clus>
<clus scale="   89.077">  7  8 -1 -1</clus>
<clus scale="   93.328">  1  5  2 -1</clus>
<clus scale="   25.246">  2  5  1 -1</clus>
</clustering>
</event>
<event>
 9    1  0.1601012E-005  0.1028453E+03  0.7546771E-02  0.1275712E+00
         21   -1    0    0  501  502  0.00000000000E+00  0.00000000000E+00  0.12580061282E+03  0.12580061282E+03  0.00000000000E+00 0. -1.
          1   -1    0    0  502    0 -0.00000000000E+00 -0.00000000000E+00 -0.40603869240E+03  0.40603869240E+03  0.00000000000E+00 0. -1.
         23    2    1    2    0    0  0.48994858990E+01 -0.60012836923E+02 -0.25321304972E+03  0.27472841763E+03  0.87939236669E+02 0.  0.
         23    2    1    2    0    0 -0.66026990260E+02  0.58544824575E+00 -0.95793382817E+02  0.14757882524E+03  0.90792242369E+02 0.  0.
        -13    1    4    4    0    0  0.72584588604E+01  0.31455307422E+02 -0.21770801169E+02  0.38936992354E+02  0.00000000000E+00 0.  1.
         13    1    4    4    0    0 -0.73285449120E+02 -0.30869859176E+02 -0.74022581648E+02  0.10864183288E+03  0.00000000000E+00 0. -1.
        -13    1    3    3    0    0  0.36195612001E+02 -0.60965063044E+02 -0.20784240064E+03  0.21960265195E+03  0.00000000000E+00 0.  1.
         13    1    3    3    0    0 -0.31296126102E+02  0.95222612064E+00 -0.45370649089E+02  0.55125765685E+02  0.00000000000E+00 0. -1.
          1    1    1    2  501    0  0.61127504361E+02  0.59427388678E+02  0.68768352964E+02  0.10953206236E+03  0.00000000000E+00 0. -1.
<scales pt_clust_5="13000.00000" pt_clust_6="13000.00000" pt_clust_7="13000.00000" pt_clust_8="13000.00000" pt_clust_9="85.25366"></scales>
<clustering>
<clus scale="   85.254">  1  9  2 -1</clus>
<clus scale="   87.939">  7  8 -1 -1</clus>
<clus scale="   90.792">  5  6 -1 -1</clus>
<clus scale="  100.336">  2  7  1 -1</clus>
<clus scale="   85.254">  1  5  2 -1</clus>
</clustering>
</event>
<event>
 9    1  0.1601012E-005  0.1639317E+03  0.7546771E-02  0.1184335E+00
         21   -1    0    0  501  502  0.00000000000E+00  0.00000000000E+00  0.78948486850E+02  0.78948486850E+02  0.00000000000E+00 0.  1.
          2   -1    0    0  502    0 -0.00000000000E+00 -0.00000000000E+00 -0.97526924930E+03  0.97526924930E+03  0.00000000000E+00 0. -1.
         23    2    1    2    0    0  0.48122303868E+02 -0.14016258286E+03 -0.72929847942E+03  0.74942456416E+03  0.88315341388E+02 0.  0.
         23    2    1    2    0    0 -0.18644346583E+02  0.11445245425E+03 -0.20417258100E+03  0.25084778000E+03  0.88267717512E+02 0.  0.
        -11    1    3    3    0    0 -0.25004959857E+02 -0.20882152999E+02 -0.13295831158E+03  0.13689128880E+03  0.00000000000E+00 0. -1.
         11    1    3    3    0    0  0.73127263725E+02 -0.11928042986E+03 -0.59634016783E+03  0.61253327536E+03  0.00000000000E+00 0.  1.
        -13    1    4    4    0    0 -0.26814126305E+02  0.47530558735E+02 -0.16290226268E+03  0.17180017046E+03  0.00000000000E+00 0.  1.
         13    1    4    4    0    0  0.81697797222E+01  0.66921895515E+02 -0.41270318322E+02  0.79047609543E+02  0.00000000000E+00 0. -1.
          2    1    1    2  501    0 -0.29477957285E+02  0.25710128608E+02  0.37150297963E+02  0.53945391995E+02  0.00000000000E+00 0. -1.
<scales pt_clust_5="13000.00000" pt_clust_6="13000.00000" pt_clust_7="13000.00000" pt_clust_8="13000.00000" pt_clust_9="39.11471"></scales>
<clustering>
<clus scale="   39.115">  1  9  2 -1</clus>
<clus scale="   88.268">  7  8 -1 -1</clus>
<clus scale="   88.315">  5  6 -1 -1</clus>
<clus scale="  163.906">  1  7  2 -1</clus>
<clus scale="   39.115">  1  5  2 -1</clus>
</clustering>
</event>
<event>
 9    1  0.1601012E-005  0.1060921E+03  0.7546771E-02  0.1268427E+00
         21   -1    0    0  501  502  0.00000000000E+00  0.00000000000E+00  0.97629751860E+02  0.97629751860E+02  0.00000000000E+00 0. -1.
          2   -1    0    0  502    0 -0.00000000000E+00 -0.00000000000E+00 -0.56665333860E+03  0.56665333860E+03  0.00000000000E+00 0. -1.
         23    2    1    2    0    0  0.41430710731E+02 -0.40662362751E+01 -0.26484085427E+03  0.28301110659E+03  0.90672875194E+02 0.  0.
         23    2    1    2    0    0 -0.57979286485E+02  0.46270175182E+02 -0.27383641209E+03  0.29816564895E+03  0.91727023559E+02 0.  0.
        -13    1    3    3    0    0 -0.11083239349E+02  0.32351980802E+02 -0.11825407020E+03  0.12309960997E+03  0.00000000000E+00 0. -1.
         13    1    3    3    0    0  0.52513950079E+02 -0.36418217077E+02 -0.14658678407E+03  0.15991149662E+03  0.00000000000E+00 0.  1.
        -13    1    4    4    0    0  0.23060049719E+02  0.13841488381E+02 -0.36891748556E+02  0.45654723799E+02  0.00000000000E+00 0.  1.
         13    1    4    4    0    0 -0.81039336204E+02  0.32428686801E+02 -0.23694466354E+03  0.25251092515E+03  0.00000000000E+00 0. -1.
          2    1    1    2  501    0  0.16548575754E+02 -0.42203938907E+02  0.69653679623E+02  0.83106334920E+02  0.00000000000E+00 0. -1.
<scales pt_clust_5="13000.00000" pt_clust_6="13000.00000" pt_clust_7="13000.00000" pt_clust_8="13000.00000" pt_clust_9="45.33241"></scales>
<clustering>
<clus scale="   45.332">  1  9  2 -1</clus>
<clus scale="   90.673">  5  6 -1 -1</clus>
<clus scale="   91.727">  7  8 -1 -1</clus>
<clus scale="  105.182">  2  5  1 -1</clus>
<clus scale="   45.332">  1  5  2 -1</clus>
</clustering>
</event>
<event>
 9    1  0.1601012E-005  0.9467221E+02  0.7546771E-02  0.1292029E+00
         -3   -1    0    0    0  501 -0.00000000000E+00  0.00000000000E+00  0.32411055814E+03  0.32411055814E+03  0.00000000000E+00 0.  1.
         21   -1    0    0  501  502  0.00000000000E+00 -0.00000000000E+00 -0.68064204490E+02  0.68064204490E+02  0.00000000000E+00 0. -1.
         23    2    1    2    0    0 -0.21327790173E+02  0.40001981326E+02  0.20857177025E+03  0.23163600340E+03  0.89989008135E+02 0.  0.
         23    2    1    2    0    0  0.19866654760E+01  0.15043799716E+02  0.45506955218E+02  0.10216077814E+03  0.90197998130E+02 0.  0.
        -11    1    4    4    0    0  0.44691418517E+02  0.66890545911E+01  0.35613371412E+02  0.57535889354E+02  0.00000000000E+00 0.  1.
         11    1    4    4    0    0 -0.42704753041E+02  0.83547451246E+01  0.98935838053E+01  0.44624888783E+02  0.00000000000E+00 0. -1.
        -11    1    3    3    0    0  0.22169491136E+02 -0.12058510677E+02  0.10375887736E+03  0.10678388758E+03  0.00000000000E+00 0.  1.
         11    1    3    3    0    0 -0.43497281309E+02  0.52060492002E+02  0.10481289289E+03  0.12485211582E+03  0.00000000000E+00 0. -1.
         -3    1    1    2    0  502  0.19341124697E+02 -0.55045781042E+02  0.19676281818E+01  0.58377981086E+02  0.00000000000E+00 0.  1.
<scales pt_clust_5="13000.00000" pt_clust_6="13000.00000" pt_clust_7="13000.00000" pt_clust_8="13000.00000" pt_clust_9="58.34481"></scales>
<clustering>
<clus scale="   58.345">  2  9  1 -1</clus>
<clus scale="   89.989">  7  8 -1 -1</clus>
<clus scale="   90.198">  5  6 -1 -1</clus>
<clus scale="   94.473">  1  7  2 -1</clus>
<clus scale="   58.345">  2  5  1 -1</clus>
</clustering>
</event>
<event>
 9    1  0.1601012E-005  0.9611038E+02  0.7546771E-02  0.1289781E+00
          1   -1    0    0  502    0 -0.00000000000E+00  0.00000000000E+00  0.14275044058E+03  0.14275044058E+03  0.00000000000E+00 0. -1.
         21   -1    0    0  501  502  0.00000000000E+00 -0.00000000000E+00 -0.21513036315E+03  0.21513036315E+03  0.00000000000E+00 0. -1.
         23    2    1    2    0    0  0.14389740981E+02 -0.19612304296E+02  0.88650266363E+02  0.13092256687E+03  0.93220929329E+02 0.  0.
         23    2    1    2    0    0 -0.35055897814E+02 -0.70761118941E+01 -0.48213845208E+02  0.10920048123E+03  0.91220517980E+02 0.  0.
        -11    1    3    3    0    0  0.41017513472E+02 -0.43986322064E+02  0.52488462557E+02  0.79826509642E+02  0.00000000000E+00 0.  1.
         11    1    3    3    0    0 -0.26627772491E+02  0.24374017768E+02  0.36161803806E+02  0.51096057230E+02  0.00000000000E+00 0. -1.
        -13    1    4    4    0    0 -0.28850280325E+02  0.38196570858E+02 -0.40821597435E+02  0.62910408656E+02  0.00000000000E+00 0.  1.
         13    1    4    4    0    0 -0.62056174888E+01 -0.45272682752E+02 -0.73922477727E+01  0.46290072576E+02  0.00000000000E+00 0. -1.
          1    1    1    2  501    0  0.20666156832E+02  0.26688416190E+02 -0.11281634373E+03  0.11775775562E+03  0.00000000000E+00 0. -1.
<scales pt_clust_5="13000.00000" pt_clust_6="13000.00000" pt_clust_7="13000.00000" pt_clust_8="13000.00000" pt_clust_9="33.75443"></scales>
<clustering>
<clus scale="   33.754">  2  9  1 -1</clus>
<clus scale="   91.221">  7  8 -1 -1</clus>
<clus scale="   93.221">  5  6 -1 -1</clus>
<clus scale="   94.171">  2  7  1 -1</clus>
<clus scale="   33.754">  2  5  1 -1</clus>
</clustering>
</event>
<event>
 9    1  0.1601012E-005  0.1507633E+03  0.7546771E-02  0.1201214E+00
         21   -1    0    0  501  502  0.00000000000E+00  0.00000000000E+00  0.26078846717E+03  0.26078846717E+03  0.00000000000E+00 0.  1.
          2   -1    0    0  502    0 -0.00000000000E+00 -0.00000000000E+00 -0.12815374166E+03  0.12815374166E+03  0.00000000000E+00 0. -1.
         23    2    1    2    0    0 -0.57278543853E+02  0.11030111061E+03 -0.21237791427E+02  0.16012438520E+03  0.98699586444E+02 0.  0.
         23    2    1    2    0    0  0.42016993438E+02 -0.78388908543E+02  0.14456371682E+03  0.19223972469E+03  0.90261812578E+02 0.  0.
        -11    1    4    4    0    0 -0.63196619468E+01 -0.24765857987E+02 -0.51096332544E+01  0.26065191366E+02  0.00000000000E+00 0. -1.
         11    1    4    4    0    0  0.48336655384E+02 -0.53623050555E+02  0.14967335007E+03  0.16617453332E+03  0.00000000000E+00 0.  1.
        -11    1    3    3    0    0 -0.42705586166E+02  0.20852168012E+01 -0.27358505696E+02  0.50760250717E+02  0.00000000000E+00 0. -1.
         11    1    3    3    0    0 -0.14572957686E+02  0.10821589381E+03  0.61207142695E+01  0.10936413449E+03  0.00000000000E+00 0.  1.
          2    1    1    2  501    0  0.15261550415E+02 -0.31912202069E+02  0.93088001288E+01  0.36578098936E+02  0.00000000000E+00 0. -1.
<scales pt_clust_5="13000.00000" pt_clust_6="13000.00000" pt_clust_7="13000.00000" pt_clust_8="13000.00000" pt_clust_9="35.37379"></scales>
<clustering>
<clus scale="   35.374">  1  9  2 -1</clus>
<clus scale="   90.262">  5  6 -1 -1</clus>
<clus scale="   98.700">  7  8 -1 -1</clus>
<clus scale="  145.379">  1  5  2 -1</clus>
<clus scale="   35.374">  1  5  2 -1</clus>
</clustering>
</event>
<event>
 9    1  0.1601012E-005  0.2573077E+03  0.7546771E-02  0.1109973E+00
          2   -1    0    0  502    0 -0.00000000000E+00  0.00000000000E+00  0.11982255365E+04  0.11982255365E+04  0.00000000000E+00 0. -1.
         21   -1    0    0  501  502  0.00000000000E+00 -0.00000000000E+00 -0.90702607131E+02  0.90702607131E+02  0.00000000000E+00 0.  1.
         23    2    1    2    0    0 -0.37910863322E+02  0.24475636804E+03  0.84305422996E+03  0.88352676942E+03  0.92391581659E+02 0.  0.
         23    2    1    2    0    0  0.54353693240E+02 -0.21838288049E+03  0.28403418941E+03  0.36867623427E+03  0.67833166675E+02 0.  0.
        -11    1    3    3    0    0 -0.11253026270E+01  0.16421148808E+03  0.41297198620E+03  0.44442382982E+03  0.00000000000E+00 0.  1.
         11    1    3    3    0    0 -0.36785560695E+02  0.80544879958E+02  0.43008224376E+03  0.43910293960E+03  0.00000000000E+00 0. -1.
        -13    1    4    4    0    0 -0.10826963458E+02 -0.51612530684E+02  0.40969592323E+02  0.66780116476E+02  0.00000000000E+00 0. -1.
         13    1    4    4    0    0  0.65180656698E+02 -0.16677034981E+03  0.24306459709E+03  0.30189611779E+03  0.00000000000E+00 0.  1.
          2    1    1    2  501    0 -0.16442829918E+02 -0.26373487550E+02 -0.19565490037E+02  0.36725139913E+02  0.00000000000E+00 0. -1.
<scales pt_clust_5="13000.00000" pt_clust_6="13000.00000" pt_clust_7="13000.00000" pt_clust_8="13000.00000" pt_clust_9="31.07937"></scales>
<clustering>
<clus scale="   31.079">  2  9  1 -1</clus>
<clus scale="   67.833">  7  8 -1 -1</clus>
<clus scale="   92.392">  5  6 -1 -1</clus>
<clus scale="  249.544">  2  7  1 -1</clus>
<clus scale="   31.079">  2  5  1 -1</clus>
</clustering>
</event>
<event>
 9    1  0.1601012E-005  0.9475535E+02  0.7546771E-02  0.1292566E+00
          2   -1    0    0  502    0 -0.00000000000E+00  0.00000000000E+00  0.48349961760E+03  0.48349961760E+03  0.00000000000E+00 0. -1.
         21   -1    0    0  501  502  0.00000000000E+00 -0.00000000000E+00 -0.29417967956E+02  0.29417967956E+02  0.00000000000E+00 0.  1.
         23    2    1    2    0    0  0.13733400865E+02  0.10496282711E+02  0.26785732819E+03  0.28334785789E+03  0.90772694421E+02 0.  0.
         23    2    1    2    0    0 -0.52153790441E+01 -0.32027297432E+02  0.18113560954E+03  0.20586242332E+03  0.92283694829E+02 0.  0.
        -13    1    4    4    0    0  0.38357640680E+02  0.46469688922E+01  0.52524171765E+02  0.65204996265E+02  0.00000000000E+00 0.  1.
         13    1    4    4    0    0 -0.43573019724E+02 -0.36674266324E+02  0.12861143778E+03  0.14065742706E+03  0.00000000000E+00 0. -1.
        -13    1    3    3    0    0  0.47576936532E+02 -0.11057152699E+02  0.10800106493E+03  0.11853293020E+03  0.00000000000E+00 0.  1.
         13    1    3    3    0    0 -0.33843535667E+02  0.21553435411E+02  0.15985626326E+03  0.16481492769E+03  0.00000000000E+00 0. -1.
          2    1    1    2  501    0 -0.85180218205E+01  0.21531014721E+02  0.50887119081E+01  0.23707304349E+02  0.00000000000E+00 0. -1.
<scales pt_clust_5="13000.00000" pt_clust_6="13000.00000" pt_clust_7="13000.00000" pt_clust_8="13000.00000" pt_clust_9="23.15473"></scales>
<clustering>
<clus scale="   23.155">  2  9  1 -1</clus>
<clus scale="   90.773">  7  8 -1 -1</clus>
<clus scale="   92.284">  5  6 -1 -1</clus>
<clus scale="   93.284">  1  7  2 -1</clus>
<clus scale="   23.155">  2  5  1 -1</clus>
</clustering>
</event>
<event>
 9    1  0.2408526E-005  0.1843993E+03  0.7546771E-02  0.1164275E+00
          3   -1    0    0  502    0 -0.00000000000E+00  0.00000000000E+00  0.13120364791E+03  0.13120364791E+03  0.00000000000E+00 0. -1.
         21   -1    0    0  501  502  0.00000000000E+00 -0.00000000000E+00 -0.92355672533E+03  0.92355672533E+03  0.00000000000E+00 0.  1.
         23    2    1    2    0    0 -0.23958904028E+02 -0.15487404552E+03  0.32061194905E+02  0.18257955564E+03  0.88019173256E+02 0.  0.
         23    2    1    2    0    0  0.69945506213E+02  0.17188859422E+03 -0.77566771623E+03  0.80303973589E+03  0.93671493894E+02 0.  0.
        -11    1    4    4    0    0 -0.21367846324E+01  0.27914330066E+02 -0.33742257785E+02  0.43844220053E+02  0.00000000000E+00 0. -1.
         11    1    4    4    0    0  0.72082290845E+02  0.14397426416E+03 -0.74192545844E+03  0.75919551584E+03  0.00000000000E+00 0.  1.
        -11    1    3    3    0    0  0.16696914289E+02 -0.54914755411E+02 -0.22512087968E+02  0.61653965106E+02  0.00000000000E+00 0.  1.
         11    1    3    3    0    0 -0.40655818318E+02 -0.99959290105E+02  0.54573282872E+02  0.12092559053E+03  0.00000000000E+00 0. -1.
          3    1    1    2  501    0 -0.45986602184E+02 -0.17014548708E+02 -0.48746556101E+02  0.69141081709E+02  0.00000000000E+00 0. -1.
<scales pt_clust_5="13000.00000" pt_clust_6="13000.00000" pt_clust_7="13000.00000" pt_clust_8="13000.00000" pt_clust_9="49.03330"></scales>
<clustering>
<clus scale="   49.033">  2  9  1 -1</clus>
<clus scale="   88.019">  7  8 -1 -1</clus>
<clus scale="   93.671">  5  6 -1 -1</clus>
<clus scale="  181.593">  1  7  2 -1</clus>
<clus scale="   49.033">  2  5  1 -1</clus>
</clustering>
</event>
<event>
 9    1  0.1601012E-005  0.3618609E+03  0.7546771E-02  0.1058363E+00
         -1   -1    0    0    0  501 -0.00000000000E+00  0.00000000000E+00  0.32122100825E+03  0.32122100825E+03  0.00000000000E+00 0.  1.
         21   -1    0    0  501  502  0.00000000000E+00 -0.00000000000E+00 -0.13412652095E+04  0.13412652095E+04  0.00000000000E+00 0.  1.
         23    2    1    2    0    0  0.30244359860E+03  0.18527686866E+03 -0.51039408530E+02  0.36952598126E+03  0.90248441604E+02 0.  0.
         23    2    1    2    0    0 -0.17715954375E+03 -0.31112433559E+03 -0.75242706269E+02  0.38172791348E+03  0.10895356325E+03 0.  0.
        -11    1    4    4    0    0 -0.16333516582E+03 -0.26203061374E+03 -0.10063308590E+03  0.32475442554E+03  0.00000000000E+00 0. -1.
         11    1    4    4    0    0 -0.13824377928E+02 -0.49093721850E+02  0.25390379630E+02  0.56973487939E+02  0.00000000000E+00 0.  1.
        -11    1    3    3    0    0  0.25965376539E+03  0.18036225032E+03 -0.67748695576E+02  0.32332724131E+03  0.00000000000E+00 0.  1.
         11    1    3    3    0    0  0.42789833207E+02  0.49146183358E+01  0.16709287046E+02  0.46198739949E+02  0.00000000000E+00 0. -1.
         -1    1    1    2    0  502 -0.12528405485E+03  0.12584746693E+03 -0.89376208646E+03  0.91123232302E+03  0.00000000000E+00 0.  1.
<scales pt_clust_5="13000.00000" pt_clust_6="13000.00000" pt_clust_7="13000.00000" pt_clust_8="13000.00000" pt_clust_9="177.57725"></scales>
<clustering>
<clus scale="   90.248">  7  8 -1 -1</clus>
<clus scale="  108.954">  5  6 -1 -1</clus>
<clus scale="  177.577">  2  9  1 -1</clus>
<clus scale="  356.675">  1  7  2 -1</clus>
<clus scale="  177.577">  2  5  1 -1</clus>
</clustering>
</event>
<event>
 9    1  0.1601012E-005  0.1022461E+03  0.7546771E-02  0.1280424E+00
          1   -1    0    0  502    0 -0.00000000000E+00  0.00000000000E+00  0.13311376700E+03  0.13311376700E+03  0.00000000000E+00 0. -1.
         21   -1    0    0  501  502  0.00000000000E+00 -0.00000000000E+00 -0.30457765739E+03  0.30457765739E+03  0.00000000000E+00 0. -1.
         23    2    1    2    0    0 -0.40940442647E+02 -0.15916630693E+02  0.20726480824E+02  0.95258505938E+02  0.81945939311E+02 0.  0.
         23    2    1    2    0    0 -0.52842684861E+01  0.70112053664E+02  0.20995557932E+02  0.11766168324E+03  0.91977359646E+02 0.  0.
        -13    1    3    3    0    0 -0.64223793560E+02 -0.59533776985E+00  0.20386059947E+02  0.67384282488E+02  0.00000000000E+00 0. -1.
         13    1    3    3    0    0  0.23283350913E+02 -0.15321292923E+02  0.34042087634E+00  0.27874223450E+02  0.00000000000E+00 0.  1.
        -13    1    4    4    0    0 -0.26649094401E+02 -0.13215169450E+02  0.49220599081E+01  0.30150316909E+02  0.00000000000E+00 0.  1.
         13    1    4    4    0    0  0.21364825915E+02  0.83327223114E+02  0.16073498024E+02  0.87511366330E+02  0.00000000000E+00 0. -1.
          1    1    1    2  501    0  0.46224711133E+02 -0.54195422971E+02 -0.21318592915E+03  0.22477123521E+03  0.00000000000E+00 0. -1.
<scales pt_clust_5="13000.00000" pt_clust_6="13000.00000" pt_clust_7="13000.00000" pt_clust_8="13000.00000" pt_clust_9="71.23109"></scales>
<clustering>
<clus scale="   71.231">  2  9  1 -1</clus>
<clus scale="   81.946">  5  6 -1 -1</clus>
<clus scale="   91.977">  7  8 -1 -1</clus>
<clus scale="   93.325">  1  5  2 -1</clus>
<clus scale="   71.231">  2  5  1 -1</clus>
</clustering>
</event>
<event>
 9    1  0.1601012E-005  0.9283653E+02  0.7546771E-02  0.1296346E+00
          2   -1    0    0  502    0 -0.00000000000E+00  0.00000000000E+00  0.36411044452E+03  0.36411044452E+03  0.00000000000E+00 0. -1.
         21   -1    0    0  501  502  0.00000000000E+00 -0.00000000000E+00 -0.39292735231E+02  0.39292735231E+02  0.00000000000E+00 0.  1.
         23    2    1    2    0    0 -0.22453374930E+02 -0.16115159550E+02  0.18662212042E+03  0.20986846574E+03  0.91940767183E+02 0.  0.
         23    2    1    2    0    0 -0.16084805688E+02 -0.92787605552E+00  0.88154021704E+02  0.12811441997E+03  0.91556491487E+02 0.  0.
        -13    1    3    3    0    0 -0.49152499930E+01 -0.53928065692E+02  0.11162040518E+03  0.12406252780E+03  0.00000000000E+00 0.  1.
         13    1    3    3    0    0 -0.17538124937E+02  0.37812906142E+02  0.75001715235E+02  0.85805937938E+02  0.00000000000E+00 0. -1.
        -13    1    4    4    0    0 -0.35437139508E+02 -0.24742011364E+02  0.10298596305E+02  0.44429934377E+02  0.00000000000E+00 0.  1.
         13    1    4    4    0    0  0.19352333820E+02  0.23814135309E+02  0.77855425399E+02  0.83684485592E+02  0.00000000000E+00 0. -1.
          2    1    1    2  501    0  0.38538180618E+02  0.17043035606E+02  0.50041567170E+02  0.65420294044E+02  0.00000000000E+00 0. -1.
<scales pt_clust_5="13000.00000" pt_clust_6="13000.00000" pt_clust_7="13000.00000" pt_clust_8="13000.00000" pt_clust_9="42.13854"></scales>
<clustering>
<clus scale="   42.139">  2  9  1 -1</clus>
<clus scale="   91.556">  7  8 -1 -1</clus>
<clus scale="   91.941">  5  6 -1 -1</clus>
<clus scale="   92.456">  2  7  1 -1</clus>
<clus scale="   42.139">  2  5  1 -1</clus>
</clustering>
</event>
<event>
 9    1  0.1601012E-005  0.1602756E+03  0.7546771E-02  0.1205000E+00
          2   -1    0    0  502    0 -0.00000000000E+00  0.00000000000E+00  0.58110416047E+02  0.58110416047E+02  0.00000000000E+00 0. -1.
         21   -1    0    0  501  502  0.00000000000E+00 -0.00000000000E+00 -0.10041382401E+04  0.10041382401E+04  0.00000000000E+00 0. -1.
         23    2    1    2    0    0 -0.54804001737E+02  0.18745342036E+02 -0.36081621154E+03  0.37765031699E+03  0.95270965997E+02 0.  0.
         23    2    1    2    0    0 -0.19434660393E+02 -0.13152881699E+03 -0.12062037204E+03  0.20078379627E+03  0.89929544488E+02 0.  0.
        -13    1    3    3    0    0 -0.47965163402E+02 -0.32393797761E+02 -0.22613912449E+03  0.23342861577E+03  0.00000000000E+00 0. -1.
         13    1    3    3    0    0 -0.68388383357E+01  0.51139139797E+02 -0.13467708704E+03  0.14422170122E+03  0.00000000000E+00 0.  1.
        -13    1    4    4    0    0 -0.13984660868E+02 -0.66285121880E+02 -0.11701928542E+03  0.13521390935E+03  0.00000000000E+00 0.  1.
         13    1    4    4    0    0 -0.54499995254E+01 -0.65243695106E+02 -0.36010866205E+01  0.65569886920E+02  0.00000000000E+00 0. -1.
          2    1    1    2  501    0  0.74238662131E+02  0.11278347495E+03 -0.46459124046E+03  0.48381454287E+03  0.00000000000E+00 0. -1.
<scales pt_clust_5="13000.00000" pt_clust_6="13000.00000" pt_clust_7="13000.00000" pt_clust_8="13000.00000" pt_clust_9="132.66861"></scales>
<clustering>
<clus scale="   89.930">  7  8 -1 -1</clus>
<clus scale="   95.271">  5  6 -1 -1</clus>
<clus scale="  111.496">  1  5  2 -1</clus>
<clus scale="  132.669">  2  9  1 -1</clus>
<clus scale="  132.669">  2  5  1 -1</clus>
</clustering>
</event>
<event>
 9    1  0.1601012E-005  0.9382766E+02  0.7546771E-02  0.1295432E+00
         21   -1    0    0  501  502  0.00000000000E+00  0.00000000000E+00  0.29166536980E+02  0.29166536980E+02  0.00000000000E+00 0. -1.
         -1   -1    0    0    0  501 -0.00000000000E+00 -0.00000000000E+00 -0.38465486632E+03  0.38465486632E+03  0.00000000000E+00 0.  1.
         23    2    1    2    0    0 -0.43555225826E+01 -0.16897079905E+02 -0.18583508595E+03  0.20811145881E+03  0.92039221167E+02 0.  0.
         23    2    1    2    0    0 -0.18087636480E+02  0.17735594814E+02 -0.14688783829E+03  0.17373085499E+03  0.89244938342E+02 0.  0.
        -11    1    3    3    0    0  0.26586687069E+02  0.11345858945E+02 -0.15700968767E+02  0.32895301560E+02  0.00000000000E+00 0. -1.
         11    1    3    3    0    0 -0.30942209652E+02 -0.28242938850E+02 -0.17013411718E+03  0.17521615725E+03  0.00000000000E+00 0.  1.
        -13    1    4    4    0    0 -0.44923265844E+02 -0.17577110221E+02 -0.81897412097E+02  0.95048622957E+02  0.00000000000E+00 0.  1.
         13    1    4    4    0    0  0.26835629363E+02  0.35312705036E+02 -0.64990426197E+02  0.78682232032E+02  0.00000000000E+00 0. -1.
         -1    1    1    2    0  502  0.22443159063E+02 -0.83851490980E+00 -0.22765405099E+02  0.31979089501E+02  0.00000000000E+00 0.  1.
<scales pt_clust_5="13000.00000" pt_clust_6="13000.00000" pt_clust_7="13000.00000" pt_clust_8="13000.00000" pt_clust_9="22.45882"></scales>
<clustering>
<clus scale="   22.459">  1  9  2 -1</clus>
<clus scale="   89.245">  7  8 -1 -1</clus>
<clus scale="   91.088">  1  7  2 -1</clus>
<clus scale="   92.039">  5  6 -1 -1</clus>
<clus scale="   22.459">  1  5  2 -1</clus>
</clustering>
</event>
<event>
 9    1  0.1601012E-005  0.9471967E+02  0.7546771E-02  0.1292211E+00
         21   -1    0    0  501  502  0.00000000000E+00  0.00000000000E+00  0.46882567930E+02  0.46882567930E+02  0.00000000000E+00 0. -1.
          1   -1    0    0  502    0 -0.00000000000E+00 -0.00000000000E+00 -0.47717219531E+03  0.47717219531E+03  0.00000000000E+00 0. -1.
         23    2    1    2    0    0  0.44042449897E+02 -0.31451668197E+02 -0.28630907425E+03  0.30467314385E+03  0.89016255600E+02 0.  0.
         23    2    1    2    0    0  0.12022733242E+02 -0.14287810896E+02 -0.94863958212E+02  0.13192966341E+03  0.89764012083E+02 0.  0.
        -11    1    4    4    0    0 -0.10625060700E+02 -0.28678475455E+02 -0.10003255040E+03  0.10460333651E+03  0.00000000000E+00 0.  1.
         11    1    4    4    0    0  0.22647793942E+02  0.14390664559E+02  0.51685921857E+01  0.27326326904E+02  0.00000000000E+00 0. -1.
        -11    1    3    3    0    0  0.15608306596E+02  0.21267608535E+02 -0.24173258624E+02  0.35780956389E+02  0.00000000000E+00 0.  1.
         11    1    3    3    0    0  0.28434143301E+02 -0.52719276733E+02 -0.26213581562E+03  0.26889218746E+03  0.00000000000E+00 0. -1.
          1    1    1    2  501    0 -0.56065183139E+02  0.45739479093E+02 -0.49116594920E+02  0.87451955980E+02  0.00000000000E+00 0. -1.
<scales pt_clust_5="13000.00000" pt_clust_6="13000.00000" pt_clust_7="13000.00000" pt_clust_8="13000.00000" pt_clust_9="72.35610"></scales>
<clustering>
<clus scale="   72.356">  1  9  2 -1</clus>
<clus scale="   89.016">  7  8 -1 -1</clus>
<clus scale="   89.764">  5  6 -1 -1</clus>
<clus scale="   94.011">  2  7  1 -1</clus>
<clus scale="   72.356">  1  5  2 -1</clus>
</clustering>
</event>
<event>
 9    1  0.1601012E-005  0.9634801E+02  0.7546771E-02  0.1288204E+00
         21   -1    0    0  501  502  0.00000000000E+00  0.00000000000E+00  0.52792026586E+02  0.52792026586E+02  0.00000000000E+00 0. -1.
          2   -1    0    0  502    0 -0.00000000000E+00 -0.00000000000E+00 -0.74213210767E+03  0.74213210767E+03  0.00000000000E+00 0. -1.
         23    2    1    2    0    0  0.29755340375E+02 -0.28434140461E+02 -0.38187783568E+03  0.39458970736E+03  0.90423863807E+02 0.  0.
         23    2    1    2    0    0 -0.32691870882E+02 -0.73922576984E+01 -0.33902881433E+03  0.35249508858E+03  0.90492246251E+02 0.  0.
        -11    1    3    3    0    0  0.22864117359E+02  0.29883283846E+02 -0.19863600776E+03  0.20216835087E+03  0.00000000000E+00 0.  1.
         11    1    3    3    0    0  0.68912230164E+01 -0.58317424307E+02 -0.18324182792E+03  0.19242135648E+03  0.00000000000E+00 0. -1.
        -11    1    4    4    0    0  0.29511367454E+02 -0.16214838924E+02 -0.11732507630E+03  0.12206152277E+03  0.00000000000E+00 0. -1.
         11    1    4    4    0    0 -0.62203238336E+02  0.88225812260E+01 -0.22170373803E+03  0.23043356582E+03  0.00000000000E+00 0.  1.
          2    1    1    2  501    0  0.29365305064E+01  0.35826398159E+02  0.31566568927E+02  0.47839338314E+02  0.00000000000E+00 0. -1.
<scales pt_clust_5="13000.00000" pt_clust_6="13000.00000" pt_clust_7="13000.00000" pt_clust_8="13000.00000" pt_clust_9="35.94654"></scales>
<clustering>
<clus scale="   35.947">  1  9  2 -1</clus>
<clus scale="   90.424">  5  6 -1 -1</clus>
<clus scale="   90.492">  7  8 -1 -1</clus>
<clus scale="   96.284">  2  5  1 -1</clus>
<clus scale="   35.947">  1  5  2 -1</clus>
</clustering>
</event>
<event>
 9    1  0.1601012E-005  0.9897140E+02  0.7546771E-02  0.1283671E+00
          1   -1    0    0  502    0 -0.00000000000E+00  0.00000000000E+00  0.57222649825E+03  0.57222649825E+03  0.00000000000E+00 0. -1.
         21   -1    0    0  501  502  0.00000000000E+00 -0.00000000000E+00 -0.62274924749E+02  0.62274924749E+02  0.00000000000E+00 0.  1.
         23    2    1    2    0    0  0.25291596858E+02 -0.30022825733E+02  0.44809147995E+03  0.45895627841E+03  0.91180349551E+02 0.  0.
         23    2    1    2    0    0 -0.57091375879E+02 -0.10764045606E+02  0.17734164991E+02  0.10756064349E+03  0.88766556440E+02 0.  0.
        -11    1    3    3    0    0  0.58401858912E+02 -0.31000738143E+02  0.29341215349E+03  0.30076987001E+03  0.00000000000E+00 0. -1.
         11    1    3    3    0    0 -0.33110262055E+02  0.97791241060E+00  0.15467932646E+03  0.15818640840E+03  0.00000000000E+00 0.  1.
        -13    1    4    4    0    0 -0.30349821333E+02  0.11274626515E+02 -0.32929383605E+02  0.46179791713E+02  0.00000000000E+00 0. -1.
         13    1    4    4    0    0 -0.26741554546E+02 -0.22038672121E+02  0.50663548596E+02  0.61380851776E+02  0.00000000000E+00 0.  1.
          1    1    1    2  501    0  0.31799779022E+02  0.40786871339E+02  0.44125928555E+02  0.67984501104E+02  0.00000000000E+00 0. -1.
<scales pt_clust_5="13000.00000" pt_clust_6="13000.00000" pt_clust_7="13000.00000" pt_clust_8="13000.00000" pt_clust_9="51.71842"></scales>
<clustering>
<clus scale="   51.718">  2  9  1 -1</clus>
<clus scale="   88.767">  7  8 -1 -1</clus>
<clus scale="   91.180">  5  6 -1 -1</clus>
<clus scale="   96.752">  2  7  1 -1</clus>
<clus scale="   51.718">  2  5  1 -1</clus>
</clustering>
</event>
<event>
 9    1  0.1601012E-005  0.9028130E+02  0.7546771E-02  0.1302789E+00
         21   -1    0    0  501  502  0.00000000000E+00  0.00000000000E+00  0.10649852562E+03  0.10649852562E+03  0.00000000000E+00 0.  1.
         -1   -1    0    0    0  501 -0.00000000000E+00 -0.00000000000E+00 -0.32460068619E+03  0.32460068619E+03  0.00000000000E+00 0.  1.
         23    2    1    2    0    0  0.68596838464E+01 -0.30096350602E+01 -0.27335980914E+03  0.28793027987E+03  0.90122958495E+02 0.  0.
         23    2    1    2    0    0  0.11374745257E+02 -0.27730318059E+02  0.51603579693E+02  0.10724134725E+03  0.89103432893E+02 0.  0.
        -11    1    3    3    0    0  0.36455442381E+02  0.24124299870E+02 -0.19549237652E+03  0.20032036941E+03  0.00000000000E+00 0. -1.
         11    1    3    3    0    0 -0.29595758535E+02 -0.27133934930E+02 -0.77867432618E+02  0.87609910459E+02  0.00000000000E+00 0.  1.
        -11    1    4    4    0    0  0.44065009314E+02 -0.25486823017E+02  0.62468216121E+01  0.51286703673E+02  0.00000000000E+00 0. -1.
         11    1    4    4    0    0 -0.32690264057E+02 -0.22434950423E+01  0.45356758081E+02  0.55954643576E+02  0.00000000000E+00 0.  1.
         -1    1    1    2    0  502 -0.18234429104E+02  0.30739953119E+02  0.36540688715E+01  0.35927584692E+02  0.00000000000E+00 0.  1.
<scales pt_clust_5="13000.00000" pt_clust_6="13000.00000" pt_clust_7="13000.00000" pt_clust_8="13000.00000" pt_clust_9="35.74128"></scales>
<clustering>
<clus scale="   35.741">  1  9  2 -1</clus>
<clus scale="   89.103">  7  8 -1 -1</clus>
<clus scale="   89.264">  1  7  2 -1</clus>
<clus scale="   90.123">  5  6 -1 -1</clus>
<clus scale="   35.741">  1  5  2 -1</clus>
</clustering>
</event>
<event>
 9    1  0.1601012E-005  0.9354601E+02  0.7546771E-02  0.1294810E+00
         21   -1    0    0  501  502  0.00000000000E+00  0.00000000000E+00  0.25524453002E+03  0.25524453002E+03  0.00000000000E+00 0.  1.
          2   -1    0    0  502    0 -0.00000000000E+00 -0.00000000000E+00 -0.48179936180E+02  0.48179936180E+02  0.00000000000E+00 0. -1.
         23    2    1    2    0    0 -0.15673659186E+02  0.81311346442E+01  0.42619957738E+02  0.10229635791E+03  0.91303368507E+02 0.  0.
         23    2    1    2    0    0  0.28087897634E+01 -0.23927164102E+02  0.12823777799E+03  0.15958348185E+03  0.91877970667E+02 0.  0.
        -11    1    3    3    0    0  0.30984446456E+02 -0.20187830723E+02  0.26126932118E+02  0.45279145457E+02  0.00000000000E+00 0.  1.
         11    1    3    3    0    0 -0.46658105641E+02  0.28318965367E+02  0.16493025621E+02  0.57017212451E+02  0.00000000000E+00 0. -1.
        -13    1    4    4    0    0 -0.40442927441E+02  0.71877840092E+01  0.46861725663E+02  0.62316257518E+02  0.00000000000E+00 0. -1.
         13    1    4    4    0    0  0.43251717204E+02 -0.31114948111E+02  0.81376052330E+02  0.97267224335E+02  0.00000000000E+00 0.  1.
          2    1    1    2  501    0  0.12864869422E+02  0.15796029458E+02  0.36206858111E+02  0.41544626442E+02  0.00000000000E+00 0. -1.
<scales pt_clust_5="13000.00000" pt_clust_6="13000.00000" pt_clust_7="13000.00000" pt_clust_8="13000.00000" pt_clust_9="20.37203"></scales>
<clustering>
<clus scale="   20.372">  1  9  2 -1</clus>
<clus scale="   91.303">  5  6 -1 -1</clus>
<clus scale="   91.878">  7  8 -1 -1</clus>
<clus scale="   92.982">  2  5  1 -1</clus>
<clus scale="   20.372">  1  5  2 -1</clus>
</clustering>
</event>
<event>
 9    1  0.1601012E-005  0.2439753E+03  0.7546771E-02  0.1136933E+00
         -1   -1    0    0    0  501 -0.00000000000E+00  0.00000000000E+00  0.22401713510E+03  0.22401713510E+03  0.00000000000E+00 0.  1.
         21   -1    0    0  501  502  0.00000000000E+00 -0.00000000000E+00 -0.64970680176E+03  0.64970680176E+03  0.00000000000E+00 0.  1.
         23    2    1    2    0    0  0.44346123770E+01 -0.11957606296E+03  0.80946041365E+02  0.17025005127E+03  0.90081728032E+02 0.  0.
         23    2    1    2    0    0  0.15549351098E+03 -0.10723582995E+03 -0.18734544281E+03  0.28042907369E+03  0.88681425634E+02 0.  0.
        -13    1    3    3    0    0 -0.24708973236E+02 -0.38048192867E+02  0.69386311642E+02  0.82901499276E+02  0.00000000000E+00 0. -1.
         13    1    3    3    0    0  0.29143585613E+02 -0.81527870096E+02  0.11559729722E+02  0.87348551998E+02  0.00000000000E+00 0.  1.
        -13    1    4    4    0    0  0.65417492816E+02 -0.97890667523E+01 -0.10549038882E+03  0.12451303678E+03  0.00000000000E+00 0.  1.
         13    1    4    4    0    0  0.90076018160E+02 -0.97446763196E+02 -0.81855053988E+02  0.15591603692E+03  0.00000000000E+00 0. -1.
         -1    1    1    2    0  502 -0.15992812335E+03  0.22681189291E+03 -0.31929026522E+03  0.42304481189E+03  0.00000000000E+00 0.  1.
<scales pt_clust_5="13000.00000" pt_clust_6="13000.00000" pt_clust_7="13000.00000" pt_clust_8="13000.00000" pt_clust_9="227.28751"></scales>
<clustering>
<clus scale="   88.681">  7  8 -1 -1</clus>
<clus scale="   90.082">  5  6 -1 -1</clus>
<clus scale="  149.776">  1  5  2 -1</clus>
<clus scale="  227.288">  2  9  1 -1</clus>
<clus scale="  227.288">  2  5  1 -1</clus>
</clustering>
</event>
<event>
 9    1  0.1601012E-005  0.9547901E+02  0.7546771E-02  0.1292346E+00
         21   -1    0    0  501  502  0.00000000000E+00  0.00000000000E+00  0.58184615662E+02  0.58184615662E+02  0.00000000000E+00 0. -1.
         -1   -1    0    0    0  501 -0.00000000000E+00 -0.00000000000E+00 -0.54805045428E+03  0.54805045428E+03  0.00000000000E+00 0.  1.
         23    2    1    2    0    0  0.18457715250E+02  0.47163496190E+01 -0.40816514854E+03  0.41892327866E+03  0.92385029717E+02 0.  0.
         23    2    1    2    0    0 -0.33954150600E+02 -0.29755583759E+02 -0.10884487133E+03  0.14726295446E+03  0.88322662074E+02 0.  0.
        -11    1    3    3    0    0  0.40510910412E+02 -0.29757243384E+02 -0.27694528612E+03  0.28146992540E+03  0.00000000000E+00 0.  1.
         11    1    3    3    0    0 -0.22053195162E+02  0.34473593003E+02 -0.13121986242E+03  0.13745335326E+03  0.00000000000E+00 0. -1.
        -11    1    4    4    0    0  0.11301154106E+01 -0.29510162864E+02 -0.10821492517E+03  0.11217217526E+03  0.00000000000E+00 0. -1.
         11    1    4    4    0    0 -0.35084266010E+02 -0.24542089455E+00 -0.62994615493E+00  0.35090779203E+02  0.00000000000E+00 0.  1.
         -1    1    1    2    0  502  0.15496435350E+02  0.25039234140E+02  0.27144181247E+02  0.40048836817E+02  0.00000000000E+00 0.  1.
<scales pt_clust_5="13000.00000" pt_clust_6="13000.00000" pt_clust_7="13000.00000" pt_clust_8="13000.00000" pt_clust_9="29.44661"></scales>
<clustering>
<clus scale="   29.447">  1  9  2 -1</clus>
<clus scale="   88.323">  7  8 -1 -1</clus>
<clus scale="   91.554">  1  7  2 -1</clus>
<clus scale="   92.385">  5  6 -1 -1</clus>
<clus scale="   29.447">  1  5  2 -1</clus>
</clustering>
</event>
<event>
 9    1  0.1601012E-005  0.1408536E+03  0.7546771E-02  0.1218119E+00
          1   -1    0    0  502    0 -0.00000000000E+00  0.00000000000E+00  0.46429491505E+03  0.46429491505E+03  0.00000000000E+00 0. -1.
         21   -1    0    0  501  502  0.00000000000E+00 -0.00000000000E+00 -0.12193828355E+03  0.12193828355E+03  0.00000000000E+00 0. -1.
         23    2    1    2    0    0  0.10102549785E+02  0.99842660439E+02  0.29340247270E+03  0.32360815953E+03  0.92555991567E+02 0.  0.
         23    2    1    2    0    0  0.37463758674E+02 -0.12016771817E+03  0.11247828679E+03  0.18070448908E+03  0.64489795095E+02 0.  0.
        -11    1    3    3    0    0  0.25647377923E+02  0.21048000590E+02  0.18899079509E+03  0.19188102291E+03  0.00000000000E+00 0. -1.
         11    1    3    3    0    0 -0.15544828138E+02  0.78794659849E+02  0.10441167761E+03  0.13172713663E+03  0.00000000000E+00 0.  1.
        -11    1    4    4    0    0  0.17098148972E+02 -0.97645273839E+02  0.11302049788E+03  0.15033488997E+03  0.00000000000E+00 0. -1.
         11    1    4    4    0    0  0.20365609702E+02 -0.22522444333E+02 -0.54221109535E+00  0.30369599110E+02  0.00000000000E+00 0.  1.
          1    1    1    2  501    0 -0.47566308459E+02  0.20325057733E+02 -0.63524127995E+02  0.81920549984E+02  0.00000000000E+00 0. -1.
<scales pt_clust_5="13000.00000" pt_clust_6="13000.00000" pt_clust_7="13000.00000" pt_clust_8="13000.00000" pt_clust_9="51.72680"></scales>
<clustering>
<clus scale="   51.727">  2  9  1 -1</clus>
<clus scale="   64.490">  7  8 -1 -1</clus>
<clus scale="   92.556">  5  6 -1 -1</clus>
<clus scale="  124.226">  2  7  1 -1</clus>
<clus scale="   51.727">  2  5  1 -1</clus>
</clustering>
</event>
<event>
 9    1  0.1601012E-005  0.1159153E+03  0.7546771E-02  0.1252069E+00
         21   -1    0    0  501  502  0.00000000000E+00  0.00000000000E+00  0.12232650902E+03  0.12232650902E+03  0.00000000000E+00 0.  1.
         -4   -1    0    0    0  501 -0.00000000000E+00 -0.00000000000E+00 -0.22666381350E+03  0.22666381350E+03  0.00000000000E+00 0.  1.
         23    2    1    2    0    0  0.43203075260E+02  0.55301939203E+02 -0.11741324561E+03  0.16360726252E+03  0.89758876506E+02 0.  0.
         23    2    1    2    0    0  0.18142153412E+02 -0.72407309110E+02  0.92630643935E+01  0.12158361808E+03  0.95523901099E+02 0.  0.
        -11    1    3    3    0    0  0.18907805996E+02 -0.19531652704E+02 -0.61033181093E+02  0.66813470044E+02  0.00000000000E+00 0. -1.
         11    1    3    3    0    0  0.24295269264E+02  0.74833591906E+02 -0.56380064518E+02  0.96793792473E+02  0.00000000000E+00 0.  1.
        -13    1    4    4    0    0  0.20245321576E+02  0.12976648746E+02 -0.20023377443E+02  0.31292205142E+02  0.00000000000E+00 0. -1.
         13    1    4    4    0    0 -0.21031681638E+01 -0.85383957856E+02  0.29286441837E+02  0.90291412942E+02  0.00000000000E+00 0.  1.
         -4    1    1    2    0  502 -0.61345228672E+02  0.17105369907E+02  0.38128767305E+01  0.63799441921E+02  0.00000000000E+00 0.  1.
<scales pt_clust_5="13000.00000" pt_clust_6="13000.00000" pt_clust_7="13000.00000" pt_clust_8="13000.00000" pt_clust_9="63.68540"></scales>
<clustering>
<clus scale="   63.685">  1  9  2 -1</clus>
<clus scale="   89.759">  5  6 -1 -1</clus>
<clus scale="   95.524">  7  8 -1 -1</clus>
<clus scale="  111.212">  2  5  1 -1</clus>
<clus scale="   63.685">  1  5  2 -1</clus>
</clustering>
</event>
<event>
 9    1  0.1601012E-005  0.1273529E+03  0.7546771E-02  0.1231723E+00
         21   -1    0    0  501  502  0.00000000000E+00  0.00000000000E+00  0.28242921647E+03  0.28242921647E+03  0.00000000000E+00 0. -1.
          1   -1    0    0  502    0 -0.00000000000E+00 -0.00000000000E+00 -0.61827483824E+03  0.61827483824E+03  0.00000000000E+00 0. -1.
         23    2    1    2    0    0 -0.80266516315E+02 -0.29309414215E+02 -0.54415467703E+03  0.55870748061E+03  0.93530641817E+02 0.  0.
         23    2    1    2    0    0  0.64597056565E+02  0.11366298903E+03  0.60719582693E+02  0.17128128491E+03  0.92511383328E+02 0.  0.
        -13    1    3    3    0    0 -0.43253969292E+02  0.32768213427E+02 -0.24683484832E+03  0.25272930977E+03  0.00000000000E+00 0.  1.
         13    1    3    3    0    0 -0.37012547023E+02 -0.62077627642E+02 -0.29731982870E+03  0.30597817084E+03  0.00000000000E+00 0. -1.
        -13    1    4    4    0    0  0.53741405981E+02  0.73757438353E+02  0.83819612542E+02  0.12391136298E+03  0.00000000000E+00 0.  1.
         13    1    4    4    0    0  0.10855650584E+02  0.39905550675E+02 -0.23100029848E+02  0.47369921926E+02  0.00000000000E+00 0. -1.
          1    1    1    2  501    0  0.15669459750E+02 -0.84353574813E+02  0.14758947256E+03  0.17071528919E+03  0.00000000000E+00 0. -1.
<scales pt_clust_5="13000.00000" pt_clust_6="13000.00000" pt_clust_7="13000.00000" pt_clust_8="13000.00000" pt_clust_9="85.79661"></scales>
<clustering>
<clus scale="   85.797">  1  9  2 -1</clus>
<clus scale="   92.511">  7  8 -1 -1</clus>
<clus scale="   93.531">  5  6 -1 -1</clus>
<clus scale="  126.606">  1  7  2 -1</clus>
<clus scale="   85.797">  1  5  2 -1</clus>
</clustering>
</event>
<event>
 9    1  0.1601012E-005  0.9526104E+02  0.7546771E-02  0.1291381E+00
         21   -1    0    0  501  502  0.00000000000E+00  0.00000000000E+00  0.66048465791E+03  0.66048465791E+03  0.00000000000E+00 0. -1.
         -1   -1    0    0    0  501 -0.00000000000E+00 -0.00000000000E+00 -0.76914193837E+02  0.76914193837E+02  0.00000000000E+00 0.  1.
         23    2    1    2    0    0  0.57053384622E+01 -0.20390164031E+02 -0.36550158078E+02  0.10018874198E+03  0.90849107249E+02 0.  0.
         23    2    1    2    0    0 -0.30747188068E+01  0.54234442373E+02  0.38371004108E+03  0.39837477281E+03  0.92294286668E+02 0.  0.
        -11    1    3    3    0    0 -0.40392030849E+02 -0.13822330346E+02 -0.29981582396E+01  0.42796751338E+02  0.00000000000E+00 0. -1.
         11    1    3    3    0    0  0.46097369311E+02 -0.65678336850E+01 -0.33551999839E+02  0.57391990642E+02  0.00000000000E+00 0.  1.
        -13    1    4    4    0    0  0.42378520549E+02  0.41393786073E+02  0.23453443158E+03  0.24190035992E+03  0.00000000000E+00 0.  1.
         13    1    4    4    0    0 -0.45453239356E+02  0.12840656299E+02  0.14917560949E+03  0.15647441289E+03  0.00000000000E+00 0. -1.
         -1    1    1    2    0  502 -0.26306196554E+01 -0.33844278341E+02  0.23641058108E+03  0.23883533696E+03  0.00000000000E+00 0.  1.
<scales pt_clust_5="13000.00000" pt_clust_6="13000.00000" pt_clust_7="13000.00000" pt_clust_8="13000.00000" pt_clust_9="33.94636"></scales>
<clustering>
<clus scale="   33.946">  1  9  2 -1</clus>
<clus scale="   90.849">  5  6 -1 -1</clus>
<clus scale="   92.294">  7  8 -1 -1</clus>
<clus scale="   93.862">  2  5  1 -1</clus>
<clus scale="   33.946">  1  5  2 -1</clus>
</clustering>
</event>
<event>
 9    1  0.1601012E-005  0.9430679E+02  0.7546771E-02  0.1298247E+00
         21   -1    0    0  501  502  0.00000000000E+00  0.00000000000E+00  0.32219475227E+03  0.32219475227E+03  0.00000000000E+00 0. -1.
         -3   -1    0    0    0  501 -0.00000000000E+00 -0.00000000000E+00 -0.98613909446E+02  0.98613909446E+02  0.00000000000E+00 0.  1.
         23    2    1    2    0    0  0.51262435082E+02 -0.42663773510E+02 -0.27373165883E+01  0.11282106734E+03  0.90956393470E+02 0.  0.
         23    2    1    2    0    0  0.10636113224E+02 -0.90755188881E+01  0.17942058766E+02  0.84539649698E+02  0.81422005322E+02 0.  0.
        -11    1    4    4    0    0  0.19833111577E+02  0.31778464422E+02 -0.32611364157E+01  0.37601304852E+02  0.00000000000E+00 0. -1.
         11    1    4    4    0    0 -0.91969983531E+01 -0.40853983310E+02  0.21203195182E+02  0.46938344846E+02  0.00000000000E+00 0.  1.
        -13    1    3    3    0    0  0.24547479591E+02  0.40660733072E+01  0.37926911833E+02  0.45360360973E+02  0.00000000000E+00 0. -1.
         13    1    3    3    0    0  0.26714955490E+02 -0.46729846817E+02 -0.40664228422E+02  0.67460706367E+02  0.00000000000E+00 0.  1.
         -3    1    1    2    0  502 -0.61898548305E+02  0.51739292398E+02  0.20837610064E+03  0.22344794467E+03  0.00000000000E+00 0.  1.
<scales pt_clust_5="13000.00000" pt_clust_6="13000.00000" pt_clust_7="13000.00000" pt_clust_8="13000.00000" pt_clust_9="80.67456"></scales>
<clustering>
<clus scale="   80.675">  1  9  2 -1</clus>
<clus scale="   81.422">  5  6 -1 -1</clus>
<clus scale="   85.148">  1  5  2 -1</clus>
<clus scale="   90.956">  7  8 -1 -1</clus>
<clus scale="   80.675">  1  5  2 -1</clus>
</clustering>
</event>
<event>
 9    1  0.1601012E-005  0.9950424E+02  0.7546771E-02  0.1282925E+00
         -4   -1    0    0    0  501 -0.00000000000E+00  0.00000000000E+00  0.14124180059E+03  0.14124180059E+03  0.00000000000E+00 0.  1.
         21   -1    0    0  501  502  0.00000000000E+00 -0.00000000000E+00 -0.23744637677E+03  0.23744637677E+03  0.00000000000E+00 0.  1.
         23    2    1    2    0    0 -0.46317580867E+02 -0.15087513295E+02  0.88555207897E+02  0.13488959295E+03  0.89332111171E+02 0.  0.
         23    2    1    2    0    0  0.25890205250E+02  0.13090591679E+02 -0.42834299426E+02  0.10039667172E+03  0.86040967954E+02 0.  0.
        -11    1    3    3    0    0 -0.30851414493E+02  0.47254245257E+01  0.10180109718E+03  0.10647817992E+03  0.00000000000E+00 0.  1.
         11    1    3    3    0    0 -0.15466166374E+02 -0.19812937821E+02 -0.13245889281E+02  0.28411413028E+02  0.00000000000E+00 0. -1.
        -11    1    4    4    0    0  0.25759352450E+02  0.45557562927E+02 -0.43300326116E+02  0.67926092337E+02  0.00000000000E+00 0. -1.
         11    1    4    4    0    0  0.13085280015E+00 -0.32466971248E+02  0.46602669055E+00  0.32470579381E+02  0.00000000000E+00 0.  1.
         -4    1    1    2    0  502  0.20427375618E+02  0.19969216165E+01 -0.14192548465E+03  0.14340191269E+03  0.00000000000E+00 0.  1.
<scales pt_clust_5="13000.00000" pt_clust_6="13000.00000" pt_clust_7="13000.00000" pt_clust_8="13000.00000" pt_clust_9="20.52475"></scales>
<clustering>
<clus scale="   20.525">  2  9  1 -1</clus>
<clus scale="   86.041">  7  8 -1 -1</clus>
<clus scale="   89.332">  5  6 -1 -1</clus>
<clus scale="   96.560">  2  7  1 -1</clus>
<clus scale="   20.525">  2  5  1 -1</clus>
</clustering>
</event>
<event>
 9    1  0.1601012E-005  0.1144788E+03  0.7546771E-02  0.1252718E+00
         21   -1    0    0  501  502  0.00000000000E+00  0.00000000000E+00  0.32609537052E+02  0.32609537052E+02  0.00000000000E+00 0.  1.
          2   -1    0    0  502    0 -0.00000000000E+00 -0.00000000000E+00 -0.82416323078E+03  0.82416323078E+03  0.00000000000E+00 0. -1.
         23    2    1    2    0    0 -0.54683455329E+02  0.34329702092E+02 -0.57981562210E+03  0.59062020127E+03  0.92072025026E+02 0.  0.
         23    2    1    2    0    0  0.50075678399E+02 -0.69268451004E+02 -0.17592521238E+03  0.21590807759E+03  0.91438097900E+02 0.  0.
        -13    1    3    3    0    0 -0.39824303218E+02 -0.27176041948E+02 -0.21312903856E+03  0.21851430036E+03  0.00000000000E+00 0.  1.
         13    1    3    3    0    0 -0.14859152112E+02  0.61505744040E+02 -0.36668658354E+03  0.37210590092E+03  0.00000000000E+00 0. -1.
        -13    1    4    4    0    0  0.17504096295E+02 -0.62687340716E+02 -0.17015897282E+03  0.18218170079E+03  0.00000000000E+00 0. -1.
         13    1    4    4    0    0  0.32571582104E+02 -0.65811102886E+01 -0.57662395603E+01  0.33726376800E+02  0.00000000000E+00 0.  1.
          2    1    1    2  501    0  0.46077769299E+01  0.34938748912E+02 -0.35812859261E+02  0.50244488974E+02  0.00000000000E+00 0. -1.
<scales pt_clust_5="13000.00000" pt_clust_6="13000.00000" pt_clust_7="13000.00000" pt_clust_8="13000.00000" pt_clust_9="35.24128"></scales>
<clustering>
<clus scale="   35.241">  1  9  2 -1</clus>
<clus scale="   91.438">  7  8 -1 -1</clus>
<clus scale="   92.072">  5  6 -1 -1</clus>
<clus scale="  113.970">  1  7  2 -1</clus>
<clus scale="   35.241">  1  5  2 -1</clus>
</clustering>
</event>
<event>
 9    1  0.1601012E-005  0.1016496E+03  0.7546771E-02  0.1280073E+00
         21   -1    0    0  501  502  0.00000000000E+00  0.00000000000E+00  0.52080898197E+02  0.52080898197E+02  0.00000000000E+00 0.  1.
          1   -1    0    0  502    0 -0.00000000000E+00 -0.00000000000E+00 -0.31026217494E+03  0.31026217494E+03  0.00000000000E+00 0. -1.
         23    2    1    2    0    0 -0.26210531671E+02 -0.11653986062E+02 -0.16965936155E+03  0.19450127706E+03  0.90684290027E+02 0.  0.
         23    2    1    2    0    0  0.39111459195E+02 -0.20185244719E+02 -0.77555702480E+02  0.13178034340E+03  0.97025880949E+02 0.  0.
        -11    1    4    4    0    0  0.56586232453E+02  0.77670676683E+01 -0.80477315834E+02  0.98686004110E+02  0.00000000000E+00 0. -1.
         11    1    4    4    0    0 -0.17474773258E+02 -0.27952312388E+02  0.29216133539E+01  0.33094339287E+02  0.00000000000E+00 0.  1.
        -13    1    3    3    0    0  0.22149302764E+02 -0.24798181261E+02 -0.11772556722E+03  0.12233090608E+03  0.00000000000E+00 0.  1.
         13    1    3    3    0    0 -0.48359834435E+02  0.13144195198E+02 -0.51933794330E+02  0.72170370981E+02  0.00000000000E+00 0. -1.
          1    1    1    2  501    0 -0.12900927524E+02  0.31839230782E+02 -0.10966212717E+02  0.36061452676E+02  0.00000000000E+00 0. -1.
<scales pt_clust_5="13000.00000" pt_clust_6="13000.00000" pt_clust_7="13000.00000" pt_clust_8="13000.00000" pt_clust_9="34.35361"></scales>
<clustering>
<clus scale="   34.354">  1  9  2 -1</clus>
<clus scale="   90.684">  7  8 -1 -1</clus>
<clus scale="   95.615">  2  7  1 -1</clus>
<clus scale="   97.026">  5  6 -1 -1</clus>
<clus scale="   34.354">  1  5  2 -1</clus>
</clustering>
</event>
<event>
 9    1  0.1601012E-005  0.1259840E+03  0.7546771E-02  0.1233931E+00
         -4   -1    0    0    0  501 -0.00000000000E+00  0.00000000000E+00  0.44740976818E+03  0.44740976818E+03  0.00000000000E+00 0.  1.
         21   -1    0    0  501  502  0.00000000000E+00 -0.00000000000E+00 -0.19121440354E+03  0.19121440354E+03  0.00000000000E+00 0.  1.
         23    2    1    2    0    0 -0.15727398175E+02  0.95737227106E+02  0.31977833222E+03  0.34627591978E+03  0.90751656486E+02 0.  0.
         23    2    1    2    0    0 -0.17506686799E+02 -0.63888018335E+02  0.81777785425E+02  0.13987325394E+03  0.92134456138E+02 0.  0.
        -11    1    4    4    0    0 -0.36498559699E+02 -0.78694798398E+02  0.50420035227E+02  0.10033541801E+03  0.00000000000E+00 0.  1.
         11    1    4    4    0    0  0.18991872900E+02  0.14806780064E+02  0.31357750199E+02  0.39537835925E+02  0.00000000000E+00 0. -1.
        -13    1    3    3    0    0 -0.36178867579E+02  0.10081257870E+03  0.22512918819E+03  0.24930952220E+03  0.00000000000E+00 0. -1.
         13    1    3    3    0    0  0.20451469404E+02 -0.50753515932E+01  0.94649144028E+02  0.96966397581E+02  0.00000000000E+00 0.  1.
         -4    1    1    2    0  502  0.33234084975E+02 -0.31849208772E+02 -0.14536075301E+03  0.15247499801E+03  0.00000000000E+00 0.  1.
<scales pt_clust_5="13000.00000" pt_clust_6="13000.00000" pt_clust_7="13000.00000" pt_clust_8="13000.00000" pt_clust_9="46.03126"></scales>
<clustering>
<clus scale="   46.031">  2  9  1 -1</clus>
<clus scale="   90.752">  7  8 -1 -1</clus>
<clus scale="   92.134">  5  6 -1 -1</clus>
<clus scale="  124.976">  1  7  2 -1</clus>
<clus scale="   46.031">  2  5  1 -1</clus>
</clustering>
</event>
<event>
 9    1  0.1601012E-005  0.1651337E+03  0.7546771E-02  0.1183106E+00
          1   -1    0    0  502    0 -0.00000000000E+00  0.00000000000E+00  0.13909898029E+03  0.13909898029E+03  0.00000000000E+00 0. -1.
         21   -1    0    0  501  502  0.00000000000E+00 -0.00000000000E+00 -0.30128385175E+03  0.30128385175E+03  0.00000000000E+00 0. -1.
         23    2    1    2    0    0 -0.68649037116E+02 -0.10932187062E+03 -0.31406889369E+02  0.16026642615E+03  0.89638010679E+02 0.  0.
         23    2    1    2    0    0  0.68906359953E+02  0.14203995004E+03 -0.15538061792E+03  0.23917952000E+03  0.90223458776E+02 0.  0.
        -11    1    4    4    0    0  0.79813656416E+02  0.71227215592E+02 -0.70565184681E+02  0.12815218016E+03  0.00000000000E+00 0. -1.
         11    1    4    4    0    0 -0.10907296463E+02  0.70812734451E+02 -0.84815433236E+02  0.11102733984E+03  0.00000000000E+00 0.  1.
        -11    1    3    3    0    0 -0.41328937310E+02 -0.92419011307E+02 -0.59637513717E+02  0.11749888405E+03  0.00000000000E+00 0.  1.
         11    1    3    3    0    0 -0.27320099806E+02 -0.16902859310E+02  0.28230624348E+02  0.42767542101E+02  0.00000000000E+00 0. -1.
          1    1    1    2  501    0 -0.25732283661E+00 -0.32718079426E+02  0.24602635829E+02  0.40936885887E+02  0.00000000000E+00 0. -1.
<scales pt_clust_5="13000.00000" pt_clust_6="13000.00000" pt_clust_7="13000.00000" pt_clust_8="13000.00000" pt_clust_9="32.71911"></scales>
<clustering>
<clus scale="   32.719">  2  9  1 -1</clus>
<clus scale="   89.638">  7  8 -1 -1</clus>
<clus scale="   90.223">  5  6 -1 -1</clus>
<clus scale="  164.815">  1  7  2 -1</clus>
<clus scale="   32.719">  2  5  1 -1</clus>
</clustering>
</event>
<event>
 9    1  0.1601012E-005  0.1376015E+03  0.7546771E-02  0.1235020E+00
         21   -1    0    0  501  502  0.00000000000E+00  0.00000000000E+00  0.19790501308E+03  0.19790501308E+03  0.00000000000E+00 0.  1.
          3   -1    0    0  502    0 -0.00000000000E+00 -0.00000000000E+00 -0.27912657561E+03  0.27912657561E+03  0.00000000000E+00 0. -1.
         23    2    1    2    0    0  0.16037245414E+02 -0.13388889013E+02 -0.51314984996E+02  0.10691979490E+03  0.91444842753E+02 0.  0.
         23    2    1    2    0    0 -0.27573297070E+02  0.11274533049E+03 -0.15173328864E+03  0.21248397108E+03  0.93030375835E+02 0.  0.
        -11    1    4    4    0    0  0.28488655257E+01  0.11751117696E+03 -0.11358200071E+03  0.16345599907E+03  0.00000000000E+00 0.  1.
         11    1    4    4    0    0 -0.30422162596E+02 -0.47658464710E+01 -0.38151287927E+02  0.49027972017E+02  0.00000000000E+00 0. -1.
        -11    1    3    3    0    0  0.81403404558E+01  0.38531766751E+02 -0.11534833725E+02  0.41036746712E+02  0.00000000000E+00 0.  1.
         11    1    3    3    0    0  0.78969049582E+01 -0.51920655764E+02 -0.39780151272E+02  0.65883048184E+02  0.00000000000E+00 0. -1.
          3    1    1    2  501    0  0.11536051656E+02 -0.99356441474E+02  0.12182671111E+03  0.15762782270E+03  0.00000000000E+00 0. -1.
<scales pt_clust_5="13000.00000" pt_clust_6="13000.00000" pt_clust_7="13000.00000" pt_clust_8="13000.00000" pt_clust_9="101.38792"></scales>
<clustering>
<clus scale="   91.445">  7  8 -1 -1</clus>
<clus scale="   93.030">  5  6 -1 -1</clus>
<clus scale="   93.801">  2  7  1 -1</clus>
<clus scale="  101.388">  1  9  2 -1</clus>
<clus scale="  101.388">  1  5  2 -1</clus>
</clustering>
</event>
<event>
 9    1  0.1601012E-005  0.2812054E+03  0.7546771E-02  0.1106403E+00
         21   -1    0    0  501  502  0.00000000000E+00  0.00000000000E+00  0.11182319292E+03  0.11182319292E+03  0.00000000000E+00 0. -1.
          1   -1    0    0  502    0 -0.00000000000E+00 -0.00000000000E+00 -0.25912021644E+04  0.25912021644E+04  0.00000000000E+00 0. -1.
         23    2    1    2    0    0  0.46642909422E+02  0.18159459769E+03 -0.42684066185E+03  0.47545494770E+03  0.93339690231E+02 0.  0.
         23    2    1    2    0    0 -0.21457602143E+03 -0.35767070964E+03 -0.18819636278E+04  0.19304171673E+04  0.10369251706E+03 0.  0.
        -11    1    3    3    0    0 -0.10559400237E+02  0.11094280410E+03 -0.17261018448E+03  0.20546065925E+03  0.00000000000E+00 0. -1.
         11    1    3    3    0    0  0.57202309659E+02  0.70651793585E+02 -0.25423047737E+03  0.26999428845E+03  0.00000000000E+00 0.  1.
        -13    1    4    4    0    0 -0.76500283916E+02 -0.62114455707E+02 -0.32341706683E+03  0.33809628535E+03  0.00000000000E+00 0.  1.
         13    1    4    4    0    0 -0.13807573752E+03 -0.29555625393E+03 -0.15585465610E+04  0.15923208820E+04  0.00000000000E+00 0. -1.
          1    1    1    2  501    0  0.16793311201E+03  0.17607611195E+03 -0.17057468182E+03  0.29715324226E+03  0.00000000000E+00 0. -1.
<scales pt_clust_5="13000.00000" pt_clust_6="13000.00000" pt_clust_7="13000.00000" pt_clust_8="13000.00000" pt_clust_9="261.38930"></scales>
<clustering>
<clus scale="   93.340">  5  6 -1 -1</clus>
<clus scale="  103.693">  7  8 -1 -1</clus>
<clus scale="  209.439">  2  5  1 -1</clus>
<clus scale="  261.389">  1  9  2 -1</clus>
<clus scale="  261.389">  1  5  2 -1</clus>
</clustering>
</event>
<event>
 9    1  0.1601012E-005  0.9704928E+02  0.7546771E-02  0.1287732E+00
         21   -1    0    0  501  502  0.00000000000E+00  0.00000000000E+00  0.64809731901E+02  0.64809731901E+02  0.00000000000E+00 0.  1.
          3   -1    0    0  502    0 -0.00000000000E+00 -0.00000000000E+00 -0.28362348808E+03  0.28362348808E+03  0.00000000000E+00 0. -1.
         23    2    1    2    0    0  0.15081569714E+02  0.28343322847E+02 -0.19365504322E+03  0.21644289046E+03  0.91183613491E+02 0.  0.
         23    2    1    2    0    0 -0.22416212318E+02  0.25599636087E+01 -0.28385101191E+02  0.10006510945E+03  0.93264527938E+02 0.  0.
        -13    1    4    4    0    0  0.35337738290E+02 -0.35587689364E+01 -0.21628101727E+00  0.35517141794E+02  0.00000000000E+00 0. -1.
         13    1    4    4    0    0 -0.57753950607E+02  0.61187325450E+01 -0.28168820174E+02  0.64547967657E+02  0.00000000000E+00 0.  1.
        -13    1    3    3    0    0  0.24692359601E+02  0.49761325865E+02 -0.64291038296E+02  0.84966109595E+02  0.00000000000E+00 0. -1.
         13    1    3    3    0    0 -0.96107898865E+01 -0.21418003019E+02 -0.12936400492E+03  0.13147678086E+03  0.00000000000E+00 0.  1.
          3    1    1    2  501    0  0.73346426032E+01 -0.30903286455E+02  0.32263882311E+01  0.31925220076E+02  0.00000000000E+00 0. -1.
<scales pt_clust_5="13000.00000" pt_clust_6="13000.00000" pt_clust_7="13000.00000" pt_clust_8="13000.00000" pt_clust_9="31.76177"></scales>
<clustering>
<clus scale="   31.762">  1  9  2 -1</clus>
<clus scale="   91.184">  7  8 -1 -1</clus>
<clus scale="   93.265">  5  6 -1 -1</clus>
<clus scale="   95.051">  2  7  1 -1</clus>
<clus scale="   31.762">  1  5  2 -1</clus>
</clustering>
</event>
<event>
 9    1  0.1601012E-005  0.9117639E+02  0.7546771E-02  0.1300030E+00
         -1   -1    0    0    0  501 -0.00000000000E+00  0.00000000000E+00  0.16552287235E+03  0.16552287235E+03  0.00000000000E+00 0.  1.
         21   -1    0    0  501  502  0.00000000000E+00 -0.00000000000E+00 -0.12914247163E+03  0.12914247163E+03  0.00000000000E+00 0. -1.
         23    2    1    2    0    0  0.50034494004E+01  0.68826596740E+01  0.10321725343E+03  0.13790702491E+03  0.91061191546E+02 0.  0.
         23    2    1    2    0    0 -0.18535830619E+01  0.31706037960E+02 -0.24731603123E+02  0.99558133002E+02  0.91057460104E+02 0.  0.
        -11    1    4    4    0    0 -0.39871594238E+02  0.41114213796E+02 -0.14790875847E+02  0.59151437949E+02  0.00000000000E+00 0. -1.
         11    1    4    4    0    0  0.38018011176E+02 -0.94081758358E+01 -0.99407272752E+01  0.40406695053E+02  0.00000000000E+00 0.  1.
        -13    1    3    3    0    0  0.28005326600E+02 -0.32267216334E+02  0.68566981506E+02  0.80789247557E+02  0.00000000000E+00 0.  1.
         13    1    3    3    0    0 -0.23001877200E+02  0.39149876008E+02  0.34650271920E+02  0.57117777357E+02  0.00000000000E+00 0. -1.
         -1    1    1    2    0  502 -0.31498663385E+01 -0.38588697634E+02 -0.42105249581E+02  0.57200186061E+02  0.00000000000E+00 0.  1.
<scales pt_clust_5="13000.00000" pt_clust_6="13000.00000" pt_clust_7="13000.00000" pt_clust_8="13000.00000" pt_clust_9="38.71704"></scales>
<clustering>
<clus scale="   38.717">  2  9  1 -1</clus>
<clus scale="   91.057">  5  6 -1 -1</clus>
<clus scale="   91.061">  7  8 -1 -1</clus>
<clus scale="   91.173">  2  5  1 -1</clus>
<clus scale="   38.717">  2  5  1 -1</clus>
</clustering>
</event>
<event>
 9    1  0.1601012E-005  0.3551499E+03  0.7546771E-02  0.1060678E+00
         21   -1    0    0  501  502  0.00000000000E+00  0.00000000000E+00  0.14860884645E+03  0.14860884645E+03  0.00000000000E+00 0. -1.
          1   -1    0    0  502    0 -0.00000000000E+00 -0.00000000000E+00 -0.15504185709E+04  0.15504185709E+04  0.00000000000E+00 0. -1.
         23    2    1    2    0    0  0.31755614961E+03  0.11464456093E+03 -0.11566908348E+04  0.12087573088E+04  0.95787581974E+02 0.  0.
         23    2    1    2    0    0 -0.34523075534E+03 -0.97503477352E+02 -0.26236497852E+03  0.45343088859E+03  0.89849798279E+02 0.  0.
        -11    1    3    3    0    0  0.12485344188E+03  0.14694761507E+01 -0.48751970520E+03  0.50325540660E+03  0.00000000000E+00 0.  1.
         11    1    3    3    0    0  0.19270270773E+03  0.11317508478E+03 -0.66917112956E+03  0.70550190221E+03  0.00000000000E+00 0. -1.
        -13    1    4    4    0    0 -0.12001822847E+03 -0.73369462229E+02 -0.74617416935E+02  0.15923320025E+03  0.00000000000E+00 0.  1.
         13    1    4    4    0    0 -0.22521252687E+03 -0.24134015123E+02 -0.18774756158E+03  0.29419768834E+03  0.00000000000E+00 0. -1.
          1    1    1    2  501    0  0.27674605727E+02 -0.17141083579E+02  0.17246088816E+02  0.36839219968E+02  0.00000000000E+00 0. -1.
<scales pt_clust_5="13000.00000" pt_clust_6="13000.00000" pt_clust_7="13000.00000" pt_clust_8="13000.00000" pt_clust_9="32.55304"></scales>
<clustering>
<clus scale="   32.553">  1  9  2 -1</clus>
<clus scale="   89.850">  7  8 -1 -1</clus>
<clus scale="   95.788">  5  6 -1 -1</clus>
<clus scale="  353.595">  1  7  2 -1</clus>
<clus scale="   32.553">  1  5  2 -1</clus>
</clustering>
</event>
<event>
 9    1  0.1601012E-005  0.2566831E+03  0.7546771E-02  0.1145931E+00
          1   -1    0    0  502    0 -0.00000000000E+00  0.00000000000E+00  0.10846855411E+03  0.10846855411E+03  0.00000000000E+00 0. -1.
         21   -1    0    0  501  502  0.00000000000E+00 -0.00000000000E+00 -0.85141490905E+03  0.85141490905E+03  0.00000000000E+00 0.  1.
         23    2    1    2    0    0  0.47910464846E+02 -0.18311358352E+02 -0.84205134475E+02  0.13348768646E+03  0.89987439559E+02 0.  0.
         23    2    1    2    0    0 -0.10783321624E+03  0.23399202836E+03 -0.39450154511E+03  0.48008450981E+03  0.92029319259E+02 0.  0.
        -11    1    4    4    0    0 -0.86917089330E+02  0.18015462400E+03 -0.36257425290E+03  0.41408979440E+03  0.00000000000E+00 0.  1.
         11    1    4    4    0    0 -0.20916126905E+02  0.53837404366E+02 -0.31927292217E+02  0.65994715409E+02  0.00000000000E+00 0. -1.
        -13    1    3    3    0    0 -0.11301862686E+02 -0.39082003180E+02 -0.36598070941E+02  0.54722517023E+02  0.00000000000E+00 0.  1.
         13    1    3    3    0    0  0.59212327532E+02  0.20770644828E+02 -0.47607063534E+02  0.78765169438E+02  0.00000000000E+00 0. -1.
          1    1    1    2  501    0  0.59922751390E+02 -0.21568067001E+03 -0.26423967535E+03  0.34631126690E+03  0.00000000000E+00 0. -1.
<scales pt_clust_5="13000.00000" pt_clust_6="13000.00000" pt_clust_7="13000.00000" pt_clust_8="13000.00000" pt_clust_9="239.61814"></scales>
<clustering>
<clus scale="   89.987">  7  8 -1 -1</clus>
<clus scale="   92.029">  5  6 -1 -1</clus>
<clus scale="  103.578">  1  7  2 -1</clus>
<clus scale="  239.618">  2  9  1 -1</clus>
<clus scale="  239.618">  2  5  1 -1</clus>
</clustering>
</event>
<event>
 9    1  0.1601012E-005  0.2326244E+03  0.7546771E-02  0.1125096E+00
         21   -1    0    0  501  502  0.00000000000E+00  0.00000000000E+00  0.86393517228E+02  0.86393517228E+02  0.00000000000E+00 0. -1.
          2   -1    0    0  502    0 -0.00000000000E+00 -0.00000000000E+00 -0.14463205006E+04  0.14463205006E+04  0.00000000000E+00 0. -1.
         23    2    1    2    0    0  0.11911350046E+02  0.26709516675E+03 -0.95892575371E+03  0.99977717929E+03  0.92380185920E+02 0.  0.
         23    2    1    2    0    0 -0.77331491713E+01 -0.15906711314E+03 -0.38204266343E+03  0.42317826277E+03  0.88097090298E+02 0.  0.
        -11    1    3    3    0    0  0.12968578125E+02  0.60921501278E+02 -0.11238959811E+03  0.12849527267E+03  0.00000000000E+00 0.  1.
         11    1    3    3    0    0 -0.10572280793E+01  0.20617366547E+03 -0.84653615560E+03  0.87128190662E+03  0.00000000000E+00 0. -1.
        -13    1    4    4    0    0  0.31951635501E+02 -0.28542048801E+02 -0.12558778640E+03  0.13269456528E+03  0.00000000000E+00 0. -1.
         13    1    4    4    0    0 -0.39684784672E+02 -0.13052506434E+03 -0.25645487702E+03  0.29048369749E+03  0.00000000000E+00 0.  1.
          2    1    1    2  501    0 -0.41782008745E+01 -0.10802805361E+03 -0.18958566278E+02  0.10975857581E+03  0.00000000000E+00 0. -1.
<scales pt_clust_5="13000.00000" pt_clust_6="13000.00000" pt_clust_7="13000.00000" pt_clust_8="13000.00000" pt_clust_9="108.10882"></scales>
<clustering>
<clus scale="   88.097">  7  8 -1 -1</clus>
<clus scale="   92.380">  5  6 -1 -1</clus>
<clus scale="  108.109">  1  9  2 -1</clus>
<clus scale="  230.957">  1  7  2 -1</clus>
<clus scale="  108.109">  1  5  2 -1</clus>
</clustering>
</event>
<event>
 9    1  0.1601012E-005  0.1228856E+03  0.7546771E-02  0.1238521E+00
         21   -1    0    0  501  502  0.00000000000E+00  0.00000000000E+00  0.25763201151E+02  0.25763201151E+02  0.00000000000E+00 0. -1.
          2   -1    0    0  502    0 -0.00000000000E+00 -0.00000000000E+00 -0.11704583752E+04  0.11704583752E+04  0.00000000000E+00 0. -1.
         23    2    1    2    0    0  0.63962042713E+02 -0.53783026093E+02 -0.58992693017E+03  0.60292291071E+03  0.92295701544E+02 0.  0.
         23    2    1    2    0    0 -0.73440832103E+02  0.30876439662E+02 -0.55521583898E+03  0.56850432167E+03  0.92658650703E+02 0.  0.
        -11    1    3    3    0    0  0.29405503766E+02  0.23990960264E+02 -0.14207043472E+03  0.14705188964E+03  0.00000000000E+00 0.  1.
         11    1    3    3    0    0  0.34556538947E+02 -0.77773986356E+02 -0.44785649545E+03  0.45587102107E+03  0.00000000000E+00 0. -1.
        -13    1    4    4    0    0 -0.44710024603E+02  0.63807391961E+02 -0.32831409833E+03  0.33743224020E+03  0.00000000000E+00 0.  1.
         13    1    4    4    0    0 -0.28730807500E+02 -0.32930952298E+02 -0.22690174066E+03  0.23107208146E+03  0.00000000000E+00 0. -1.
          2    1    1    2  501    0  0.94787893903E+01  0.22906586431E+02  0.44759512660E+00  0.24794343944E+02  0.00000000000E+00 0. -1.
<scales pt_clust_5="13000.00000" pt_clust_6="13000.00000" pt_clust_7="13000.00000" pt_clust_8="13000.00000" pt_clust_9="24.79030"></scales>
<clustering>
<clus scale="   24.790">  1  9  2 -1</clus>
<clus scale="   92.296">  5  6 -1 -1</clus>
<clus scale="   92.659">  7  8 -1 -1</clus>
<clus scale="  122.612">  2  5  1 -1</clus>
<clus scale="   24.790">  1  5  2 -1</clus>
</clustering>
</event>
<event>
 9    1  0.1601012E-005  0.9366865E+02  0.7546771E-02  0.1295400E+00
          1   -1    0    0  502    0 -0.00000000000E+00  0.00000000000E+00  0.20123326351E+03  0.20123326351E+03  0.00000000000E+00 0. -1.
         21   -1    0    0  501  502  0.00000000000E+00 -0.00000000000E+00 -0.16805267025E+03  0.16805267025E+03  0.00000000000E+00 0. -1.
         23    2    1    2    0    0  0.73351405239E+01  0.35876934196E+02  0.11850521719E+03  0.15211251634E+03  0.88055507674E+02 0.  0.
         23    2    1    2    0    0  0.29432848818E+02 -0.60037578844E+00  0.22855619268E+02  0.97593796943E+02  0.90197099893E+02 0.  0.
        -13    1    4    4    0    0  0.55616325333E+02  0.46619106317E+01 -0.84462121069E+01  0.56446856009E+02  0.00000000000E+00 0. -1.
         13    1    4    4    0    0 -0.26183476515E+02 -0.52622864202E+01  0.31301831375E+02  0.41146940934E+02  0.00000000000E+00 0.  1.
        -13    1    3    3    0    0  0.27732244512E+02  0.38886148653E+02  0.12216735723E+03  0.13117192198E+03  0.00000000000E+00 0. -1.
         13    1    3    3    0    0 -0.20397103988E+02 -0.30092144574E+01 -0.36621400342E+01  0.20940594366E+02  0.00000000000E+00 0.  1.
          1    1    1    2  501    0 -0.36767989342E+02 -0.35276558408E+02 -0.10818024320E+03  0.11957962047E+03  0.00000000000E+00 0. -1.
<scales pt_clust_5="13000.00000" pt_clust_6="13000.00000" pt_clust_7="13000.00000" pt_clust_8="13000.00000" pt_clust_9="50.95410"></scales>
<clustering>
<clus scale="   50.954">  2  9  1 -1</clus>
<clus scale="   88.056">  7  8 -1 -1</clus>
<clus scale="   90.197">  5  6 -1 -1</clus>
<clus scale="   91.608">  1  7  2 -1</clus>
<clus scale="   50.954">  2  5  1 -1</clus>
</clustering>
</event>
<event>
 9    1  0.1601012E-005  0.1177865E+03  0.7546771E-02  0.1247754E+00
          2   -1    0    0  502    0 -0.00000000000E+00  0.00000000000E+00  0.15760767070E+03  0.15760767070E+03  0.00000000000E+00 0. -1.
         21   -1    0    0  501  502  0.00000000000E+00 -0.00000000000E+00 -0.22910201019E+03  0.22910201019E+03  0.00000000000E+00 0. -1.
         23    2    1    2    0    0 -0.41925186446E+02 -0.29169686165E+02  0.41506959155E+02  0.11246059784E+03  0.91191921560E+02 0.  0.
         23    2    1    2    0    0  0.11377084364E+03  0.41968844525E+02 -0.18063581961E+02  0.15450440901E+03  0.94021968913E+02 0.  0.
        -13    1    4    4    0    0  0.11238914067E+03  0.55485851881E+01  0.26999098705E+01  0.11255840817E+03  0.00000000000E+00 0. -1.
         13    1    4    4    0    0  0.13817029701E+01  0.36420259337E+02 -0.20763491832E+02  0.41946000838E+02  0.00000000000E+00 0.  1.
        -13    1    3    3    0    0  0.18379055416E+02 -0.36318447827E+02  0.30215770323E+02  0.50693314222E+02  0.00000000000E+00 0. -1.
         13    1    3    3    0    0 -0.60304241862E+02  0.71487616628E+01  0.11291188832E+02  0.61767283614E+02  0.00000000000E+00 0.  1.
          2    1    1    2  501    0 -0.71845657189E+02 -0.12799158361E+02 -0.94937716689E+02  0.11974467404E+03  0.00000000000E+00 0. -1.
<scales pt_clust_5="13000.00000" pt_clust_6="13000.00000" pt_clust_7="13000.00000" pt_clust_8="13000.00000" pt_clust_9="72.97682"></scales>
<clustering>
<clus scale="   72.977">  2  9  1 -1</clus>
<clus scale="   91.192">  7  8 -1 -1</clus>
<clus scale="   94.022">  5  6 -1 -1</clus>
<clus scale="  115.540">  1  7  2 -1</clus>
<clus scale="   72.977">  2  5  1 -1</clus>
</clustering>
</event>
<event>
 9    1  0.1601012E-005  0.9497956E+02  0.7546771E-02  0.1291345E+00
         21   -1    0    0  501  502  0.00000000000E+00  0.00000000000E+00  0.80462898198E+02  0.80462898198E+02  0.00000000000E+00 0. -1.
         -1   -1    0    0    0  501 -0.00000000000E+00 -0.00000000000E+00 -0.38380804226E+03  0.38380804226E+03  0.00000000000E+00 0.  1.
         23    2    1    2    0    0  0.32341551436E+01  0.24718667396E+02 -0.30887434003E+03  0.32342063615E+03  0.92607114624E+02 0.  0.
         23    2    1    2    0    0 -0.17213215055E+02  0.11429146235E+01 -0.26231371269E+02  0.97572490462E+02  0.92383467298E+02 0.  0.
        -11    1    3    3    0    0  0.26620986830E+02 -0.24644255053E+02 -0.75834041999E+02  0.84064369223E+02  0.00000000000E+00 0.  1.
         11    1    3    3    0    0 -0.23386831687E+02  0.49362922449E+02 -0.23304029803E+03  0.23935626693E+03  0.00000000000E+00 0. -1.
        -13    1    4    4    0    0 -0.14718587014E+02 -0.43492323088E+02 -0.26206162512E+02  0.52867588605E+02  0.00000000000E+00 0.  1.
         13    1    4    4    0    0 -0.24946280416E+01  0.44635237711E+02 -0.25208756531E-01  0.44704901857E+02  0.00000000000E+00 0. -1.
         -1    1    1    2    0  502  0.13979059912E+02 -0.25861582020E+02  0.31760567236E+02  0.43277813851E+02  0.00000000000E+00 0.  1.
<scales pt_clust_5="13000.00000" pt_clust_6="13000.00000" pt_clust_7="13000.00000" pt_clust_8="13000.00000" pt_clust_9="29.39788"></scales>
<clustering>
<clus scale="   29.398">  1  9  2 -1</clus>
<clus scale="   92.383">  7  8 -1 -1</clus>
<clus scale="   92.607">  5  6 -1 -1</clus>
<clus scale="   94.762">  1  7  2 -1</clus>
<clus scale="   29.398">  1  5  2 -1</clus>
</clustering>
</event>
<event>
 9    1  0.1601012E-005  0.1006457E+03  0.7546771E-02  0.1281310E+00
         -2   -1    0    0    0  501 -0.00000000000E+00  0.00000000000E+00  0.17433006078E+03  0.17433006078E+03  0.00000000000E+00 0.  1.
         21   -1    0    0  501  502  0.00000000000E+00 -0.00000000000E+00 -0.14593219530E+03  0.14593219530E+03  0.00000000000E+00 0. -1.
         23    2    1    2    0    0  0.22967615646E+02  0.39394549151E+02  0.89258205095E+02  0.12954783657E+03  0.82074191516E+02 0.  0.
         23    2    1    2    0    0  0.13178973907E+02 -0.74900714278E+02 -0.57719582434E+01  0.11586795359E+03  0.87225367959E+02 0.  0.
        -13    1    4    4    0    0  0.17772164332E+02 -0.48556188844E+02  0.38280022515E+02  0.64334387569E+02  0.00000000000E+00 0.  1.
         13    1    4    4    0    0 -0.45931904249E+01 -0.26344525434E+02 -0.44051980758E+02  0.51533566026E+02  0.00000000000E+00 0. -1.
        -13    1    3    3    0    0  0.51913147406E+02  0.31622068710E+02  0.43109167332E+02  0.74520671033E+02  0.00000000000E+00 0.  1.
         13    1    3    3    0    0 -0.28945531760E+02  0.77724804411E+01  0.46149037763E+02  0.55027165541E+02  0.00000000000E+00 0. -1.
         -2    1    1    2    0  502 -0.36146589553E+02  0.35506165127E+02 -0.55088381364E+02  0.74846465913E+02  0.00000000000E+00 0.  1.
<scales pt_clust_5="13000.00000" pt_clust_6="13000.00000" pt_clust_7="13000.00000" pt_clust_8="13000.00000" pt_clust_9="50.66817"></scales>
<clustering>
<clus scale="   50.668">  2  9  1 -1</clus>
<clus scale="   82.074">  7  8 -1 -1</clus>
<clus scale="   87.225">  5  6 -1 -1</clus>
<clus scale="   96.216">  1  7  2 -1</clus>
<clus scale="   50.668">  2  5  1 -1</clus>
</clustering>
</event>
<event>
 9    1  0.1601012E-005  0.1611320E+03  0.7546771E-02  0.1187884E+00
          2   -1    0    0  502    0 -0.00000000000E+00  0.00000000000E+00  0.17781123311E+03  0.17781123311E+03  0.00000000000E+00 0. -1.
         21   -1    0    0  501  502  0.00000000000E+00 -0.00000000000E+00 -0.27254659601E+03  0.27254659601E+03  0.00000000000E+00 0. -1.
         23    2    1    2    0    0  0.12818612798E+03  0.49560043644E+02  0.87799403631E+02  0.18753917634E+03  0.92597656830E+02 0.  0.
         23    2    1    2    0    0 -0.10589920608E+03 -0.98830084050E+01 -0.14787343400E+03  0.20561391534E+03  0.95384558480E+02 0.  0.
        -11    1    4    4    0    0 -0.76458687620E+01  0.33138523408E+02 -0.49611859300E+02  0.60149460729E+02  0.00000000000E+00 0. -1.
         11    1    4    4    0    0 -0.98253337319E+02 -0.43021531813E+02 -0.98261574698E+02  0.14546445461E+03  0.00000000000E+00 0.  1.
        -13    1    3    3    0    0  0.47964684551E+02 -0.25988070335E+02  0.19706401607E+02  0.58002870861E+02  0.00000000000E+00 0.  1.
         13    1    3    3    0    0  0.80221443429E+02  0.75548113979E+02  0.68093002023E+02  0.12953630547E+03  0.00000000000E+00 0. -1.
          2    1    1    2  501    0 -0.22286921899E+02 -0.39677035239E+02 -0.34661332528E+02  0.57204737441E+02  0.00000000000E+00 0. -1.
<scales pt_clust_5="13000.00000" pt_clust_6="13000.00000" pt_clust_7="13000.00000" pt_clust_8="13000.00000" pt_clust_9="45.50796"></scales>
<clustering>
<clus scale="   45.508">  2  9  1 -1</clus>
<clus scale="   92.598">  7  8 -1 -1</clus>
<clus scale="   95.385">  5  6 -1 -1</clus>
<clus scale="  159.498">  1  7  2 -1</clus>
<clus scale="   45.508">  2  5  1 -1</clus>
</clustering>
</event>
<event>
 9    1  0.1601012E-005  0.1379294E+03  0.7546771E-02  0.1216480E+00
         21   -1    0    0  501  502  0.00000000000E+00  0.00000000000E+00  0.65786138541E+02  0.65786138541E+02  0.00000000000E+00 0. -1.
          2   -1    0    0  502    0 -0.00000000000E+00 -0.00000000000E+00 -0.78646999321E+03  0.78646999321E+03  0.00000000000E+00 0. -1.
         23    2    1    2    0    0  0.12181282431E+03  0.11341262376E+02 -0.49358047191E+03  0.51719521227E+03  0.94351560384E+02 0.  0.
         23    2    1    2    0    0 -0.38736535019E+02 -0.83693811033E+02 -0.15726957407E+03  0.20462579394E+03  0.92912988684E+02 0.  0.
        -11    1    3    3    0    0  0.87886314555E+02 -0.27210404829E+02 -0.21401847379E+03  0.23295561281E+03  0.00000000000E+00 0. -1.
         11    1    3    3    0    0  0.33926509754E+02  0.38551667205E+02 -0.27956199811E+03  0.28423959945E+03  0.00000000000E+00 0.  1.
        -11    1    4    4    0    0 -0.44817287443E+02 -0.63275707619E+01 -0.26181272918E+02  0.52288492588E+02  0.00000000000E+00 0.  1.
         11    1    4    4    0    0  0.60807524245E+01 -0.77366240271E+02 -0.13108830116E+03  0.15233730135E+03  0.00000000000E+00 0. -1.
          2    1    1    2  501    0 -0.83076289290E+02  0.72352548657E+02 -0.69833808690E+02  0.13043512554E+03  0.00000000000E+00 0. -1.
<scales pt_clust_5="13000.00000" pt_clust_6="13000.00000" pt_clust_7="13000.00000" pt_clust_8="13000.00000" pt_clust_9="110.16606"></scales>
<clustering>
<clus scale="   92.913">  7  8 -1 -1</clus>
<clus scale="   94.352">  5  6 -1 -1</clus>
<clus scale="  110.166">  1  9  2 -1</clus>
<clus scale="  136.949">  1  7  2 -1</clus>
<clus scale="  110.166">  1  5  2 -1</clus>
</clustering>
</event>
<event>
 9    1  0.1601012E-005  0.1493893E+03  0.7546771E-02  0.1210233E+00
         21   -1    0    0  501  502  0.00000000000E+00  0.00000000000E+00  0.14132367793E+03  0.14132367793E+03  0.00000000000E+00 0. -1.
          2   -1    0    0  502    0 -0.00000000000E+00 -0.00000000000E+00 -0.66483177609E+03  0.66483177609E+03  0.00000000000E+00 0. -1.
         23    2    1    2    0    0  0.69041569262E+02  0.48962054728E+02 -0.61678419960E+03  0.63500088827E+03  0.12505741935E+03 0.  0.
         23    2    1    2    0    0 -0.43923551832E+02 -0.33002455167E+02  0.49115548400E+02  0.11790254174E+03  0.92033862250E+02 0.  0.
        -11    1    3    3    0    0  0.46054971831E+02 -0.34946106926E+02 -0.33954494016E+03  0.34443149857E+03  0.00000000000E+00 0.  1.
         11    1    3    3    0    0  0.22986597430E+02  0.83908161654E+02 -0.27723925944E+03  0.29056938969E+03  0.00000000000E+00 0. -1.
        -13    1    4    4    0    0 -0.62613622846E+02  0.67226654434E+01  0.24509214313E+02  0.67574859103E+02  0.00000000000E+00 0.  1.
         13    1    4    4    0    0  0.18690071014E+02 -0.39725120611E+02  0.24606334087E+02  0.50327682633E+02  0.00000000000E+00 0. -1.
          2    1    1    2  501    0 -0.25118017430E+02 -0.15959599561E+02  0.44160553031E+02  0.53252024016E+02  0.00000000000E+00 0. -1.
<scales pt_clust_5="13000.00000" pt_clust_6="13000.00000" pt_clust_7="13000.00000" pt_clust_8="13000.00000" pt_clust_9="29.75943"></scales>
<clustering>
<clus scale="   29.759">  1  9  2 -1</clus>
<clus scale="   92.034">  7  8 -1 -1</clus>
<clus scale="  123.077">  1  7  2 -1</clus>
<clus scale="  125.057">  5  6 -1 -1</clus>
<clus scale="   29.759">  1  5  2 -1</clus>
</clustering>
</event>
<event>
 9    1  0.1601012E-005  0.1085068E+03  0.7546771E-02  0.1264554E+00
          1   -1    0    0  502    0 -0.00000000000E+00  0.00000000000E+00  0.10794319289E+03  0.10794319289E+03  0.00000000000E+00 0. -1.
         21   -1    0    0  501  502  0.00000000000E+00 -0.00000000000E+00 -0.24295982306E+03  0.24295982306E+03  0.00000000000E+00 0. -1.
         23    2    1    2    0    0  0.44864203882E+02  0.37984184363E+02 -0.30188790260E+01  0.10858637075E+03  0.91248513575E+02 0.  0.
         23    2    1    2    0    0  0.81685748589E+01 -0.76320017011E+02 -0.29364879536E+02  0.12059722185E+03  0.88260541327E+02 0.  0.
        -13    1    3    3    0    0 -0.14749955577E+02  0.44516414875E+02 -0.10768173617E+02  0.48116794842E+02  0.00000000000E+00 0.  1.
         13    1    3    3    0    0  0.59614159458E+02 -0.65322305123E+01  0.77492945908E+01  0.60469575904E+02  0.00000000000E+00 0. -1.
        -13    1    4    4    0    0 -0.11985625392E+01 -0.31625720336E+02 -0.58441395712E+02  0.66460661084E+02  0.00000000000E+00 0.  1.
         13    1    4    4    0    0  0.93671373980E+01 -0.44694296675E+02  0.29076516177E+02  0.54136560763E+02  0.00000000000E+00 0. -1.
          1    1    1    2  501    0 -0.53032778741E+02  0.38335832648E+02 -0.10263287161E+03  0.12171942335E+03  0.00000000000E+00 0. -1.
<scales pt_clust_5="13000.00000" pt_clust_6="13000.00000" pt_clust_7="13000.00000" pt_clust_8="13000.00000" pt_clust_9="65.43785"></scales>
<clustering>
<clus scale="   65.438">  2  9  1 -1</clus>
<clus scale="   88.261">  7  8 -1 -1</clus>
<clus scale="   91.249">  5  6 -1 -1</clus>
<clus scale="  106.006">  2  7  1 -1</clus>
<clus scale="   65.438">  2  5  1 -1</clus>
</clustering>
</event>
<event>
 9    1  0.1601012E-005  0.1306691E+03  0.7546771E-02  0.1227562E+00
         -2   -1    0    0    0  501 -0.00000000000E+00  0.00000000000E+00  0.15156878233E+03  0.15156878233E+03  0.00000000000E+00 0.  1.
         21   -1    0    0  501  502  0.00000000000E+00 -0.00000000000E+00 -0.36675197838E+03  0.36675197838E+03  0.00000000000E+00 0.  1.
         23    2    1    2    0    0  0.49939123163E+01  0.10053712831E+03  0.57155089304E+02  0.14776051824E+03  0.91835794689E+02 0.  0.
         23    2    1    2    0    0 -0.44421107544E+02 -0.73880762456E+02 -0.34011085455E+02  0.12752748795E+03  0.87606531675E+02 0.  0.
        -11    1    3    3    0    0 -0.22552013090E+02  0.32561279366E+02 -0.17322773026E+02  0.43230876393E+02  0.00000000000E+00 0. -1.
         11    1    3    3    0    0  0.27545925406E+02  0.67975848948E+02  0.74477862330E+02  0.10452964184E+03  0.00000000000E+00 0.  1.
        -13    1    4    4    0    0  0.25461025983E+02 -0.75490728975E+01 -0.76091117100E+01  0.27625186456E+02  0.00000000000E+00 0. -1.
         13    1    4    4    0    0 -0.69882133527E+02 -0.66331689558E+02 -0.26401973745E+02  0.99902301493E+02  0.00000000000E+00 0.  1.
         -2    1    1    2    0  502  0.39427195228E+02 -0.26656365859E+02 -0.23832719989E+03  0.24303275452E+03  0.00000000000E+00 0.  1.
<scales pt_clust_5="13000.00000" pt_clust_6="13000.00000" pt_clust_7="13000.00000" pt_clust_8="13000.00000" pt_clust_9="47.59270"></scales>
<clustering>
<clus scale="   47.593">  2  9  1 -1</clus>
<clus scale="   87.607">  7  8 -1 -1</clus>
<clus scale="   91.836">  5  6 -1 -1</clus>
<clus scale="  127.732">  2  7  1 -1</clus>
<clus scale="   47.593">  2  5  1 -1</clus>
</clustering>
</event>
<event>
 9    1  0.1601012E-005  0.1299966E+03  0.7546771E-02  0.1228245E+00
         21   -1    0    0  501  502  0.00000000000E+00  0.00000000000E+00  0.13522457983E+03  0.13522457983E+03  0.00000000000E+00 0.  1.
          1   -1    0    0  502    0 -0.00000000000E+00 -0.00000000000E+00 -0.18979480135E+03  0.18979480135E+03  0.00000000000E+00 0. -1.
         23    2    1    2    0    0 -0.64664347188E+02 -0.75801379085E+02 -0.75099120095E+02  0.15645738991E+03  0.94401854588E+02 0.  0.
         23    2    1    2    0    0  0.17675719127E+02  0.76079415475E+02  0.15930469369E+02  0.12134807359E+03  0.91493533121E+02 0.  0.
        -11    1    4    4    0    0 -0.26028079587E+02  0.69759103981E+02  0.15639738468E+00  0.74456819536E+02  0.00000000000E+00 0.  1.
         11    1    4    4    0    0  0.43703798714E+02  0.63203114943E+01  0.15774071985E+02  0.46891254050E+02  0.00000000000E+00 0. -1.
        -11    1    3    3    0    0 -0.24770339404E+02 -0.84478181422E+02 -0.74968508052E+02  0.11563048928E+03  0.00000000000E+00 0. -1.
         11    1    3    3    0    0 -0.39894007784E+02  0.86768023374E+01 -0.13061204355E+00  0.40826900634E+02  0.00000000000E+00 0.  1.
          1    1    1    2  501    0  0.46988628061E+02 -0.27803639033E+00  0.45984292040E+01  0.47213917677E+02  0.00000000000E+00 0. -1.
<scales pt_clust_5="13000.00000" pt_clust_6="13000.00000" pt_clust_7="13000.00000" pt_clust_8="13000.00000" pt_clust_9="46.98945"></scales>
<clustering>
<clus scale="   46.989">  1  9  2 -1</clus>
<clus scale="   91.494">  5  6 -1 -1</clus>
<clus scale="   94.402">  7  8 -1 -1</clus>
<clus scale="  127.900">  1  5  2 -1</clus>
<clus scale="   46.989">  1  5  2 -1</clus>
</clustering>
</event>
<event>
 9    1  0.1601012E-005  0.1193409E+03  0.7546771E-02  0.1244266E+00
         21   -1    0    0  501  502  0.00000000000E+00  0.00000000000E+00  0.15637461525E+03  0.15637461525E+03  0.00000000000E+00 0.  1.
         -3   -1    0    0    0  501 -0.00000000000E+00 -0.00000000000E+00 -0.18973430847E+03  0.18973430847E+03  0.00000000000E+00 0.  1.
         23    2    1    2    0    0  0.37924174196E+02  0.49064585850E+02 -0.35465250444E+02  0.11529309691E+03  0.90493854116E+02 0.  0.
         23    2    1    2    0    0 -0.90942692351E+01 -0.10168077089E+03 -0.55697404319E+02  0.14750431072E+03  0.90739384679E+02 0.  0.
        -11    1    4    4    0    0 -0.34430497483E+02 -0.97479715452E+02 -0.62668435042E+02  0.12089287337E+03  0.00000000000E+00 0.  1.
         11    1    4    4    0    0  0.25336228248E+02 -0.42010554426E+01  0.69710307229E+01  0.26611437353E+02  0.00000000000E+00 0. -1.
        -13    1    3    3    0    0  0.63145841941E+02  0.21873013115E+02 -0.40071600851E+02  0.77920210805E+02  0.00000000000E+00 0.  1.
         13    1    3    3    0    0 -0.25221667745E+02  0.27191572735E+02  0.46063504068E+01  0.37372886104E+02  0.00000000000E+00 0. -1.
         -3    1    1    2    0  502 -0.28829904961E+02  0.52616185044E+02  0.57802961547E+02  0.83311516085E+02  0.00000000000E+00 0.  1.
<scales pt_clust_5="13000.00000" pt_clust_6="13000.00000" pt_clust_7="13000.00000" pt_clust_8="13000.00000" pt_clust_9="59.99689"></scales>
<clustering>
<clus scale="   59.997">  1  9  2 -1</clus>
<clus scale="   90.494">  7  8 -1 -1</clus>
<clus scale="   90.739">  5  6 -1 -1</clus>
<clus scale="  119.154">  2  7  1 -1</clus>
<clus scale="   59.997">  1  5  2 -1</clus>
</clustering>
</event>
<event>
 9    1  0.1601012E-005  0.1567467E+03  0.7546771E-02  0.1194890E+00
         21   -1    0    0  501  502  0.00000000000E+00  0.00000000000E+00  0.44759861617E+03  0.44759861617E+03  0.00000000000E+00 0.  1.
         -1   -1    0    0    0  501 -0.00000000000E+00 -0.00000000000E+00 -0.96997811899E+02  0.96997811899E+02  0.00000000000E+00 0.  1.
         23    2    1    2    0    0  0.39670893610E+02 -0.97669295410E+02  0.59440106233E+02  0.15844407239E+03  0.10226596102E+03 0.  0.
         23    2    1    2    0    0 -0.10905151544E+03  0.10353413959E+03  0.15668943684E+03  0.23472386704E+03  0.89062691731E+02 0.  0.
        -11    1    4    4    0    0  0.12179237163E+02  0.16315028750E+02  0.32756926881E+01  0.20621448629E+02  0.00000000000E+00 0. -1.
         11    1    4    4    0    0 -0.12123075260E+03  0.87219110840E+02  0.15341374415E+03  0.21410241841E+03  0.00000000000E+00 0.  1.
        -13    1    3    3    0    0  0.63687764758E+02 -0.56481974446E+02  0.69287882450E+02  0.10975953476E+03  0.00000000000E+00 0.  1.
         13    1    3    3    0    0 -0.24016871148E+02 -0.41187320964E+02 -0.98477762169E+01  0.48684537631E+02  0.00000000000E+00 0. -1.
         -1    1    1    2    0  502  0.69380621831E+02 -0.58648441793E+01  0.13447126120E+03  0.15142848864E+03  0.00000000000E+00 0.  1.
<scales pt_clust_5="13000.00000" pt_clust_6="13000.00000" pt_clust_7="13000.00000" pt_clust_8="13000.00000" pt_clust_9="69.62806"></scales>
<clustering>
<clus scale="   69.628">  1  9  2 -1</clus>
<clus scale="   89.063">  5  6 -1 -1</clus>
<clus scale="  102.266">  7  8 -1 -1</clus>
<clus scale="  148.470">  1  5  2 -1</clus>
<clus scale="   69.628">  1  5  2 -1</clus>
</clustering>
</event>
<event>
 9    1  0.1601012E-005  0.9815883E+02  0.7546771E-02  0.1284632E+00
         21   -1    0    0  501  502  0.00000000000E+00  0.00000000000E+00  0.59714807338E+02  0.59714807338E+02  0.00000000000E+00 0.  1.
          4   -1    0    0  502    0 -0.00000000000E+00 -0.00000000000E+00 -0.26424259955E+03  0.26424259955E+03  0.00000000000E+00 0. -1.
         23    2    1    2    0    0  0.44424405327E+02  0.15649113365E+01 -0.15015210646E+03  0.18039182611E+03  0.89552102798E+02 0.  0.
         23    2    1    2    0    0 -0.29354831972E+02  0.27862776558E+02 -0.51783491536E+02  0.11040234320E+03  0.88707986735E+02 0.  0.
        -11    1    4    4    0    0 -0.41424369569E+02 -0.11982161660E+02 -0.53522899146E+02  0.68733189401E+02  0.00000000000E+00 0. -1.
         11    1    4    4    0    0  0.12069537597E+02  0.39844938218E+02  0.17394076100E+01  0.41669153798E+02  0.00000000000E+00 0.  1.
        -13    1    3    3    0    0  0.58189152891E+02  0.24809428954E+02 -0.63519139371E+02  0.89644667134E+02  0.00000000000E+00 0.  1.
         13    1    3    3    0    0 -0.13764747565E+02 -0.23244517618E+02 -0.86632967090E+02  0.90747158972E+02  0.00000000000E+00 0. -1.
          4    1    1    2  501    0 -0.15069573355E+02 -0.29427687895E+02 -0.25921942131E+01  0.33163237580E+02  0.00000000000E+00 0. -1.
<scales pt_clust_5="13000.00000" pt_clust_6="13000.00000" pt_clust_7="13000.00000" pt_clust_8="13000.00000" pt_clust_9="33.06177"></scales>
<clustering>
<clus scale="   33.062">  1  9  2 -1</clus>
<clus scale="   88.708">  5  6 -1 -1</clus>
<clus scale="   89.552">  7  8 -1 -1</clus>
<clus scale="   97.389">  1  5  2 -1</clus>
<clus scale="   33.062">  1  5  2 -1</clus>
</clustering>
</event>
<event>
 9    1  0.1601012E-005  0.1036492E+03  0.7546771E-02  0.1272998E+00
         21   -1    0    0  501  502  0.00000000000E+00  0.00000000000E+00  0.36604722853E+03  0.36604722853E+03  0.00000000000E+00 0. -1.
         -1   -1    0    0    0  501 -0.00000000000E+00 -0.00000000000E+00 -0.40914978979E+02  0.40914978979E+02  0.00000000000E+00 0.  1.
         23    2    1    2    0    0 -0.40172156365E+02  0.41973162533E+02  0.11021396649E+03  0.15438846645E+03  0.91176376560E+02 0.  0.
         23    2    1    2    0    0  0.16997512869E+02 -0.35297917680E+02  0.12708077898E+03  0.16148559629E+03  0.91614491138E+02 0.  0.
        -13    1    3    3    0    0 -0.26845785020E+02 -0.26874415617E+02  0.39256796156E+02  0.54626243075E+02  0.00000000000E+00 0.  1.
         13    1    3    3    0    0 -0.13326371345E+02  0.68847578150E+02  0.70957170334E+02  0.99762223373E+02  0.00000000000E+00 0. -1.
        -13    1    4    4    0    0 -0.30405904787E+02 -0.13082460078E+01  0.12478386942E+02  0.32892866920E+02  0.00000000000E+00 0.  1.
         13    1    4    4    0    0  0.47403417656E+02 -0.33989671673E+02  0.11460239204E+03  0.12859272937E+03  0.00000000000E+00 0. -1.
         -1    1    1    2    0  502  0.23174643496E+02 -0.66752448528E+01  0.87837504076E+02  0.91088144768E+02  0.00000000000E+00 0.  1.
<scales pt_clust_5="13000.00000" pt_clust_6="13000.00000" pt_clust_7="13000.00000" pt_clust_8="13000.00000" pt_clust_9="24.11686"></scales>
<clustering>
<clus scale="   24.117">  1  9  2 -1</clus>
<clus scale="   91.176">  5  6 -1 -1</clus>
<clus scale="   91.614">  7  8 -1 -1</clus>
<clus scale="  103.262">  2  5  1 -1</clus>
<clus scale="   24.117">  1  5  2 -1</clus>
</clustering>
</event>
<event>
 9    1  0.1601012E-005  0.1258022E+03  0.7546771E-02  0.1233905E+00
          2   -1    0    0  502    0 -0.00000000000E+00  0.00000000000E+00  0.46821545704E+03  0.46821545704E+03  0.00000000000E+00 0. -1.
         21   -1    0    0  501  502  0.00000000000E+00 -0.00000000000E+00 -0.93661879804E+02  0.93661879804E+02  0.00000000000E+00 0.  1.
         23    2    1    2    0    0  0.76154021861E+01 -0.91226449931E+02  0.40023753669E+03  0.42011237089E+03  0.89017183058E+02 0.  0.
         23    2    1    2    0    0  0.32972008830E-01  0.70462764438E+02 -0.91403142994E+01  0.11413671125E+03  0.89323240253E+02 0.  0.
        -11    1    4    4    0    0  0.44314159059E+02  0.29250745226E+02 -0.74829147385E+01  0.53622241676E+02  0.00000000000E+00 0. -1.
         11    1    4    4    0    0 -0.44281187050E+02  0.41212019212E+02 -0.16573995609E+01  0.60514469570E+02  0.00000000000E+00 0.  1.
        -11    1    3    3    0    0 -0.20861345022E+02 -0.37129514665E+02  0.55298371844E+02  0.69797611019E+02  0.00000000000E+00 0.  1.
         11    1    3    3    0    0  0.28476747208E+02 -0.54096935266E+02  0.34493916485E+03  0.35031475987E+03  0.00000000000E+00 0. -1.
          2    1    1    2  501    0 -0.76483741949E+01  0.20763685493E+02 -0.16543645158E+02  0.27628254707E+02  0.00000000000E+00 0. -1.
<scales pt_clust_5="13000.00000" pt_clust_6="13000.00000" pt_clust_7="13000.00000" pt_clust_8="13000.00000" pt_clust_9="22.12755"></scales>
<clustering>
<clus scale="   22.128">  2  9  1 -1</clus>
<clus scale="   89.017">  7  8 -1 -1</clus>
<clus scale="   89.323">  5  6 -1 -1</clus>
<clus scale="  125.585">  1  7  2 -1</clus>
<clus scale="   22.128">  2  5  1 -1</clus>
</clustering>
</event>
<event>
 9    1  0.1601012E-005  0.2310641E+03  0.7546771E-02  0.1125937E+00
         21   -1    0    0  501  502  0.00000000000E+00  0.00000000000E+00  0.34059953238E+02  0.34059953238E+02  0.00000000000E+00 0.  1.
          1   -1    0    0  502    0 -0.00000000000E+00 -0.00000000000E+00 -0.19204272430E+04  0.19204272430E+04  0.00000000000E+00 0. -1.
         23    2    1    2    0    0 -0.16980012154E+03 -0.11426732351E+03 -0.10681497725E+04  0.10914133670E+04  0.91378875499E+02 0.  0.
         23    2    1    2    0    0  0.17650102337E+03  0.13866609024E+03 -0.78390879548E+03  0.82044414120E+03  0.90745211271E+02 0.  0.
        -13    1    3    3    0    0 -0.10797804852E+03 -0.12063735973E+03 -0.78540112601E+03  0.80191493330E+03  0.00000000000E+00 0. -1.
         13    1    3    3    0    0 -0.61822073019E+02  0.63700362186E+01 -0.28274864644E+03  0.28949843374E+03  0.00000000000E+00 0.  1.
        -13    1    4    4    0    0  0.14638145066E+03  0.84387281665E+02 -0.66710360738E+03  0.68816855885E+03  0.00000000000E+00 0.  1.
         13    1    4    4    0    0  0.30119572710E+02  0.54278808576E+02 -0.11680518810E+03  0.13227558236E+03  0.00000000000E+00 0. -1.
          1    1    1    2  501    0 -0.67009018345E+01 -0.24398766732E+02 -0.34308721785E+02  0.42629687941E+02  0.00000000000E+00 0. -1.
<scales pt_clust_5="13000.00000" pt_clust_6="13000.00000" pt_clust_7="13000.00000" pt_clust_8="13000.00000" pt_clust_9="25.30221"></scales>
<clustering>
<clus scale="   25.302">  1  9  2 -1</clus>
<clus scale="   90.745">  7  8 -1 -1</clus>
<clus scale="   91.379">  5  6 -1 -1</clus>
<clus scale="  230.814">  1  7  2 -1</clus>
<clus scale="   25.302">  1  5  2 -1</clus>
</clustering>
</event>
<event>
 9    1  0.1601012E-005  0.1084967E+03  0.7546771E-02  0.1271683E+00
         21   -1    0    0  501  502  0.00000000000E+00  0.00000000000E+00  0.34376638810E+02  0.34376638810E+02  0.00000000000E+00 0. -1.
         -2   -1    0    0    0  501 -0.00000000000E+00 -0.00000000000E+00 -0.51652131521E+03  0.51652131521E+03  0.00000000000E+00 0.  1.
         23    2    1    2    0    0 -0.18108666626E+02 -0.35084625288E+02 -0.33589311260E+03  0.34876650558E+03  0.85176508424E+02 0.  0.
         23    2    1    2    0    0 -0.37371055063E+01  0.24239207799E+02 -0.82328105003E+02  0.13371310714E+03  0.10246839999E+03 0.  0.
        -11    1    3    3    0    0  0.15753472943E+02 -0.52779439161E+02 -0.21722844147E+03  0.22410273736E+03  0.00000000000E+00 0.  1.
         11    1    3    3    0    0 -0.33862139569E+02  0.17694813872E+02 -0.11866467113E+03  0.12466376823E+03  0.00000000000E+00 0. -1.
        -11    1    4    4    0    0  0.48251948464E+02  0.17631589918E+02 -0.52310660445E+02  0.73317997039E+02  0.00000000000E+00 0.  1.
         11    1    4    4    0    0 -0.51989053970E+02  0.66076178809E+01 -0.30017444558E+02  0.60395110105E+02  0.00000000000E+00 0. -1.
         -2    1    1    2    0  502  0.21845772132E+02  0.10845417490E+02 -0.63923458796E+02  0.68418341291E+02  0.00000000000E+00 0.  1.
<scales pt_clust_5="13000.00000" pt_clust_6="13000.00000" pt_clust_7="13000.00000" pt_clust_8="13000.00000" pt_clust_9="24.38978"></scales>
<clustering>
<clus scale="   24.390">  1  9  2 -1</clus>
<clus scale="   85.177">  5  6 -1 -1</clus>
<clus scale="   92.341">  2  5  1 -1</clus>
<clus scale="  102.468">  7  8 -1 -1</clus>
<clus scale="   24.390">  1  5  2 -1</clus>
</clustering>
</event>
<event>
 9    1  0.1601012E-005  0.1151174E+03  0.7546771E-02  0.1252532E+00
         21   -1    0    0  501  502  0.00000000000E+00  0.00000000000E+00  0.49243269651E+02  0.49243269651E+02  0.00000000000E+00 0.  1.
         -1   -1    0    0    0  501 -0.00000000000E+00 -0.00000000000E+00 -0.64722369434E+03  0.64722369434E+03  0.00000000000E+00 0.  1.
         23    2    1    2    0    0  0.37025679070E+02 -0.69732193967E+02 -0.39765282253E+03  0.41617408438E+03  0.94019261080E+02 0.  0.
         23    2    1    2    0    0 -0.40509484879E+02  0.33756995128E+02 -0.21656079166E+03  0.24067131634E+03  0.90794013781E+02 0.  0.
        -11    1    3    3    0    0  0.72591382670E+01 -0.80090234836E+02 -0.34943588768E+03  0.35857018895E+03  0.00000000000E+00 0.  1.
         11    1    3    3    0    0  0.29766540803E+02  0.10358040869E+02 -0.48216934852E+02  0.57603895428E+02  0.00000000000E+00 0. -1.
        -13    1    4    4    0    0  0.23061474319E+02  0.11769261381E+02 -0.19403619907E+02  0.32355023979E+02  0.00000000000E+00 0.  1.
         13    1    4    4    0    0 -0.63570959197E+02  0.21987733747E+02 -0.19715717175E+03  0.20831629236E+03  0.00000000000E+00 0. -1.
         -1    1    1    2    0  502  0.34838058085E+01  0.35975198839E+02  0.16233189507E+02  0.39621563271E+02  0.00000000000E+00 0.  1.
<scales pt_clust_5="13000.00000" pt_clust_6="13000.00000" pt_clust_7="13000.00000" pt_clust_8="13000.00000" pt_clust_9="36.14349"></scales>
<clustering>
<clus scale="   36.143">  1  9  2 -1</clus>
<clus scale="   90.794">  7  8 -1 -1</clus>
<clus scale="   94.019">  5  6 -1 -1</clus>
<clus scale="  112.499">  1  7  2 -1</clus>
<clus scale="   36.143">  1  5  2 -1</clus>
</clustering>
</event>
<event>
 9    1  0.1601012E-005  0.1290362E+03  0.7546771E-02  0.1229641E+00
          2   -1    0    0  502    0 -0.00000000000E+00  0.00000000000E+00  0.41628757136E+03  0.41628757136E+03  0.00000000000E+00 0. -1.
         21   -1    0    0  501  502  0.00000000000E+00 -0.00000000000E+00 -0.12318577949E+03  0.12318577949E+03  0.00000000000E+00 0.  1.
         23    2    1    2    0    0  0.90386727298E+02  0.35837313074E+02  0.27460726125E+03  0.30549291613E+03  0.91992936634E+02 0.  0.
         23    2    1    2    0    0 -0.76500013069E+02 -0.18277723294E+02  0.96298171680E+02  0.15302003338E+03  0.89193416671E+02 0.  0.
        -11    1    3    3    0    0  0.10838085553E+03  0.24206486741E+02  0.21206467205E+03  0.23938209828E+03  0.00000000000E+00 0.  1.
         11    1    3    3    0    0 -0.17994128231E+02  0.11630826333E+02  0.62542589204E+02  0.66110817847E+02  0.00000000000E+00 0. -1.
        -13    1    4    4    0    0 -0.93475336602E+02 -0.53188336612E+01  0.91945473839E+02  0.13122461165E+03  0.00000000000E+00 0. -1.
         13    1    4    4    0    0  0.16975323533E+02 -0.12958889633E+02  0.43526978410E+01  0.21795421722E+02  0.00000000000E+00 0.  1.
          2    1    1    2  501    0 -0.13886714228E+02 -0.17559589780E+02 -0.77803641060E+02  0.80960401355E+02  0.00000000000E+00 0. -1.
<scales pt_clust_5="13000.00000" pt_clust_6="13000.00000" pt_clust_7="13000.00000" pt_clust_8="13000.00000" pt_clust_9="22.38705"></scales>
<clustering>
<clus scale="   22.387">  2  9  1 -1</clus>
<clus scale="   89.193">  7  8 -1 -1</clus>
<clus scale="   91.993">  5  6 -1 -1</clus>
<clus scale="  127.056">  2  7  1 -1</clus>
<clus scale="   22.387">  2  5  1 -1</clus>
</clustering>
</event>
<event>
 9    1  0.1601012E-005  0.2498238E+03  0.7546771E-02  0.1113981E+00
          2   -1    0    0  502    0 -0.00000000000E+00  0.00000000000E+00  0.87455667598E+03  0.87455667598E+03  0.00000000000E+00 0. -1.
         21   -1    0    0  501  502  0.00000000000E+00 -0.00000000000E+00 -0.78585461705E+02  0.78585461705E+02  0.00000000000E+00 0. -1.
         23    2    1    2    0    0 -0.14755007737E+03  0.19006916113E+03  0.46949540701E+03  0.53531360084E+03  0.90760138242E+02 0.  0.
         23    2    1    2    0    0  0.12814551967E+03 -0.18190250457E+03  0.27856067710E+03  0.36549221258E+03  0.80490441970E+02 0.  0.
        -11    1    4    4    0    0  0.50711860029E+02 -0.33550026967E+02  0.35549484689E+02  0.70434813259E+02  0.00000000000E+00 0.  1.
         11    1    4    4    0    0  0.77433659643E+02 -0.14835247760E+03  0.24301119241E+03  0.29505739932E+03  0.00000000000E+00 0. -1.
        -13    1    3    3    0    0 -0.12600199679E+03  0.12163768681E+03  0.25672540395E+03  0.31077349160E+03  0.00000000000E+00 0. -1.
         13    1    3    3    0    0 -0.21548080581E+02  0.68431474319E+02  0.21277000306E+03  0.22454010924E+03  0.00000000000E+00 0.  1.
          2    1    1    2  501    0  0.19404557700E+02 -0.81666565622E+01  0.47915130165E+02  0.52336324266E+02  0.00000000000E+00 0. -1.
<scales pt_clust_5="13000.00000" pt_clust_6="13000.00000" pt_clust_7="13000.00000" pt_clust_8="13000.00000" pt_clust_9="21.05307"></scales>
<clustering>
<clus scale="   21.053">  2  9  1 -1</clus>
<clus scale="   80.490">  5  6 -1 -1</clus>
<clus scale="   90.760">  7  8 -1 -1</clus>
<clus scale="  246.279">  2  5  1 -1</clus>
<clus scale="   21.053">  2  5  1 -1</clus>
</clustering>
</event>
<event>
 9    1  0.1601012E-005  0.9385739E+02  0.7546771E-02  0.1294443E+00
         21   -1    0    0  501  502  0.00000000000E+00  0.00000000000E+00  0.72826080544E+02  0.72826080544E+02  0.00000000000E+00 0. -1.
         -1   -1    0    0    0  501 -0.00000000000E+00 -0.00000000000E+00 -0.21929513426E+03  0.21929513426E+03  0.00000000000E+00 0.  1.
         23    2    1    2    0    0  0.30462114586E+02 -0.12105915355E+02 -0.11520475358E+03  0.14995882076E+03  0.90227595904E+02 0.  0.
         23    2    1    2    0    0  0.14008835205E+02  0.14271977406E+02 -0.15116462979E+02  0.94800913448E+02  0.91426303298E+02 0.  0.
        -11    1    4    4    0    0  0.52882876600E+02  0.12324495462E+02 -0.12921506550E+02  0.55816280398E+02  0.00000000000E+00 0. -1.
         11    1    4    4    0    0 -0.38874041396E+02  0.19474819444E+01 -0.21949564284E+01  0.38984633050E+02  0.00000000000E+00 0.  1.
        -13    1    3    3    0    0 -0.29390092458E+02 -0.19879753365E+02 -0.46886992286E+02  0.58799423247E+02  0.00000000000E+00 0.  1.
         13    1    3    3    0    0  0.59852207044E+02  0.77738380096E+01 -0.68317761297E+02  0.91159397509E+02  0.00000000000E+00 0. -1.
         -1    1    1    2    0  502 -0.44470949791E+02 -0.21660620515E+01 -0.16147837157E+02  0.47361480603E+02  0.00000000000E+00 0.  1.
<scales pt_clust_5="13000.00000" pt_clust_6="13000.00000" pt_clust_7="13000.00000" pt_clust_8="13000.00000" pt_clust_9="44.52367"></scales>
<clustering>
<clus scale="   44.524">  1  9  2 -1</clus>
<clus scale="   90.228">  7  8 -1 -1</clus>
<clus scale="   91.426">  5  6 -1 -1</clus>
<clus scale="   92.690">  2  7  1 -1</clus>
<clus scale="   44.524">  1  5  2 -1</clus>
</clustering>
</event>
<event>
 9    1  0.1601012E-005  0.1119161E+03  0.7546771E-02  0.1258167E+00
         21   -1    0    0  501  502  0.00000000000E+00  0.00000000000E+00  0.21967873564E+03  0.21967873564E+03  0.00000000000E+00 0.  1.
          1   -1    0    0  502    0 -0.00000000000E+00 -0.00000000000E+00 -0.92785275188E+02  0.92785275188E+02  0.00000000000E+00 0. -1.
         23    2    1    2    0    0 -0.43388847362E+02  0.62955941042E+02  0.68029903553E+01  0.12045427967E+03  0.92827314010E+02 0.  0.
         23    2    1    2    0    0  0.27870426108E+02 -0.36143706046E+02  0.44291549225E+02  0.11012448371E+03  0.89902905633E+02 0.  0.
        -11    1    3    3    0    0 -0.49570689910E+02  0.43045701048E+00 -0.18233363997E+02  0.52819448634E+02  0.00000000000E+00 0.  1.
         11    1    3    3    0    0  0.61818425479E+01  0.62525484031E+02  0.25036354352E+02  0.67634831040E+02  0.00000000000E+00 0. -1.
        -13    1    4    4    0    0  0.49907429844E+02 -0.43341363128E+02  0.73449068349E+01  0.66506939246E+02  0.00000000000E+00 0. -1.
         13    1    4    4    0    0 -0.22037003736E+02  0.71976570820E+01  0.36946642390E+02  0.43617544463E+02  0.00000000000E+00 0.  1.
          1    1    1    2  501    0  0.15518421253E+02 -0.26812234995E+02  0.75798920874E+02  0.81885247446E+02  0.00000000000E+00 0. -1.
<scales pt_clust_5="13000.00000" pt_clust_6="13000.00000" pt_clust_7="13000.00000" pt_clust_8="13000.00000" pt_clust_9="30.97931"></scales>
<clustering>
<clus scale="   30.979">  1  9  2 -1</clus>
<clus scale="   89.903">  7  8 -1 -1</clus>
<clus scale="   92.827">  5  6 -1 -1</clus>
<clus scale="  109.503">  1  7  2 -1</clus>
<clus scale="   30.979">  1  5  2 -1</clus>
</clustering>
</event>
<event>
 9    1  0.1601012E-005  0.1220555E+03  0.7546771E-02  0.1240868E+00
         21   -1    0    0  501  502  0.00000000000E+00  0.00000000000E+00  0.86074655441E+02  0.86074655441E+02  0.00000000000E+00 0. -1.
         -3   -1    0    0    0  501 -0.00000000000E+00 -0.00000000000E+00 -0.31031413605E+03  0.31031413605E+03  0.00000000000E+00 0.  1.
         23    2    1    2    0    0  0.90219709993E+02  0.11610365258E+02 -0.18797936240E+03  0.22813125409E+03  0.91832629022E+02 0.  0.
         23    2    1    2    0    0 -0.64577256848E+02  0.13279619543E+01 -0.65394188885E+02  0.12734629458E+03  0.88140190714E+02 0.  0.
        -13    1    4    4    0    0 -0.51993067463E+02  0.39444567129E+02 -0.23600278208E+02  0.69398314616E+02  0.00000000000E+00 0.  1.
         13    1    4    4    0    0 -0.12584189386E+02 -0.38116605174E+02 -0.41793910677E+02  0.57947979966E+02  0.00000000000E+00 0. -1.
        -13    1    3    3    0    0 -0.44472683130E+01  0.21530702161E+02 -0.85435101916E+02  0.88218512629E+02  0.00000000000E+00 0.  1.
         13    1    3    3    0    0  0.94666978306E+02 -0.99203369036E+01 -0.10254426048E+03  0.13991274146E+03  0.00000000000E+00 0. -1.
         -3    1    1    2    0  502 -0.25642453145E+02 -0.12938327212E+02  0.29134070677E+02  0.40911242813E+02  0.00000000000E+00 0.  1.
<scales pt_clust_5="13000.00000" pt_clust_6="13000.00000" pt_clust_7="13000.00000" pt_clust_8="13000.00000" pt_clust_9="28.72169"></scales>
<clustering>
<clus scale="   28.722">  1  9  2 -1</clus>
<clus scale="   88.140">  5  6 -1 -1</clus>
<clus scale="   91.833">  7  8 -1 -1</clus>
<clus scale="  119.302">  1  5  2 -1</clus>
<clus scale="   28.722">  1  5  2 -1</clus>
</clustering>
</event>
<event>
 9    1  0.1601012E-005  0.9342732E+02  0.7546771E-02  0.1295135E+00
         -1   -1    0    0    0  501 -0.00000000000E+00  0.00000000000E+00  0.52268960814E+03  0.52268960814E+03  0.00000000000E+00 0.  1.
         21   -1    0    0  501  502  0.00000000000E+00 -0.00000000000E+00 -0.70916888931E+02  0.70916888931E+02  0.00000000000E+00 0.  1.
         23    2    1    2    0    0  0.25338531353E+02 -0.25426671133E+02  0.27976176127E+03  0.29640086950E+03  0.91094871386E+02 0.  0.
         23    2    1    2    0    0  0.55742437057E+02  0.24742059058E+01  0.18304143210E+03  0.21221968486E+03  0.91758856758E+02 0.  0.
        -13    1    4    4    0    0 -0.68229639109E+00  0.33803771957E+02  0.26703368291E+02  0.43083992445E+02  0.00000000000E+00 0. -1.
         13    1    4    4    0    0  0.56424733448E+02 -0.31329566052E+02  0.15633806381E+03  0.16913569241E+03  0.00000000000E+00 0.  1.
        -13    1    3    3    0    0 -0.11585916731E+02  0.28700320845E+02  0.11490656905E+03  0.11900193904E+03  0.00000000000E+00 0. -1.
         13    1    3    3    0    0  0.36924448084E+02 -0.54126991978E+02  0.16485519222E+03  0.17739893046E+03  0.00000000000E+00 0.  1.
         -1    1    1    2    0  502 -0.81080968410E+02  0.22952465227E+02 -0.11030474164E+02  0.84985942712E+02  0.00000000000E+00 0.  1.
<scales pt_clust_5="13000.00000" pt_clust_6="13000.00000" pt_clust_7="13000.00000" pt_clust_8="13000.00000" pt_clust_9="84.26707"></scales>
<clustering>
<clus scale="   84.267">  2  9  1 -1</clus>
<clus scale="   91.095">  7  8 -1 -1</clus>
<clus scale="   91.759">  5  6 -1 -1</clus>
<clus scale="   92.775">  1  7  2 -1</clus>
<clus scale="   84.267">  2  5  1 -1</clus>
</clustering>
</event>
<event>
 9    1  0.1601012E-005  0.1266561E+03  0.7546771E-02  0.1236286E+00
          1   -1    0    0  502    0 -0.00000000000E+00  0.00000000000E+00  0.10378332816E+03  0.10378332816E+03  0.00000000000E+00 0. -1.
         21   -1    0    0  501  502  0.00000000000E+00 -0.00000000000E+00 -0.20128548785E+03  0.20128548785E+03  0.00000000000E+00 0.  1.
         23    2    1    2    0    0 -0.86887666898E+02 -0.13177887298E+02  0.54085652514E+01  0.13090939521E+03  0.96875661560E+02 0.  0.
         23    2    1    2    0    0  0.65780653498E+02  0.22938773473E+02 -0.10406477824E+03  0.15087610591E+03  0.84147724638E+02 0.  0.
        -11    1    4    4    0    0  0.56467351442E+02 -0.18477542635E+02 -0.86490909427E+02  0.10493168623E+03  0.00000000000E+00 0.  1.
         11    1    4    4    0    0  0.93133020567E+01  0.41416316108E+02 -0.17573868811E+02  0.45944419684E+02  0.00000000000E+00 0. -1.
        -13    1    3    3    0    0 -0.29860613745E+02  0.32256489612E+02  0.30831459359E+02  0.53690932768E+02  0.00000000000E+00 0. -1.
         13    1    3    3    0    0 -0.57027053153E+02 -0.45434376910E+02 -0.25422894107E+02  0.77218462438E+02  0.00000000000E+00 0.  1.
          1    1    1    2  501    0  0.21107013400E+02 -0.97608861747E+01  0.11540532913E+01  0.23283314896E+02  0.00000000000E+00 0. -1.
<scales pt_clust_5="13000.00000" pt_clust_6="13000.00000" pt_clust_7="13000.00000" pt_clust_8="13000.00000" pt_clust_9="23.25471"></scales>
<clustering>
<clus scale="   23.255">  2  9  1 -1</clus>
<clus scale="   84.148">  5  6 -1 -1</clus>
<clus scale="   96.876">  7  8 -1 -1</clus>
<clus scale="  117.208">  2  5  1 -1</clus>
<clus scale="   23.255">  2  5  1 -1</clus>
</clustering>
</event>
<event>
 9    1  0.1601012E-005  0.1344909E+03  0.7546771E-02  0.1221479E+00
          1   -1    0    0  502    0 -0.00000000000E+00  0.00000000000E+00  0.28195192945E+03  0.28195192945E+03  0.00000000000E+00 0. -1.
         21   -1    0    0  501  502  0.00000000000E+00 -0.00000000000E+00 -0.11685651404E+03  0.11685651404E+03  0.00000000000E+00 0. -1.
         23    2    1    2    0    0 -0.12030435848E+03 -0.32586150919E+02  0.13219159204E+03  0.20358082877E+03  0.91845200922E+02 0.  0.
         23    2    1    2    0    0  0.72726414272E+02 -0.17130245666E+02  0.45559154613E+02  0.12525949146E+03  0.89619902821E+02 0.  0.
        -11    1    3    3    0    0 -0.86533331510E+02 -0.63321694249E+02  0.10676428442E+03  0.15131512434E+03  0.00000000000E+00 0.  1.
         11    1    3    3    0    0 -0.33771026972E+02  0.30735543331E+02  0.25427307622E+02  0.52265704429E+02  0.00000000000E+00 0. -1.
        -13    1    4    4    0    0  0.41784711113E+01 -0.42559231642E+02  0.98089071312E+01  0.43874394330E+02  0.00000000000E+00 0. -1.
         13    1    4    4    0    0  0.68547943161E+02  0.25428985976E+02  0.35750247482E+02  0.81385097127E+02  0.00000000000E+00 0.  1.
          1    1    1    2  501    0  0.47577944209E+02  0.49716396584E+02 -0.12655331248E+02  0.69968123267E+02  0.00000000000E+00 0. -1.
<scales pt_clust_5="13000.00000" pt_clust_6="13000.00000" pt_clust_7="13000.00000" pt_clust_8="13000.00000" pt_clust_9="68.81410"></scales>
<clustering>
<clus scale="   68.814">  2  9  1 -1</clus>
<clus scale="   89.620">  7  8 -1 -1</clus>
<clus scale="   91.845">  5  6 -1 -1</clus>
<clus scale="  132.981">  2  7  1 -1</clus>
<clus scale="   68.814">  2  5  1 -1</clus>
</clustering>
</event>
<event>
 9    1  0.1601012E-005  0.1206288E+03  0.7546771E-02  0.1242233E+00
          3   -1    0    0  502    0 -0.00000000000E+00  0.00000000000E+00  0.69985289669E+02  0.69985289669E+02  0.00000000000E+00 0. -1.
         21   -1    0    0  501  502  0.00000000000E+00 -0.00000000000E+00 -0.33477794514E+03  0.33477794514E+03  0.00000000000E+00 0.  1.
         23    2    1    2    0    0  0.60413477586E+02 -0.80096269082E+02 -0.70147338651E+02  0.15184550449E+03  0.89839899377E+02 0.  0.
         23    2    1    2    0    0 -0.50541504587E+02  0.26481155221E+02 -0.12505689826E+03  0.16451759297E+03  0.90394221751E+02 0.  0.
        -13    1    3    3    0    0 -0.65734041979E+00 -0.71071949576E+02 -0.50025737049E+02  0.86915064748E+02  0.00000000000E+00 0.  1.
         13    1    3    3    0    0  0.61070818005E+02 -0.90243195061E+01 -0.20121601601E+02  0.64930439744E+02  0.00000000000E+00 0. -1.
        -13    1    4    4    0    0 -0.30642496159E+02  0.57055122304E+02 -0.10365508745E+03  0.12222367490E+03  0.00000000000E+00 0.  1.
         13    1    4    4    0    0 -0.19899008428E+02 -0.30573967082E+02 -0.21401810809E+02  0.42293918067E+02  0.00000000000E+00 0. -1.
          3    1    1    2  501    0 -0.98719729985E+01  0.53615113860E+02 -0.69588418559E+02  0.88400137346E+02  0.00000000000E+00 0. -1.
<scales pt_clust_5="13000.00000" pt_clust_6="13000.00000" pt_clust_7="13000.00000" pt_clust_8="13000.00000" pt_clust_9="54.51639"></scales>
<clustering>
<clus scale="   54.516">  2  9  1 -1</clus>
<clus scale="   89.840">  5  6 -1 -1</clus>
<clus scale="   90.394">  7  8 -1 -1</clus>
<clus scale="  120.214">  1  5  2 -1</clus>
<clus scale="   54.516">  2  5  1 -1</clus>
</clustering>
</event>
<event>
 9    1  0.1601012E-005  0.1804623E+03  0.7546771E-02  0.1167387E+00
          1   -1    0    0  502    0 -0.00000000000E+00  0.00000000000E+00  0.83928813661E+03  0.83928813661E+03  0.00000000000E+00 0. -1.
         21   -1    0    0  501  502  0.00000000000E+00 -0.00000000000E+00 -0.56164855986E+02  0.56164855986E+02  0.00000000000E+00 0.  1.
         23    2    1    2    0    0 -0.13741230551E+03  0.67807296577E+02  0.45737315069E+03  0.49105467534E+03  0.92002847908E+02 0.  0.
         23    2    1    2    0    0  0.15222679132E+03 -0.46854314666E+02  0.33061842036E+03  0.37827942194E+03  0.91752157393E+02 0.  0.
        -13    1    4    4    0    0  0.11732047627E+03 -0.79618148883E+01  0.15201603679E+03  0.19218834536E+03  0.00000000000E+00 0.  1.
         13    1    4    4    0    0  0.34906315046E+02 -0.38892499778E+02  0.17860238357E+03  0.18609107658E+03  0.00000000000E+00 0. -1.
        -13    1    3    3    0    0 -0.11224574067E+03  0.74838206553E+02  0.43860255206E+03  0.45888131595E+03  0.00000000000E+00 0. -1.
         13    1    3    3    0    0 -0.25166564845E+02 -0.70309099763E+01  0.18770598635E+02  0.32173359388E+02  0.00000000000E+00 0.  1.
          1    1    1    2  501    0 -0.14814485806E+02 -0.20952981911E+02 -0.48682904304E+01  0.26118895313E+02  0.00000000000E+00 0. -1.
<scales pt_clust_5="13000.00000" pt_clust_6="13000.00000" pt_clust_7="13000.00000" pt_clust_8="13000.00000" pt_clust_9="25.66119"></scales>
<clustering>
<clus scale="   25.661">  2  9  1 -1</clus>
<clus scale="   91.752">  5  6 -1 -1</clus>
<clus scale="   92.003">  7  8 -1 -1</clus>
<clus scale="  180.335">  2  5  1 -1</clus>
<clus scale="   25.661">  2  5  1 -1</clus>
</clustering>
</event>
<event>
 9    1  0.1601012E-005  0.9341040E+02  0.7546771E-02  0.1295279E+00
         21   -1    0    0  501  502  0.00000000000E+00  0.00000000000E+00  0.28904229593E+02  0.28904229593E+02  0.00000000000E+00 0. -1.
          2   -1    0    0  502    0 -0.00000000000E+00 -0.00000000000E+00 -0.43302585770E+03  0.43302585770E+03  0.00000000000E+00 0. -1.
         23    2    1    2    0    0 -0.19257199944E+02 -0.74544922435E+01 -0.19930647240E+03  0.21924649698E+03  0.88991838352E+02 0.  0.
         23    2    1    2    0    0  0.32480632435E+02 -0.12405765006E+02 -0.19374625022E+03  0.21638131563E+03  0.89857497132E+02 0.  0.
        -13    1    3    3    0    0 -0.48390143406E+02  0.11409161690E+02 -0.15610298789E+03  0.16382892839E+03  0.00000000000E+00 0.  1.
         13    1    3    3    0    0  0.29132943462E+02 -0.18863653934E+02 -0.43203484506E+02  0.55417568586E+02  0.00000000000E+00 0. -1.
        -13    1    4    4    0    0  0.25752247962E+02  0.37396979255E+02 -0.79138764411E+02  0.91239554827E+02  0.00000000000E+00 0.  1.
         13    1    4    4    0    0  0.67283844727E+01 -0.49802744261E+02 -0.11460748580E+03  0.12514176080E+03  0.00000000000E+00 0. -1.
          2    1    1    2  501    0 -0.13223432491E+02  0.19860257250E+02 -0.11068905491E+02  0.26302274686E+02  0.00000000000E+00 0. -1.
<scales pt_clust_5="13000.00000" pt_clust_6="13000.00000" pt_clust_7="13000.00000" pt_clust_8="13000.00000" pt_clust_9="23.85978"></scales>
<clustering>
<clus scale="   23.860">  1  9  2 -1</clus>
<clus scale="   88.992">  5  6 -1 -1</clus>
<clus scale="   89.857">  7  8 -1 -1</clus>
<clus scale="   92.578">  2  5  1 -1</clus>
<clus scale="   23.860">  1  5  2 -1</clus>
</clustering>
</event>
<event>
 9    1  0.1601012E-005  0.9808498E+02  0.7546771E-02  0.1285235E+00
          2   -1    0    0  502    0 -0.00000000000E+00  0.00000000000E+00  0.22040505017E+03  0.22040505017E+03  0.00000000000E+00 0. -1.
         21   -1    0    0  501  502  0.00000000000E+00 -0.00000000000E+00 -0.83135999545E+02  0.83135999545E+02  0.00000000000E+00 0.  1.
         23    2    1    2    0    0  0.29799275689E+02  0.37346621981E+01  0.13724812859E+03  0.16674386619E+03  0.89802692485E+02 0.  0.
         23    2    1    2    0    0 -0.51846726738E+02  0.50787163086E+01  0.18255440209E+02  0.10685952510E+03  0.91497653387E+02 0.  0.
        -11    1    3    3    0    0  0.91229535370E+01 -0.41693586747E+02  0.80905357156E+02  0.91472729672E+02  0.00000000000E+00 0. -1.
         11    1    3    3    0    0  0.20676322152E+02  0.45428248946E+02  0.56342771432E+02  0.75271136518E+02  0.00000000000E+00 0.  1.
        -11    1    4    4    0    0 -0.16835983940E+02  0.30874502851E+02 -0.26819430783E+02  0.44226317381E+02  0.00000000000E+00 0.  1.
         11    1    4    4    0    0 -0.35010742798E+02 -0.25795786543E+02  0.45074870992E+02  0.62633207722E+02  0.00000000000E+00 0. -1.
          2    1    1    2  501    0  0.22047451049E+02 -0.88133785068E+01 -0.18234518176E+02  0.29937658418E+02  0.00000000000E+00 0. -1.
<scales pt_clust_5="13000.00000" pt_clust_6="13000.00000" pt_clust_7="13000.00000" pt_clust_8="13000.00000" pt_clust_9="23.74375"></scales>
<clustering>
<clus scale="   23.744">  2  9  1 -1</clus>
<clus scale="   89.803">  5  6 -1 -1</clus>
<clus scale="   91.498">  7  8 -1 -1</clus>
<clus scale="   96.506">  1  5  2 -1</clus>
<clus scale="   23.744">  2  5  1 -1</clus>
</clustering>
</event>
<event>
 9    1  0.1601012E-005  0.1167328E+03  0.7546771E-02  0.1249637E+00
          1   -1    0    0  502    0 -0.00000000000E+00  0.00000000000E+00  0.51874176223E+03  0.51874176223E+03  0.00000000000E+00 0. -1.
         21   -1    0    0  501  502  0.00000000000E+00 -0.00000000000E+00 -0.15380736034E+03  0.15380736034E+03  0.00000000000E+00 0. -1.
         23    2    1    2    0    0 -0.44849977335E+02  0.16154669451E+02  0.21454778853E+03  0.23892409979E+03  0.93709541036E+02 0.  0.
         23    2    1    2    0    0  0.97870518795E+02 -0.12805860229E+02  0.27072341653E+03  0.30208286780E+03  0.90665661960E+02 0.  0.
        -11    1    3    3    0    0 -0.59904038550E+02  0.32554023051E+02  0.20237792205E+03  0.21355346306E+03  0.00000000000E+00 0.  1.
         11    1    3    3    0    0  0.15054061215E+02 -0.16399353600E+02  0.12169866482E+02  0.25370636723E+02  0.00000000000E+00 0. -1.
        -13    1    4    4    0    0  0.29944126418E+02  0.38313276928E+02  0.10974775068E+03  0.12003802179E+03  0.00000000000E+00 0.  1.
         13    1    4    4    0    0  0.67926392377E+02 -0.51119137157E+02  0.16097566584E+03  0.18204484601E+03  0.00000000000E+00 0. -1.
          1    1    1    2  501    0 -0.53020541460E+02 -0.33488092220E+01 -0.12033680317E+03  0.13154215498E+03  0.00000000000E+00 0. -1.
<scales pt_clust_5="13000.00000" pt_clust_6="13000.00000" pt_clust_7="13000.00000" pt_clust_8="13000.00000" pt_clust_9="53.12619"></scales>
<clustering>
<clus scale="   53.126">  2  9  1 -1</clus>
<clus scale="   90.666">  7  8 -1 -1</clus>
<clus scale="   93.710">  5  6 -1 -1</clus>
<clus scale="  114.304">  2  7  1 -1</clus>
<clus scale="   53.126">  2  5  1 -1</clus>
</clustering>
</event>
<event>
 9    1  0.1601012E-005  0.9681936E+02  0.7546771E-02  0.1287618E+00
         -3   -1    0    0    0  501 -0.00000000000E+00  0.00000000000E+00  0.31728848193E+03  0.31728848193E+03  0.00000000000E+00 0.  1.
         21   -1    0    0  501  502  0.00000000000E+00 -0.00000000000E+00 -0.60821674628E+02  0.60821674628E+02  0.00000000000E+00 0.  1.
         23    2    1    2    0    0 -0.21001709849E+02 -0.35426636750E+02  0.16773404679E+03  0.19490460235E+03  0.90315973988E+02 0.  0.
         23    2    1    2    0    0  0.77936843695E+01  0.20338920084E+02  0.11610603262E+03  0.14927345795E+03  0.91255362854E+02 0.  0.
        -11    1    3    3    0    0 -0.31369822858E+02 -0.10998773931E+02  0.16489922437E+03  0.16821650636E+03  0.00000000000E+00 0.  1.
         11    1    3    3    0    0  0.10368113009E+02 -0.24427862818E+02  0.28348224133E+01  0.26688095986E+02  0.00000000000E+00 0. -1.
        -13    1    4    4    0    0 -0.19596516803E+02  0.42060153106E+02  0.10108323303E+03  0.11122454742E+03  0.00000000000E+00 0.  1.
         13    1    4    4    0    0  0.27390201172E+02 -0.21721233022E+02  0.15022799594E+02  0.38048910522E+02  0.00000000000E+00 0. -1.
         -3    1    1    2    0  502  0.13208025480E+02  0.15087716666E+02 -0.27373272105E+02  0.33932096266E+02  0.00000000000E+00 0.  1.
<scales pt_clust_5="13000.00000" pt_clust_6="13000.00000" pt_clust_7="13000.00000" pt_clust_8="13000.00000" pt_clust_9="20.05221"></scales>
<clustering>
<clus scale="   20.052">  2  9  1 -1</clus>
<clus scale="   90.316">  5  6 -1 -1</clus>
<clus scale="   91.255">  7  8 -1 -1</clus>
<clus scale="   95.934">  1  5  2 -1</clus>
<clus scale="   20.052">  2  5  1 -1</clus>
</clustering>
</event>
<event>
 9    1  0.1601012E-005  0.9633138E+02  0.7546771E-02  0.1288765E+00
          1   -1    0    0  502    0 -0.00000000000E+00  0.00000000000E+00  0.81755864905E+03  0.81755864905E+03  0.00000000000E+00 0. -1.
         21   -1    0    0  501  502  0.00000000000E+00 -0.00000000000E+00 -0.19375687658E+02  0.19375687658E+02  0.00000000000E+00 0.  1.
         23    2    1    2    0    0  0.24227091948E+02 -0.16810760710E+02  0.42975492717E+03  0.44021101615E+03  0.90702192106E+02 0.  0.
         23    2    1    2    0    0 -0.79243786953E+01  0.32780139150E+02  0.35892909417E+03  0.37200431230E+03  0.91759361532E+02 0.  0.
        -11    1    3    3    0    0  0.46989258934E+02  0.18304142463E+02  0.17814971959E+03  0.18514954679E+03  0.00000000000E+00 0. -1.
         11    1    3    3    0    0 -0.22762166986E+02 -0.35114903173E+02  0.25160520758E+03  0.25506146936E+03  0.00000000000E+00 0.  1.
        -13    1    4    4    0    0 -0.37980373101E+02 -0.15369954198E+02  0.15481546661E+03  0.16014547429E+03  0.00000000000E+00 0. -1.
         13    1    4    4    0    0  0.30055994405E+02  0.48150093349E+02  0.20411362756E+03  0.21185883801E+03  0.00000000000E+00 0.  1.
          1    1    1    2  501    0 -0.16302713252E+02 -0.15969378440E+02  0.94989400553E+01  0.24719008260E+02  0.00000000000E+00 0. -1.
<scales pt_clust_5="13000.00000" pt_clust_6="13000.00000" pt_clust_7="13000.00000" pt_clust_8="13000.00000" pt_clust_9="22.82103"></scales>
<clustering>
<clus scale="   22.821">  2  9  1 -1</clus>
<clus scale="   90.702">  5  6 -1 -1</clus>
<clus scale="   91.759">  7  8 -1 -1</clus>
<clus scale="   95.325">  1  5  2 -1</clus>
<clus scale="   22.821">  2  5  1 -1</clus>
</clustering>
</event>
<event>
 9    1  0.1601012E-005  0.9782026E+02  0.7546771E-02  0.1288010E+00
         21   -1    0    0  501  502  0.00000000000E+00  0.00000000000E+00  0.29179672895E+03  0.29179672895E+03  0.00000000000E+00 0. -1.
         -2   -1    0    0    0  501 -0.00000000000E+00 -0.00000000000E+00 -0.45191494827E+02  0.45191494827E+02  0.00000000000E+00 0.  1.
         23    2    1    2    0    0 -0.95101701090E+01  0.65014938407E+00  0.66038256803E+02  0.11782807318E+03  0.97116102872E+02 0.  0.
         23    2    1    2    0    0  0.13621039084E+01  0.26521572519E+02  0.13074726103E+03  0.16183042371E+03  0.91591433201E+02 0.  0.
        -11    1    3    3    0    0  0.27929378922E+02  0.79296326263E+01  0.73444629955E+02  0.78974951407E+02  0.00000000000E+00 0. -1.
         11    1    3    3    0    0 -0.37439549031E+02 -0.72794832422E+01 -0.74063731518E+01  0.38853121769E+02  0.00000000000E+00 0.  1.
        -13    1    4    4    0    0 -0.40316402423E+02  0.33833151505E+02  0.79929885249E+02  0.95702042826E+02  0.00000000000E+00 0.  1.
         13    1    4    4    0    0  0.41678506331E+02 -0.73115789857E+01  0.50817375776E+02  0.66128380882E+02  0.00000000000E+00 0. -1.
         -2    1    1    2    0  502  0.81480662006E+01 -0.27171721903E+02  0.49819716295E+02  0.57329726893E+02  0.00000000000E+00 0.  1.
<scales pt_clust_5="13000.00000" pt_clust_6="13000.00000" pt_clust_7="13000.00000" pt_clust_8="13000.00000" pt_clust_9="28.36712"></scales>
<clustering>
<clus scale="   28.367">  1  9  2 -1</clus>
<clus scale="   91.591">  7  8 -1 -1</clus>
<clus scale="   92.338">  1  7  2 -1</clus>
<clus scale="   97.116">  5  6 -1 -1</clus>
<clus scale="   28.367">  1  5  2 -1</clus>
</clustering>
</event>
<event>
 9    1  0.1601012E-005  0.1225311E+03  0.7546771E-02  0.1239200E+00
         21   -1    0    0  501  502  0.00000000000E+00  0.00000000000E+00  0.48256166977E+02  0.48256166977E+02  0.00000000000E+00 0. -1.
          1   -1    0    0  502    0 -0.00000000000E+00 -0.00000000000E+00 -0.70070677087E+03  0.70070677087E+03  0.00000000000E+00 0. -1.
         23    2    1    2    0    0 -0.82957479663E+02 -0.44577482066E+02 -0.50068461466E+03  0.51716784892E+03  0.88929214864E+02 0.  0.
         23    2    1    2    0    0  0.27959373558E+02  0.60776262149E+02 -0.12723949926E+03  0.16943531935E+03  0.89682532647E+02 0.  0.
        -11    1    4    4    0    0  0.16598190999E+02  0.83737242897E+02 -0.88246160488E+02  0.12277952042E+03  0.00000000000E+00 0. -1.
         11    1    4    4    0    0  0.11361182558E+02 -0.22960980748E+02 -0.38993338767E+02  0.46655798935E+02  0.00000000000E+00 0.  1.
        -13    1    3    3    0    0  0.65146778370E-01 -0.26222739064E+02 -0.34724878390E+02  0.43513830759E+02  0.00000000000E+00 0.  1.
         13    1    3    3    0    0 -0.83022626441E+02 -0.18354743002E+02 -0.46595973627E+03  0.47365401816E+03  0.00000000000E+00 0. -1.
          1    1    1    2  501    0  0.54998106105E+02 -0.16198780083E+02 -0.24526489976E+02  0.62359769579E+02  0.00000000000E+00 0. -1.
<scales pt_clust_5="13000.00000" pt_clust_6="13000.00000" pt_clust_7="13000.00000" pt_clust_8="13000.00000" pt_clust_9="57.33404"></scales>
<clustering>
<clus scale="   57.334">  1  9  2 -1</clus>
<clus scale="   88.929">  7  8 -1 -1</clus>
<clus scale="   89.683">  5  6 -1 -1</clus>
<clus scale="  121.981">  2  7  1 -1</clus>
<clus scale="   57.334">  1  5  2 -1</clus>
</clustering>
</event>
<event>
 9    1  0.1601012E-005  0.1649193E+03  0.7546771E-02  0.1183341E+00
          1   -1    0    0  502    0 -0.00000000000E+00  0.00000000000E+00  0.11132745831E+04  0.11132745831E+04  0.00000000000E+00 0. -1.
         21   -1    0    0  501  502  0.00000000000E+00 -0.00000000000E+00 -0.46212224273E+02  0.46212224273E+02  0.00000000000E+00 0.  1.
         23    2    1    2    0    0  0.14380302493E+03 -0.33299318875E+02  0.86079652992E+03  0.87811053734E+03  0.91210170750E+02 0.  0.
         23    2    1    2    0    0 -0.10557656107E+03 -0.11486245514E+01  0.14917319794E+03  0.20451606021E+03  0.91795676990E+02 0.  0.
        -11    1    4    4    0    0 -0.56049691029E+02  0.28200203486E+02  0.12911330880E+03  0.14355161389E+03  0.00000000000E+00 0. -1.
         11    1    4    4    0    0 -0.49526870039E+02 -0.29348828037E+02  0.20059889147E+02  0.60964446325E+02  0.00000000000E+00 0.  1.
        -13    1    3    3    0    0  0.80778230692E+01 -0.35351811492E+02  0.13842009668E+03  0.14309131688E+03  0.00000000000E+00 0.  1.
         13    1    3    3    0    0  0.13572520186E+03  0.20524926166E+01  0.72237643324E+03  0.73501922046E+03  0.00000000000E+00 0. -1.
          1    1    1    2  501    0 -0.38226463861E+02  0.34447943427E+02  0.57092631013E+02  0.76860209872E+02  0.00000000000E+00 0. -1.
<scales pt_clust_5="13000.00000" pt_clust_6="13000.00000" pt_clust_7="13000.00000" pt_clust_8="13000.00000" pt_clust_9="51.45798"></scales>
<clustering>
<clus scale="   51.458">  2  9  1 -1</clus>
<clus scale="   91.210">  7  8 -1 -1</clus>
<clus scale="   91.796">  5  6 -1 -1</clus>
<clus scale="  164.594">  1  7  2 -1</clus>
<clus scale="   51.458">  2  5  1 -1</clus>
</clustering>
</event>
<event>
 9    1  0.1601012E-005  0.1064732E+03  0.7546771E-02  0.1271595E+00
         -1   -1    0    0    0  501 -0.00000000000E+00  0.00000000000E+00  0.52198551861E+03  0.52198551861E+03  0.00000000000E+00 0.  1.
         21   -1    0    0  501  502  0.00000000000E+00 -0.00000000000E+00 -0.50095427334E+02  0.50095427334E+02  0.00000000000E+00 0.  1.
         23    2    1    2    0    0  0.37822744256E+00 -0.35743524046E+02  0.34736408250E+03  0.36117427875E+03  0.92235086878E+02 0.  0.
         23    2    1    2    0    0 -0.33883096774E+02  0.19348168586E+02  0.13396029248E+03  0.17243083507E+03  0.10131444638E+03 0.  0.
        -11    1    4    4    0    0 -0.64957834203E+00  0.51576854399E+02  0.32654228270E+02  0.61048279956E+02  0.00000000000E+00 0. -1.
         11    1    4    4    0    0 -0.33233518432E+02 -0.32228685812E+02  0.10130606421E+03  0.11138255511E+03  0.00000000000E+00 0.  1.
        -11    1    3    3    0    0 -0.43313786698E+02 -0.30725334773E+01  0.17900532806E+03  0.18419672107E+03  0.00000000000E+00 0.  1.
         11    1    3    3    0    0  0.43692014140E+02 -0.32670990569E+02  0.16835875444E+03  0.17697755767E+03  0.00000000000E+00 0. -1.
         -1    1    1    2    0  502  0.33504869331E+02  0.16395355460E+02 -0.94342837002E+01  0.38475832135E+02  0.00000000000E+00 0.  1.
<scales pt_clust_5="13000.00000" pt_clust_6="13000.00000" pt_clust_7="13000.00000" pt_clust_8="13000.00000" pt_clust_9="37.30126"></scales>
<clustering>
<clus scale="   37.301">  2  9  1 -1</clus>
<clus scale="   92.235">  7  8 -1 -1</clus>
<clus scale="   97.874">  1  7  2 -1</clus>
<clus scale="  101.314">  5  6 -1 -1</clus>
<clus scale="   37.301">  2  5  1 -1</clus>
</clustering>
</event>
<event>
 9    1  0.1601012E-005  0.1004545E+03  0.7546771E-02  0.1281567E+00
         21   -1    0    0  501  502  0.00000000000E+00  0.00000000000E+00  0.39835002694E+03  0.39835002694E+03  0.00000000000E+00 0. -1.
         -4   -1    0    0    0  501 -0.00000000000E+00 -0.00000000000E+00 -0.42334530379E+02  0.42334530379E+02  0.00000000000E+00 0.  1.
         23    2    1    2    0    0  0.56339686302E+02  0.48115775168E+01  0.10665170021E+03  0.15049589177E+03  0.89872780925E+02 0.  0.
         23    2    1    2    0    0 -0.10611745353E+02  0.77208851771E+01  0.12533202645E+03  0.15740317255E+03  0.94315537791E+02 0.  0.
        -11    1    4    4    0    0 -0.38145181144E+02  0.11832382334E+02  0.13499885166E+02  0.42158119214E+02  0.00000000000E+00 0.  1.
         11    1    4    4    0    0  0.27533435791E+02 -0.41114971570E+01  0.11183214128E+03  0.11524505334E+03  0.00000000000E+00 0. -1.
        -13    1    3    3    0    0  0.92657897581E+01  0.43266427581E+02  0.34203686386E+02  0.55926118923E+02  0.00000000000E+00 0. -1.
         13    1    3    3    0    0  0.47073896544E+02 -0.38454850064E+02  0.72448013824E+02  0.94569772847E+02  0.00000000000E+00 0.  1.
         -4    1    1    2    0  502 -0.45727940950E+02 -0.12532462694E+02  0.12403176990E+03  0.13278549300E+03  0.00000000000E+00 0.  1.
<scales pt_clust_5="13000.00000" pt_clust_6="13000.00000" pt_clust_7="13000.00000" pt_clust_8="13000.00000" pt_clust_9="47.41421"></scales>
<clustering>
<clus scale="   47.414">  1  9  2 -1</clus>
<clus scale="   89.873">  7  8 -1 -1</clus>
<clus scale="   94.316">  5  6 -1 -1</clus>
<clus scale="   96.295">  2  7  1 -1</clus>
<clus scale="   47.414">  1  5  2 -1</clus>
</clustering>
</event>
<event>
 9    1  0.1601012E-005  0.9870449E+02  0.7546771E-02  0.1283264E+00
         -1   -1    0    0    0  501 -0.00000000000E+00  0.00000000000E+00  0.36632195264E+02  0.36632195264E+02  0.00000000000E+00 0.  1.
         21   -1    0    0  501  502  0.00000000000E+00 -0.00000000000E+00 -0.38186707189E+03  0.38186707189E+03  0.00000000000E+00 0. -1.
         23    2    1    2    0    0 -0.24801319120E+02  0.11200097919E+02 -0.12242136524E+03  0.15517621109E+03  0.91389923948E+02 0.  0.
         23    2    1    2    0    0  0.54327828931E+02  0.24981946150E+01 -0.18693253810E+03  0.21487821894E+03  0.90945704679E+02 0.  0.
        -11    1    3    3    0    0 -0.59647463511E+02  0.60351454285E+01 -0.81611631827E+02  0.10126549922E+03  0.00000000000E+00 0.  1.
         11    1    3    3    0    0  0.34846144392E+02  0.51649524906E+01 -0.40809733410E+02  0.53910711869E+02  0.00000000000E+00 0. -1.
        -13    1    4    4    0    0  0.24077225626E+02  0.26684252254E+02 -0.15527430195E+02  0.39151796902E+02  0.00000000000E+00 0.  1.
         13    1    4    4    0    0  0.30250603306E+02 -0.24186057639E+02 -0.17140510791E+03  0.17572642204E+03  0.00000000000E+00 0. -1.
         -1    1    1    2    0  502 -0.29526509812E+02 -0.13698292534E+02 -0.35880973289E+02  0.48444837126E+02  0.00000000000E+00 0.  1.
<scales pt_clust_5="13000.00000" pt_clust_6="13000.00000" pt_clust_7="13000.00000" pt_clust_8="13000.00000" pt_clust_9="32.54933"></scales>
<clustering>
<clus scale="   32.549">  2  9  1 -1</clus>
<clus scale="   90.946">  7  8 -1 -1</clus>
<clus scale="   91.390">  5  6 -1 -1</clus>
<clus scale="   98.293">  2  7  1 -1</clus>
<clus scale="   32.549">  2  5  1 -1</clus>
</clustering>
</event>
<event>
 9    1  0.1601012E-005  0.2321696E+03  0.7546771E-02  0.1137849E+00
          2   -1    0    0  502    0 -0.00000000000E+00  0.00000000000E+00  0.24210687373E+04  0.24210687373E+04  0.00000000000E+00 0. -1.
         21   -1    0    0  501  502  0.00000000000E+00 -0.00000000000E+00 -0.13561091858E+03  0.13561091858E+03  0.00000000000E+00 0. -1.
         23    2    1    2    0    0  0.60532242650E+01  0.14356481998E+03  0.53795540556E+03  0.56417352293E+03  0.90819857658E+02 0.  0.
         23    2    1    2    0    0 -0.18924502912E+03 -0.24693345592E+03  0.17525006649E+04  0.17821034363E+04  0.88567851176E+02 0.  0.
        -11    1    4    4    0    0 -0.21865904030E+02 -0.91100147013E+02  0.44526864925E+03  0.45501815849E+03  0.00000000000E+00 0.  1.
         11    1    4    4    0    0 -0.16737912509E+03 -0.15583330891E+03  0.13072320157E+04  0.13270852778E+04  0.00000000000E+00 0. -1.
        -13    1    3    3    0    0 -0.30538342517E+02  0.48908605799E+02  0.29985140479E+03  0.30534489850E+03  0.00000000000E+00 0. -1.
         13    1    3    3    0    0  0.36591566782E+02  0.94656214178E+02  0.23810400077E+03  0.25882862443E+03  0.00000000000E+00 0.  1.
          2    1    1    2  501    0  0.18319180485E+03  0.10336863594E+03 -0.49982517479E+01  0.21040269671E+03  0.00000000000E+00 0. -1.
<scales pt_clust_5="13000.00000" pt_clust_6="13000.00000" pt_clust_7="13000.00000" pt_clust_8="13000.00000" pt_clust_9="214.61234"></scales>
<clustering>
<clus scale="   88.568">  5  6 -1 -1</clus>
<clus scale="   90.820">  7  8 -1 -1</clus>
<clus scale="  169.987">  1  7  2 -1</clus>
<clus scale="  214.612">  2  9  1 -1</clus>
<clus scale="  214.612">  2  5  1 -1</clus>
</clustering>
</event>
<event>
 9    1  0.1601012E-005  0.9663140E+02  0.7546771E-02  0.1287846E+00
         21   -1    0    0  501  502  0.00000000000E+00  0.00000000000E+00  0.70010975333E+02  0.70010975333E+02  0.00000000000E+00 0.  1.
          1   -1    0    0  502    0 -0.00000000000E+00 -0.00000000000E+00 -0.18427880433E+03  0.18427880433E+03  0.00000000000E+00 0. -1.
         23    2    1    2    0    0 -0.63853962409E+00  0.18905989381E+02 -0.63191380788E+02  0.11385621399E+03  0.92802169646E+02 0.  0.
         23    2    1    2    0    0  0.17463917598E+02 -0.32765538114E+02 -0.60824839330E+02  0.11655446258E+03  0.92231842455E+02 0.  0.
        -13    1    4    4    0    0  0.13440400681E+02  0.28930775657E+02 -0.40324695973E+02  0.51417071639E+02  0.00000000000E+00 0. -1.
         13    1    4    4    0    0  0.40235169174E+01 -0.61696313771E+02 -0.20500143357E+02  0.65137390944E+02  0.00000000000E+00 0.  1.
        -13    1    3    3    0    0  0.39527727759E+02  0.94889853551E+00 -0.57079176663E+02  0.69436115090E+02  0.00000000000E+00 0.  1.
         13    1    3    3    0    0 -0.40166267383E+02  0.17957090846E+02 -0.61122041254E+01  0.44420098901E+02  0.00000000000E+00 0. -1.
          1    1    1    2  501    0 -0.16825377974E+02  0.13859548732E+02  0.97483911191E+01  0.23879103091E+02  0.00000000000E+00 0. -1.
<scales pt_clust_5="13000.00000" pt_clust_6="13000.00000" pt_clust_7="13000.00000" pt_clust_8="13000.00000" pt_clust_9="21.79863"></scales>
<clustering>
<clus scale="   21.799">  1  9  2 -1</clus>
<clus scale="   92.232">  5  6 -1 -1</clus>
<clus scale="   92.802">  7  8 -1 -1</clus>
<clus scale="   96.084">  1  5  2 -1</clus>
<clus scale="   21.799">  1  5  2 -1</clus>
</clustering>
</event>
<event>
 9    1  0.1601012E-005  0.1190425E+03  0.7546771E-02  0.1253763E+00
         21   -1    0    0  501  502  0.00000000000E+00  0.00000000000E+00  0.13096140725E+03  0.13096140725E+03  0.00000000000E+00 0. -1.
         -3   -1    0    0    0  501 -0.00000000000E+00 -0.00000000000E+00 -0.11903278513E+03  0.11903278513E+03  0.00000000000E+00 0.  1.
         23    2    1    2    0    0 -0.44370874250E+01  0.37494419971E+02 -0.16334931369E+02  0.10034625984E+03  0.91526076100E+02 0.  0.
         23    2    1    2    0    0  0.25757497598E+02 -0.34337129525E+02  0.92666279257E+01  0.12091795598E+03  0.11266230309E+03 0.  0.
        -11    1    3    3    0    0 -0.13943774262E+01  0.61915149837E+02  0.11716991571E+02  0.63029500706E+02  0.00000000000E+00 0. -1.
         11    1    3    3    0    0 -0.30427099988E+01 -0.24420729866E+02 -0.28051922940E+02  0.37316759130E+02  0.00000000000E+00 0.  1.
        -13    1    4    4    0    0 -0.26207640347E+02  0.22256261699E+02 -0.18718314674E+02  0.39147885021E+02  0.00000000000E+00 0.  1.
         13    1    4    4    0    0  0.51965137945E+02 -0.56593391224E+02  0.27984942600E+02  0.81770070956E+02  0.00000000000E+00 0. -1.
         -3    1    1    2    0  502 -0.21320410173E+02 -0.31572904460E+01  0.18996925556E+02  0.28729976566E+02  0.00000000000E+00 0.  1.
<scales pt_clust_5="13000.00000" pt_clust_6="13000.00000" pt_clust_7="13000.00000" pt_clust_8="13000.00000" pt_clust_9="21.55292"></scales>
<clustering>
<clus scale="   21.553">  1  9  2 -1</clus>
<clus scale="   91.526">  5  6 -1 -1</clus>
<clus scale="   99.274">  2  5  1 -1</clus>
<clus scale="  112.662">  7  8 -1 -1</clus>
<clus scale="   21.553">  1  5  2 -1</clus>
</clustering>
</event>
<event>
 9    1  0.1601012E-005  0.1121947E+03  0.7546771E-02  0.1257153E+00
          1   -1    0    0  502    0 -0.00000000000E+00  0.00000000000E+00  0.43680868229E+03  0.43680868229E+03  0.00000000000E+00 0. -1.
         21   -1    0    0  501  502  0.00000000000E+00 -0.00000000000E+00 -0.11528899634E+03  0.11528899634E+03  0.00000000000E+00 0. -1.
         23    2    1    2    0    0  0.74248184267E+02 -0.23407415937E+02  0.26118104979E+03  0.28750992796E+03  0.91573565613E+02 0.  0.
         23    2    1    2    0    0 -0.43017972860E+02  0.65599463922E+01  0.14213600386E+03  0.17542513127E+03  0.93154464208E+02 0.  0.
        -13    1    3    3    0    0  0.44150223650E+02  0.23925749791E+02  0.57951052902E+02  0.76681212065E+02  0.00000000000E+00 0.  1.
         13    1    3    3    0    0  0.30097960617E+02 -0.47333165728E+02  0.20322999689E+03  0.21082871590E+03  0.00000000000E+00 0. -1.
        -13    1    4    4    0    0 -0.23862001877E+02  0.43935780826E+02  0.11506430019E+03  0.12545732800E+03  0.00000000000E+00 0.  1.
         13    1    4    4    0    0 -0.19155970983E+02 -0.37375834434E+02  0.27071703668E+02  0.49967803268E+02  0.00000000000E+00 0. -1.
          1    1    1    2  501    0 -0.31230211407E+02  0.16847469545E+02 -0.81797367700E+02  0.89162619394E+02  0.00000000000E+00 0. -1.
<scales pt_clust_5="13000.00000" pt_clust_6="13000.00000" pt_clust_7="13000.00000" pt_clust_8="13000.00000" pt_clust_9="35.48469"></scales>
<clustering>
<clus scale="   35.485">  2  9  1 -1</clus>
<clus scale="   91.574">  5  6 -1 -1</clus>
<clus scale="   93.154">  7  8 -1 -1</clus>
<clus scale="  110.886">  1  5  2 -1</clus>
<clus scale="   35.485">  2  5  1 -1</clus>
</clustering>
</event>
<event>
 9    1  0.1601012E-005  0.1028277E+03  0.7546771E-02  0.1282982E+00
         21   -1    0    0  501  502  0.00000000000E+00  0.00000000000E+00  0.32618544249E+02  0.32618544249E+02  0.00000000000E+00 0.  1.
          2   -1    0    0  502    0 -0.00000000000E+00 -0.00000000000E+00 -0.38348105805E+03  0.38348105805E+03  0.00000000000E+00 0. -1.
         23    2    1    2    0    0  0.32140607436E+02  0.10557616141E+02 -0.21465773913E+03  0.23762767532E+03  0.96148245978E+02 0.  0.
         23    2    1    2    0    0 -0.42801871835E+02  0.11148720563E+02 -0.10290110033E+03  0.13731415327E+03  0.79437057080E+02 0.  0.
        -11    1    3    3    0    0  0.50577743463E+02  0.33606623562E+02 -0.18901020607E+03  0.19852549277E+03  0.00000000000E+00 0. -1.
         11    1    3    3    0    0 -0.18437136027E+02 -0.23049007421E+02 -0.25647533053E+02  0.39102182543E+02  0.00000000000E+00 0.  1.
        -13    1    4    4    0    0 -0.33081234960E+02 -0.16869705059E+02 -0.10098436554E+03  0.10759552565E+03  0.00000000000E+00 0. -1.
         13    1    4    4    0    0 -0.97206368747E+01  0.28018425622E+02 -0.19167347820E+01  0.29718627623E+02  0.00000000000E+00 0.  1.
          2    1    1    2  501    0  0.10661264398E+02 -0.21706336704E+02 -0.33303674347E+02  0.41157773709E+02  0.00000000000E+00 0. -1.
<scales pt_clust_5="13000.00000" pt_clust_6="13000.00000" pt_clust_7="13000.00000" pt_clust_8="13000.00000" pt_clust_9="24.18321"></scales>
<clustering>
<clus scale="   24.183">  1  9  2 -1</clus>
<clus scale="   79.437">  7  8 -1 -1</clus>
<clus scale="   87.403">  1  7  2 -1</clus>
<clus scale="   96.148">  5  6 -1 -1</clus>
<clus scale="   24.183">  1  5  2 -1</clus>
</clustering>
</event>
<event>
 9    1  0.1601012E-005  0.3197493E+03  0.7546771E-02  0.1075772E+00
         21   -1    0    0  501  502  0.00000000000E+00  0.00000000000E+00  0.28958962827E+03  0.28958962827E+03  0.00000000000E+00 0. -1.
          2   -1    0    0  502    0 -0.00000000000E+00 -0.00000000000E+00 -0.16172209648E+04  0.16172209648E+04  0.00000000000E+00 0. -1.
         23    2    1    2    0    0 -0.30490919650E+03  0.23306903720E+02 -0.14384739968E+04  0.14734422807E+04  0.91169540881E+02 0.  0.
         23    2    1    2    0    0  0.31658007790E+03  0.35025553831E+02  0.29437781816E+02  0.33254351721E+03  0.90933342061E+02 0.  0.
        -13    1    3    3    0    0 -0.40937859644E+02 -0.28426697708E+02 -0.20377676777E+03  0.20978311795E+03  0.00000000000E+00 0.  1.
         13    1    3    3    0    0 -0.26397133686E+03  0.51733601428E+02 -0.12346972291E+04  0.12636591628E+04  0.00000000000E+00 0. -1.
        -13    1    4    4    0    0  0.27600994003E+03  0.35334877365E+02  0.56279341259E+02  0.28389682071E+03  0.00000000000E+00 0.  1.
         13    1    4    4    0    0  0.40570137865E+02 -0.30932353387E+00 -0.26841559443E+02  0.48646696504E+02  0.00000000000E+00 0. -1.
          2    1    1    2  501    0 -0.11670881395E+02 -0.58332457551E+02  0.81404878476E+02  0.10082479515E+03  0.00000000000E+00 0. -1.
<scales pt_clust_5="13000.00000" pt_clust_6="13000.00000" pt_clust_7="13000.00000" pt_clust_8="13000.00000" pt_clust_9="59.48853"></scales>
<clustering>
<clus scale="   59.489">  1  9  2 -1</clus>
<clus scale="   90.933">  7  8 -1 -1</clus>
<clus scale="   91.170">  5  6 -1 -1</clus>
<clus scale="  319.682">  1  7  2 -1</clus>
<clus scale="   59.489">  1  5  2 -1</clus>
</clustering>
</event>
<event>
 9    1  0.1601012E-005  0.1355947E+03  0.7546771E-02  0.1219503E+00
         21   -1    0    0  501  502  0.00000000000E+00  0.00000000000E+00  0.13786027226E+03  0.13786027226E+03  0.00000000000E+00 0. -1.
          2   -1    0    0  502    0 -0.00000000000E+00 -0.00000000000E+00 -0.26520003248E+03  0.26520003248E+03  0.00000000000E+00 0. -1.
         23    2    1    2    0    0 -0.93342049314E+02 -0.34178384657E+02 -0.36096253776E+02  0.14058841924E+03  0.92635111812E+02 0.  0.
         23    2    1    2    0    0  0.10473328170E+03 -0.52399661262E+02 -0.22445740274E+02  0.15130241649E+03  0.93133373086E+02 0.  0.
        -11    1    4    4    0    0  0.90757482999E+02 -0.77913174450E+02 -0.24655151960E+02  0.12212804752E+03  0.00000000000E+00 0. -1.
         11    1    4    4    0    0  0.13975798701E+02  0.25513513188E+02  0.22094116860E+01  0.29174368966E+02  0.00000000000E+00 0.  1.
        -13    1    3    3    0    0 -0.67457286102E+02  0.16234473734E+02 -0.45740450610E+02  0.83103744847E+02  0.00000000000E+00 0.  1.
         13    1    3    3    0    0 -0.25884763213E+02 -0.50412858391E+02  0.96441968345E+01  0.57484674395E+02  0.00000000000E+00 0. -1.
          2    1    1    2  501    0 -0.11391232386E+02  0.86578045919E+02 -0.68797766163E+02  0.11116946901E+03  0.00000000000E+00 0. -1.
<scales pt_clust_5="13000.00000" pt_clust_6="13000.00000" pt_clust_7="13000.00000" pt_clust_8="13000.00000" pt_clust_9="87.32426"></scales>
<clustering>
<clus scale="   87.324">  1  9  2 -1</clus>
<clus scale="   92.635">  7  8 -1 -1</clus>
<clus scale="   93.133">  5  6 -1 -1</clus>
<clus scale="  135.253">  2  7  1 -1</clus>
<clus scale="   87.324">  1  5  2 -1</clus>
</clustering>
</event>
<event>
 9    1  0.1601012E-005  0.9823546E+02  0.7546771E-02  0.1289648E+00
         21   -1    0    0  501  502  0.00000000000E+00  0.00000000000E+00  0.11663615771E+03  0.11663615771E+03  0.00000000000E+00 0.  1.
         -1   -1    0    0    0  501 -0.00000000000E+00 -0.00000000000E+00 -0.24014895314E+03  0.24014895314E+03  0.00000000000E+00 0.  1.
         23    2    1    2    0    0  0.47861866720E+02  0.99375222190E+01 -0.12571966977E+03  0.16378376391E+03  0.92898726137E+02 0.  0.
         23    2    1    2    0    0 -0.13375582936E+02 -0.76961684474E+01 -0.72386838857E+02  0.11079094928E+03  0.82441753827E+02 0.  0.
        -11    1    3    3    0    0 -0.12890222989E+02  0.28160631522E+02 -0.11313770264E+02  0.32972418990E+02  0.00000000000E+00 0.  1.
         11    1    3    3    0    0  0.60752089708E+02 -0.18223109303E+02 -0.11440589951E+03  0.13081134492E+03  0.00000000000E+00 0. -1.
        -13    1    4    4    0    0 -0.10507780206E+02  0.21048062913E+02 -0.77906900158E+02  0.81381321502E+02  0.00000000000E+00 0.  1.
         13    1    4    4    0    0 -0.28678027301E+01 -0.28744231361E+02  0.55200613011E+01  0.29409627774E+02  0.00000000000E+00 0. -1.
         -1    1    1    2    0  502 -0.34486283783E+02 -0.22413537715E+01  0.74593713196E+02  0.82210397665E+02  0.00000000000E+00 0.  1.
<scales pt_clust_5="13000.00000" pt_clust_6="13000.00000" pt_clust_7="13000.00000" pt_clust_8="13000.00000" pt_clust_9="34.55904"></scales>
<clustering>
<clus scale="   34.559">  1  9  2 -1</clus>
<clus scale="   82.442">  7  8 -1 -1</clus>
<clus scale="   88.412">  1  7  2 -1</clus>
<clus scale="   92.899">  5  6 -1 -1</clus>
<clus scale="   34.559">  1  5  2 -1</clus>
</clustering>
</event>
<event>
 9    1  0.1601012E-005  0.1004882E+03  0.7546771E-02  0.1280287E+00
          1   -1    0    0  502    0 -0.00000000000E+00  0.00000000000E+00  0.60614118648E+03  0.60614118648E+03  0.00000000000E+00 0. -1.
         21   -1    0    0  501  502  0.00000000000E+00 -0.00000000000E+00 -0.23519749494E+02  0.23519749494E+02  0.00000000000E+00 0.  1.
         23    2    1    2    0    0 -0.22128725875E+02  0.37209579051E+02  0.34064334507E+03  0.35507882758E+03  0.90381701568E+02 0.  0.
         23    2    1    2    0    0  0.36129180247E+02 -0.13582063760E+02  0.20810862536E+03  0.23097691413E+03  0.92473481551E+02 0.  0.
        -11    1    3    3    0    0 -0.56332653672E+02  0.11735096914E+02  0.19956045268E+03  0.20769076687E+03  0.00000000000E+00 0.  1.
         11    1    3    3    0    0  0.34203927796E+02  0.25474482137E+02  0.14108289238E+03  0.14738806071E+03  0.00000000000E+00 0. -1.
        -13    1    4    4    0    0  0.45989059679E+02  0.61078488562E+01  0.20318288853E+03  0.20841205728E+03  0.00000000000E+00 0. -1.
         13    1    4    4    0    0 -0.98598794317E+01 -0.19689912616E+02  0.49257368258E+01  0.22564856847E+02  0.00000000000E+00 0.  1.
          1    1    1    2  501    0 -0.14000454372E+02 -0.23627515291E+02  0.33869466562E+02  0.43605194263E+02  0.00000000000E+00 0. -1.
<scales pt_clust_5="13000.00000" pt_clust_6="13000.00000" pt_clust_7="13000.00000" pt_clust_8="13000.00000" pt_clust_9="27.46402"></scales>
<clustering>
<clus scale="   27.464">  2  9  1 -1</clus>
<clus scale="   90.382">  5  6 -1 -1</clus>
<clus scale="   92.473">  7  8 -1 -1</clus>
<clus scale="   98.567">  1  5  2 -1</clus>
<clus scale="   27.464">  2  5  1 -1</clus>
</clustering>
</event>
<event>
 9    1  0.1601012E-005  0.1412828E+03  0.7546771E-02  0.1213253E+00
         21   -1    0    0  501  502  0.00000000000E+00  0.00000000000E+00  0.23761840074E+03  0.23761840074E+03  0.00000000000E+00 0. -1.
          2   -1    0    0  502    0 -0.00000000000E+00 -0.00000000000E+00 -0.10227115023E+03  0.10227115023E+03  0.00000000000E+00 0. -1.
         23    2    1    2    0    0 -0.77315031414E+02  0.81934483877E+02  0.20024626233E+02  0.14482915626E+03  0.88789780472E+02 0.  0.
         23    2    1    2    0    0  0.56362466275E+02 -0.90896107807E+02  0.93139410620E+02  0.16325763291E+03  0.80865783092E+02 0.  0.
        -11    1    3    3    0    0 -0.93234967836E+02  0.51401536545E+02  0.32217362867E+01  0.10651411536E+03  0.00000000000E+00 0. -1.
         11    1    3    3    0    0  0.15919936422E+02  0.30532947332E+02  0.16802889946E+02  0.38315040897E+02  0.00000000000E+00 0.  1.
        -11    1    4    4    0    0  0.24184758011E+02 -0.19731820631E+01  0.57126959269E+02  0.62066782121E+02  0.00000000000E+00 0.  1.
         11    1    4    4    0    0  0.32177708265E+02 -0.88922925744E+02  0.36012451350E+02  0.10119085079E+03  0.00000000000E+00 0. -1.
          2    1    1    2  501    0  0.20952565139E+02  0.89616239302E+01  0.22183213665E+02  0.31802761796E+02  0.00000000000E+00 0. -1.
<scales pt_clust_5="13000.00000" pt_clust_6="13000.00000" pt_clust_7="13000.00000" pt_clust_8="13000.00000" pt_clust_9="22.78861"></scales>
<clustering>
<clus scale="   22.789">  1  9  2 -1</clus>
<clus scale="   80.866">  7  8 -1 -1</clus>
<clus scale="   88.790">  5  6 -1 -1</clus>
<clus scale="  136.442">  1  7  2 -1</clus>
<clus scale="   22.789">  1  5  2 -1</clus>
</clustering>
</event>
<event>
 9    1  0.1601012E-005  0.1266505E+03  0.7546771E-02  0.1232753E+00
          1   -1    0    0  502    0 -0.00000000000E+00  0.00000000000E+00  0.27396004929E+03  0.27396004929E+03  0.00000000000E+00 0. -1.
         21   -1    0    0  501  502  0.00000000000E+00 -0.00000000000E+00 -0.98455743216E+02  0.98455743216E+02  0.00000000000E+00 0. -1.
         23    2    1    2    0    0  0.85932460769E+02 -0.53357209361E+02  0.15577640829E+03  0.20688033770E+03  0.91114242269E+02 0.  0.
         23    2    1    2    0    0 -0.63746933964E+02  0.18861162589E+02  0.39288973091E+02  0.12009526874E+03  0.91977362008E+02 0.  0.
        -11    1    3    3    0    0  0.57006883605E+01 -0.51908536193E+02  0.85636006209E+02  0.10030214124E+03  0.00000000000E+00 0.  1.
         11    1    3    3    0    0  0.80231772409E+02 -0.14486731672E+01  0.70140402077E+02  0.10657819646E+03  0.00000000000E+00 0. -1.
        -11    1    4    4    0    0 -0.74475423281E+02 -0.13576116632E+02  0.12606556174E+02  0.76745194470E+02  0.00000000000E+00 0. -1.
         11    1    4    4    0    0  0.10728489317E+02  0.32437279221E+02  0.26682416917E+02  0.43350074265E+02  0.00000000000E+00 0.  1.
          1    1    1    2  501    0 -0.22185526805E+02  0.34496046772E+02 -0.19561075307E+02  0.45440186066E+02  0.00000000000E+00 0. -1.
<scales pt_clust_5="13000.00000" pt_clust_6="13000.00000" pt_clust_7="13000.00000" pt_clust_8="13000.00000" pt_clust_9="41.01432"></scales>
<clustering>
<clus scale="   41.014">  2  9  1 -1</clus>
<clus scale="   91.114">  5  6 -1 -1</clus>
<clus scale="   91.977">  7  8 -1 -1</clus>
<clus scale="  126.025">  1  5  2 -1</clus>
<clus scale="   41.014">  2  5  1 -1</clus>
</clustering>
</event>
<event>
 9    1  0.1601012E-005  0.9674385E+02  0.7546771E-02  0.1290078E+00
         21   -1    0    0  501  502  0.00000000000E+00  0.00000000000E+00  0.21756479971E+03  0.21756479971E+03  0.00000000000E+00 0. -1.
          2   -1    0    0  502    0 -0.00000000000E+00 -0.00000000000E+00 -0.95993487444E+02  0.95993487444E+02  0.00000000000E+00 0. -1.
         23    2    1    2    0    0  0.26275378210E+02 -0.19514354802E+02 -0.38130385210E+02  0.10469408774E+03  0.91846176775E+02 0.  0.
         23    2    1    2    0    0  0.76504787429E+01  0.38933591932E+02  0.10772609526E+03  0.14382933363E+03  0.86646472569E+02 0.  0.
        -11    1    3    3    0    0 -0.31056857844E+02  0.67234432471E+01 -0.24654785286E+02  0.40219293203E+02  0.00000000000E+00 0.  1.
         11    1    3    3    0    0  0.57332236054E+02 -0.26237798049E+02 -0.13475599924E+02  0.64474794538E+02  0.00000000000E+00 0. -1.
        -13    1    4    4    0    0 -0.20659273441E+02  0.54193541820E+02  0.90106411393E+02  0.10715834512E+03  0.00000000000E+00 0.  1.
         13    1    4    4    0    0  0.28309752184E+02 -0.15259949888E+02  0.17619683863E+02  0.36670988516E+02  0.00000000000E+00 0. -1.
          2    1    1    2  501    0 -0.33925856953E+02 -0.19419237130E+02  0.51975602216E+02  0.65034865775E+02  0.00000000000E+00 0. -1.
<scales pt_clust_5="13000.00000" pt_clust_6="13000.00000" pt_clust_7="13000.00000" pt_clust_8="13000.00000" pt_clust_9="39.09054"></scales>
<clustering>
<clus scale="   39.091">  1  9  2 -1</clus>
<clus scale="   86.646">  7  8 -1 -1</clus>
<clus scale="   91.822">  1  7  2 -1</clus>
<clus scale="   91.846">  5  6 -1 -1</clus>
<clus scale="   39.091">  1  5  2 -1</clus>
</clustering>
</event>
<event>
 9    1  0.1601012E-005  0.1266175E+03  0.7546771E-02  0.1233297E+00
         -1   -1    0    0    0  501 -0.00000000000E+00  0.00000000000E+00  0.20603311863E+03  0.20603311863E+03  0.00000000000E+00 0.  1.
         21   -1    0    0  501  502  0.00000000000E+00 -0.00000000000E+00 -0.41042671064E+03  0.41042671064E+03  0.00000000000E+00 0.  1.
         23    2    1    2    0    0  0.24789178999E+02 -0.83332057941E+02  0.13666612324E+03  0.18384007656E+03  0.86952913867E+02 0.  0.
         23    2    1    2    0    0 -0.11748748138E+03  0.85027003783E+02 -0.25048637955E+03  0.30300734108E+03  0.89650001437E+02 0.  0.
        -13    1    3    3    0    0 -0.19591394131E+02 -0.23700340411E+02  0.30006348631E+01  0.30895512120E+02  0.00000000000E+00 0. -1.
         13    1    3    3    0    0  0.44380573130E+02 -0.59631717530E+02  0.13366548838E+03  0.15294456444E+03  0.00000000000E+00 0.  1.
        -13    1    4    4    0    0 -0.10179398008E+03  0.10346627505E+03 -0.20115192804E+03  0.24805116934E+03  0.00000000000E+00 0.  1.
         13    1    4    4    0    0 -0.15693501303E+02 -0.18439271267E+02 -0.49334451502E+02  0.54956171746E+02  0.00000000000E+00 0. -1.
         -1    1    1    2    0  502  0.92698302380E+02 -0.16949458421E+01 -0.90573335710E+02  0.12961241163E+03  0.00000000000E+00 0.  1.
<scales pt_clust_5="13000.00000" pt_clust_6="13000.00000" pt_clust_7="13000.00000" pt_clust_8="13000.00000" pt_clust_9="92.71380"></scales>
<clustering>
<clus scale="   86.953">  5  6 -1 -1</clus>
<clus scale="   89.650">  7  8 -1 -1</clus>
<clus scale="   92.714">  2  9  1 -1</clus>
<clus scale="  124.722">  1  5  2 -1</clus>
<clus scale="   92.714">  2  5  1 -1</clus>
</clustering>
</event>
<event>
 9    1  0.1601012E-005  0.9384963E+02  0.7546771E-02  0.1299571E+00
         -4   -1    0    0    0  501 -0.00000000000E+00  0.00000000000E+00  0.14553502827E+03  0.14553502827E+03  0.00000000000E+00 0. -1.
         21   -1    0    0  501  502  0.00000000000E+00 -0.00000000000E+00 -0.78628963390E+02  0.78628963390E+02  0.00000000000E+00 0.  1.
         23    2    1    2    0    0  0.17551420272E+02 -0.21369884268E+01  0.27996882578E+02  0.86631944523E+02  0.80054039902E+02 0.  0.
         23    2    1    2    0    0 -0.39650940576E+02  0.62863567720E+01  0.74578549904E+01  0.98869506546E+02  0.90043569196E+02 0.  0.
        -13    1    4    4    0    0 -0.45811188181E+02 -0.16199512302E+02  0.37115856624E+02  0.61144713380E+02  0.00000000000E+00 0. -1.
         13    1    4    4    0    0  0.61602476054E+01  0.22485869074E+02 -0.29658001633E+02  0.37724793166E+02  0.00000000000E+00 0.  1.
        -13    1    3    3    0    0  0.10304726317E+02  0.33620310278E+02  0.34851943832E+02  0.49509298486E+02  0.00000000000E+00 0.  1.
         13    1    3    3    0    0  0.72466939544E+01 -0.35757298705E+02 -0.68550612549E+01  0.37122646037E+02  0.00000000000E+00 0. -1.
         -4    1    1    2    0  502  0.22099520304E+02 -0.41493683451E+01  0.31451327315E+02  0.38662540595E+02  0.00000000000E+00 0. -1.
<scales pt_clust_5="13000.00000" pt_clust_6="13000.00000" pt_clust_7="13000.00000" pt_clust_8="13000.00000" pt_clust_9="22.48570"></scales>
<clustering>
<clus scale="   22.486">  2  9  1 -1</clus>
<clus scale="   80.054">  7  8 -1 -1</clus>
<clus scale="   84.312">  1  7  2 -1</clus>
<clus scale="   90.044">  5  6 -1 -1</clus>
<clus scale="   22.486">  2  5  1 -1</clus>
</clustering>
</event>
<event>
 9    1  0.1601012E-005  0.1340273E+03  0.7546771E-02  0.1222269E+00
          1   -1    0    0  502    0 -0.00000000000E+00  0.00000000000E+00  0.61067232464E+03  0.61067232464E+03  0.00000000000E+00 0. -1.
         21   -1    0    0  501  502  0.00000000000E+00 -0.00000000000E+00 -0.93733792972E+02  0.93733792972E+02  0.00000000000E+00 0. -1.
         23    2    1    2    0    0  0.11664366198E+03 -0.77859582164E+01  0.36084824881E+03  0.39030104294E+03  0.91962385913E+02 0.  0.
         23    2    1    2    0    0 -0.56833138109E+02 -0.80905045768E+02  0.15860340461E+03  0.20710176289E+03  0.89221456042E+02 0.  0.
        -11    1    3    3    0    0  0.27094140497E+02  0.15275066978E+02  0.19641750734E+02  0.36786118202E+02  0.00000000000E+00 0.  1.
         11    1    3    3    0    0  0.89549521479E+02 -0.23061025195E+02  0.34120649808E+03  0.35351492474E+03  0.00000000000E+00 0. -1.
        -13    1    4    4    0    0  0.23644101672E+02 -0.23852829545E+02  0.51564626276E+02  0.61537888363E+02  0.00000000000E+00 0. -1.
         13    1    4    4    0    0 -0.80477239781E+02 -0.57052216223E+02  0.10703877834E+03  0.14556387452E+03  0.00000000000E+00 0.  1.
          1    1    1    2  501    0 -0.59810523867E+02  0.88691003984E+02 -0.25131217551E+01  0.10700331179E+03  0.00000000000E+00 0. -1.
<scales pt_clust_5="13000.00000" pt_clust_6="13000.00000" pt_clust_7="13000.00000" pt_clust_8="13000.00000" pt_clust_9="106.97380"></scales>
<clustering>
<clus scale="   89.221">  7  8 -1 -1</clus>
<clus scale="   91.962">  5  6 -1 -1</clus>
<clus scale="  106.974">  2  9  1 -1</clus>
<clus scale="  132.162">  2  7  1 -1</clus>
<clus scale="  106.974">  2  5  1 -1</clus>
</clustering>
</event>
<event>
 9    1  0.1601012E-005  0.9580743E+02  0.7546771E-02  0.1289392E+00
         21   -1    0    0  501  502  0.00000000000E+00  0.00000000000E+00  0.10481456921E+03  0.10481456921E+03  0.00000000000E+00 0. -1.
          1   -1    0    0  502    0 -0.00000000000E+00 -0.00000000000E+00 -0.14979052787E+03  0.14979052787E+03  0.00000000000E+00 0. -1.
         23    2    1    2    0    0 -0.20393553775E+02 -0.18771948188E+02 -0.76410156048E+02  0.12274777766E+03  0.91979464552E+02 0.  0.
         23    2    1    2    0    0  0.31660341478E+02 -0.24942192358E+01  0.69308437809E+01  0.97511945353E+02  0.91934457843E+02 0.  0.
        -13    1    4    4    0    0  0.42429715705E+02 -0.24118579614E+02 -0.27064383813E+02  0.55807414638E+02  0.00000000000E+00 0. -1.
         13    1    4    4    0    0 -0.10769374227E+02  0.21624360378E+02  0.33995227594E+02  0.41704530715E+02  0.00000000000E+00 0.  1.
        -13    1    3    3    0    0 -0.53657580665E+02 -0.72743779041E+00 -0.25769378391E+02  0.59529202844E+02  0.00000000000E+00 0.  1.
         13    1    3    3    0    0  0.33264026889E+02 -0.18044510397E+02 -0.50640777657E+02  0.63218574818E+02  0.00000000000E+00 0. -1.
          1    1    1    2  501    0 -0.11266787703E+02  0.21266167423E+02  0.24503353605E+02  0.34345374069E+02  0.00000000000E+00 0. -1.
<scales pt_clust_5="13000.00000" pt_clust_6="13000.00000" pt_clust_7="13000.00000" pt_clust_8="13000.00000" pt_clust_9="24.06637"></scales>
<clustering>
<clus scale="   24.066">  1  9  2 -1</clus>
<clus scale="   91.934">  5  6 -1 -1</clus>
<clus scale="   91.979">  7  8 -1 -1</clus>
<clus scale="   95.764">  1  5  2 -1</clus>
<clus scale="   24.066">  1  5  2 -1</clus>
</clustering>
</event>
<event>
 9    1  0.1601012E-005  0.1053116E+03  0.7546771E-02  0.1272566E+00
         -1   -1    0    0    0  501 -0.00000000000E+00  0.00000000000E+00  0.37020964242E+03  0.37020964242E+03  0.00000000000E+00 0.  1.
         21   -1    0    0  501  502  0.00000000000E+00 -0.00000000000E+00 -0.76718561003E+02  0.76718561003E+02  0.00000000000E+00 0.  1.
         23    2    1    2    0    0 -0.39821889705E-01  0.42800537030E+02  0.24408909427E+03  0.26462100374E+03  0.92805722458E+02 0.  0.
         23    2    1    2    0    0  0.70312828036E+01 -0.67987118434E+02  0.84514366882E+02  0.13853365038E+03  0.85890668102E+02 0.  0.
        -11    1    3    3    0    0 -0.45285873309E+02  0.11198439879E+02  0.12294211994E+03  0.13149517190E+03  0.00000000000E+00 0. -1.
         11    1    3    3    0    0  0.45246051419E+02  0.31602097152E+02  0.12114697433E+03  0.13312583184E+03  0.00000000000E+00 0.  1.
        -13    1    4    4    0    0 -0.24791360851E+02 -0.72533168702E+02  0.67633710105E+02  0.10222519688E+03  0.00000000000E+00 0. -1.
         13    1    4    4    0    0  0.31822643654E+02  0.45460502679E+01  0.16880656777E+02  0.36308453498E+02  0.00000000000E+00 0.  1.
         -1    1    1    2    0  502 -0.69914609139E+01  0.25186581404E+02 -0.35112379734E+02  0.43773549309E+02  0.00000000000E+00 0.  1.
<scales pt_clust_5="13000.00000" pt_clust_6="13000.00000" pt_clust_7="13000.00000" pt_clust_8="13000.00000" pt_clust_9="26.13894"></scales>
<clustering>
<clus scale="   26.139">  2  9  1 -1</clus>
<clus scale="   85.891">  7  8 -1 -1</clus>
<clus scale="   92.806">  5  6 -1 -1</clus>
<clus scale="   99.272">  2  7  1 -1</clus>
<clus scale="   26.139">  2  5  1 -1</clus>
</clustering>
</event>
<event>
 9    1  0.1601012E-005  0.1579775E+03  0.7546771E-02  0.1211707E+00
         -1   -1    0    0    0  501 -0.00000000000E+00  0.00000000000E+00  0.24320535300E+03  0.24320535300E+03  0.00000000000E+00 0.  1.
         21   -1    0    0  501  502  0.00000000000E+00 -0.00000000000E+00 -0.36005773166E+03  0.36005773166E+03  0.00000000000E+00 0.  1.
         23    2    1    2    0    0  0.21510552128E+02  0.42579521538E+02  0.11691710755E+03  0.15440788989E+03  0.88862066799E+02 0.  0.
         23    2    1    2    0    0  0.10455253978E+03  0.56987731118E+01  0.39941582244E+02  0.14366599794E+03  0.89893711577E+02 0.  0.
        -11    1    3    3    0    0  0.49698175189E+02  0.21417654816E+02  0.10330912222E+03  0.11662503714E+03  0.00000000000E+00 0. -1.
         11    1    3    3    0    0 -0.28187623062E+02  0.21161866723E+02  0.13607985330E+02  0.37782852748E+02  0.00000000000E+00 0.  1.
        -11    1    4    4    0    0  0.36430723776E+02 -0.17148906447E+02 -0.24514294822E+02  0.47140569341E+02  0.00000000000E+00 0. -1.
         11    1    4    4    0    0  0.68121816008E+02  0.22847679558E+02  0.64455877066E+02  0.96525428597E+02  0.00000000000E+00 0.  1.
         -1    1    1    2    0  502 -0.12606309191E+03 -0.48278294650E+02 -0.27371106845E+03  0.30518919684E+03  0.00000000000E+00 0.  1.
<scales pt_clust_5="13000.00000" pt_clust_6="13000.00000" pt_clust_7="13000.00000" pt_clust_8="13000.00000" pt_clust_9="129.90774"></scales>
<clustering>
<clus scale="   88.862">  5  6 -1 -1</clus>
<clus scale="   89.894">  7  8 -1 -1</clus>
<clus scale="  100.857">  1  5  2 -1</clus>
<clus scale="  129.908">  2  9  1 -1</clus>
<clus scale="  129.908">  2  5  1 -1</clus>
</clustering>
</event>
<event>
 9    1  0.1601012E-005  0.1348972E+03  0.7546771E-02  0.1220525E+00
          1   -1    0    0  502    0 -0.00000000000E+00  0.00000000000E+00  0.59728038439E+03  0.59728038439E+03  0.00000000000E+00 0. -1.
         21   -1    0    0  501  502  0.00000000000E+00 -0.00000000000E+00 -0.63552712152E+02  0.63552712152E+02  0.00000000000E+00 0.  1.
         23    2    1    2    0    0 -0.68662348602E+02  0.69362744923E+02  0.41264434797E+03  0.43381196716E+03  0.91606530562E+02 0.  0.
         23    2    1    2    0    0  0.41141476014E+02 -0.10195645984E+03  0.11634061193E+03  0.18409978271E+03  0.90938722532E+02 0.  0.
        -11    1    4    4    0    0  0.63681124090E+02 -0.45386515232E+02  0.85402235602E+02  0.11579621400E+03  0.00000000000E+00 0. -1.
         11    1    4    4    0    0 -0.22539648076E+02 -0.56569944607E+02  0.30938376330E+02  0.68303568708E+02  0.00000000000E+00 0.  1.
        -13    1    3    3    0    0 -0.47355881332E+01  0.67346157127E+02  0.25245235332E+03  0.26132378647E+03  0.00000000000E+00 0.  1.
         13    1    3    3    0    0 -0.63926760469E+02  0.20165877959E+01  0.16019199465E+03  0.17248818069E+03  0.00000000000E+00 0. -1.
          1    1    1    2  501    0  0.27520872588E+02  0.32593714916E+02  0.47427123349E+01  0.42921346674E+02  0.00000000000E+00 0. -1.
<scales pt_clust_5="13000.00000" pt_clust_6="13000.00000" pt_clust_7="13000.00000" pt_clust_8="13000.00000" pt_clust_9="42.65851"></scales>
<clustering>
<clus scale="   42.659">  2  9  1 -1</clus>
<clus scale="   90.939">  5  6 -1 -1</clus>
<clus scale="   91.607">  7  8 -1 -1</clus>
<clus scale="  134.445">  2  5  1 -1</clus>
<clus scale="   42.659">  2  5  1 -1</clus>
</clustering>
</event>
<event>
 9    1  0.1601012E-005  0.1164901E+03  0.7546771E-02  0.1249315E+00
         21   -1    0    0  501  502  0.00000000000E+00  0.00000000000E+00  0.20846902903E+03  0.20846902903E+03  0.00000000000E+00 0. -1.
          1   -1    0    0  502    0 -0.00000000000E+00 -0.00000000000E+00 -0.66971219270E+03  0.66971219270E+03  0.00000000000E+00 0. -1.
         23    2    1    2    0    0  0.68303857823E+02 -0.17522026626E+02 -0.57189038519E+03  0.58344356633E+03  0.91516905605E+02 0.  0.
         23    2    1    2    0    0 -0.83094553041E+02 -0.35237629635E+02 -0.39345000174E+02  0.13505042185E+03  0.92434799263E+02 0.  0.
        -11    1    4    4    0    0 -0.21269294288E+02  0.26338045500E+02  0.93547927444E+01  0.35122466706E+02  0.00000000000E+00 0. -1.
         11    1    4    4    0    0 -0.61825258753E+02 -0.61575675135E+02 -0.48699792918E+02  0.99927955140E+02  0.00000000000E+00 0.  1.
        -13    1    3    3    0    0 -0.22724065620E+02 -0.10214696559E+01 -0.97675066376E+02  0.10028880870E+03  0.00000000000E+00 0.  1.
         13    1    3    3    0    0  0.91027923443E+02 -0.16500556970E+02 -0.47421531881E+03  0.48315475763E+03  0.00000000000E+00 0. -1.
          1    1    1    2  501    0  0.14790695218E+02  0.52759656261E+02  0.14999222169E+03  0.15968723356E+03  0.00000000000E+00 0. -1.
<scales pt_clust_5="13000.00000" pt_clust_6="13000.00000" pt_clust_7="13000.00000" pt_clust_8="13000.00000" pt_clust_9="54.79367"></scales>
<clustering>
<clus scale="   54.794">  1  9  2 -1</clus>
<clus scale="   91.517">  7  8 -1 -1</clus>
<clus scale="   92.435">  5  6 -1 -1</clus>
<clus scale="  115.763">  2  7  1 -1</clus>
<clus scale="   54.794">  1  5  2 -1</clus>
</clustering>
</event>
<event>
 9    1  0.1601012E-005  0.1003961E+03  0.7546771E-02  0.1281052E+00
         21   -1    0    0  501  502  0.00000000000E+00  0.00000000000E+00  0.22448256607E+03  0.22448256607E+03  0.00000000000E+00 0.  1.
         -1   -1    0    0    0  501 -0.00000000000E+00 -0.00000000000E+00 -0.13685174937E+03  0.13685174937E+03  0.00000000000E+00 0.  1.
         23    2    1    2    0    0  0.18382011738E+02 -0.13414816864E+02 -0.35860385182E+02  0.10160737374E+03  0.92305121771E+02 0.  0.
         23    2    1    2    0    0 -0.49940253189E+02 -0.36037830176E+02 -0.98823991382E+01  0.11402174499E+03  0.95449161469E+02 0.  0.
        -11    1    4    4    0    0 -0.74262497736E+02 -0.54006067878E+01 -0.73919622537E+01  0.74824636515E+02  0.00000000000E+00 0.  1.
         11    1    4    4    0    0  0.24322244547E+02 -0.30637223388E+02 -0.24904368845E+01  0.39197108473E+02  0.00000000000E+00 0. -1.
        -13    1    3    3    0    0 -0.20262541436E+02 -0.36567528826E+02  0.32733457833E+01  0.41934109535E+02  0.00000000000E+00 0.  1.
         13    1    3    3    0    0  0.38644553173E+02  0.23152711962E+02 -0.39133730965E+02  0.59673264202E+02  0.00000000000E+00 0. -1.
         -1    1    1    2    0  502  0.31558241451E+02  0.49452647040E+02  0.13337360102E+03  0.14570519672E+03  0.00000000000E+00 0.  1.
<scales pt_clust_5="13000.00000" pt_clust_6="13000.00000" pt_clust_7="13000.00000" pt_clust_8="13000.00000" pt_clust_9="58.66419"></scales>
<clustering>
<clus scale="   58.664">  1  9  2 -1</clus>
<clus scale="   92.305">  7  8 -1 -1</clus>
<clus scale="   95.449">  5  6 -1 -1</clus>
<clus scale="   97.412">  2  7  1 -1</clus>
<clus scale="   58.664">  1  5  2 -1</clus>
</clustering>
</event>
<event>
 9    1  0.1601012E-005  0.9921281E+02  0.7546771E-02  0.1282162E+00
         21   -1    0    0  501  502  0.00000000000E+00  0.00000000000E+00  0.22806489235E+03  0.22806489235E+03  0.00000000000E+00 0.  1.
          4   -1    0    0  502    0 -0.00000000000E+00 -0.00000000000E+00 -0.11865609111E+03  0.11865609111E+03  0.00000000000E+00 0. -1.
         23    2    1    2    0    0 -0.80476914966E+01  0.34967682195E+02 -0.41406889714E+02  0.10670033277E+03  0.91558322187E+02 0.  0.
         23    2    1    2    0    0  0.28984808376E+02 -0.34865933131E+02  0.15356277590E+02  0.10295268986E+03  0.91146523126E+02 0.  0.
        -13    1    3    3    0    0 -0.23901362764E+02 -0.66156700578E+00  0.21848923633E+02  0.32389632242E+02  0.00000000000E+00 0.  1.
         13    1    3    3    0    0  0.15853671267E+02  0.35629249201E+02 -0.63255813347E+02  0.74310700531E+02  0.00000000000E+00 0. -1.
        -13    1    4    4    0    0  0.29995312071E+02  0.26494280703E+02  0.15528582755E+01  0.40050930389E+02  0.00000000000E+00 0.  1.
         13    1    4    4    0    0 -0.10105036952E+01 -0.61360213834E+02  0.13803419314E+02  0.62901759469E+02  0.00000000000E+00 0. -1.
          4    1    1    2  501    0 -0.20937116879E+02 -0.10174906363E+00  0.13545941337E+03  0.13706796083E+03  0.00000000000E+00 0. -1.
<scales pt_clust_5="13000.00000" pt_clust_6="13000.00000" pt_clust_7="13000.00000" pt_clust_8="13000.00000" pt_clust_9="20.93736"></scales>
<clustering>
<clus scale="   20.937">  1  9  2 -1</clus>
<clus scale="   91.147">  7  8 -1 -1</clus>
<clus scale="   91.558">  5  6 -1 -1</clus>
<clus scale="   98.833">  1  7  2 -1</clus>
<clus scale="   20.937">  1  5  2 -1</clus>
</clustering>
</event>
<event>
 9    1  0.1601012E-005  0.1531888E+03  0.7546771E-02  0.1214319E+00
         21   -1    0    0  501  502  0.00000000000E+00  0.00000000000E+00  0.37759577851E+03  0.37759577851E+03  0.00000000000E+00 0.  1.
         -3   -1    0    0    0  501 -0.00000000000E+00 -0.00000000000E+00 -0.11932286095E+03  0.11932286095E+03  0.00000000000E+00 0.  1.
         23    2    1    2    0    0 -0.49892211828E+02  0.81946659692E+01 -0.17039796238E+02  0.10602203567E+03  0.91618404489E+02 0.  0.
         23    2    1    2    0    0  0.12628824460E+02 -0.12089072149E+03  0.13142986276E+03  0.20437251475E+03  0.98591390137E+02 0.  0.
        -13    1    3    3    0    0 -0.71712542934E+02 -0.14491428185E+02 -0.11441559531E+02  0.74051330774E+02  0.00000000000E+00 0.  1.
         13    1    3    3    0    0  0.21820331106E+02  0.22686094154E+02 -0.55982367068E+01  0.31970704899E+02  0.00000000000E+00 0. -1.
        -13    1    4    4    0    0  0.17236830899E+02  0.10255449755E+02  0.39019494192E+02  0.43872582738E+02  0.00000000000E+00 0. -1.
         13    1    4    4    0    0 -0.46080064393E+01 -0.13114617125E+03  0.92410368565E+02  0.16049993201E+03  0.00000000000E+00 0.  1.
         -3    1    1    2    0  502  0.37263387368E+02  0.11269605552E+03  0.14388285104E+03  0.18652408904E+03  0.00000000000E+00 0.  1.
<scales pt_clust_5="13000.00000" pt_clust_6="13000.00000" pt_clust_7="13000.00000" pt_clust_8="13000.00000" pt_clust_9="117.24561"></scales>
<clustering>
<clus scale="   91.618">  5  6 -1 -1</clus>
<clus scale="   98.591">  7  8 -1 -1</clus>
<clus scale="  104.644">  2  5  1 -1</clus>
<clus scale="  117.246">  1  9  2 -1</clus>
<clus scale="  117.246">  1  5  2 -1</clus>
</clustering>
</event>
<event>
 9    1  0.1601012E-005  0.1067893E+03  0.7546771E-02  0.1269078E+00
          1   -1    0    0  502    0 -0.00000000000E+00  0.00000000000E+00  0.49599505212E+03  0.49599505212E+03  0.00000000000E+00 0. -1.
         21   -1    0    0  501  502  0.00000000000E+00 -0.00000000000E+00 -0.12601731378E+03  0.12601731378E+03  0.00000000000E+00 0. -1.
         23    2    1    2    0    0 -0.49504663860E+02  0.51897873615E+01  0.43431166365E+03  0.44587725225E+03  0.87762504796E+02 0.  0.
         23    2    1    2    0    0  0.84522493629E+02 -0.84245180842E+01 -0.62525797121E+02  0.14092174670E+03  0.93458220369E+02 0.  0.
        -11    1    3    3    0    0 -0.47376362107E+02 -0.35231834785E+02  0.22048070198E+03  0.22824885940E+03  0.00000000000E+00 0.  1.
         11    1    3    3    0    0 -0.21283017522E+01  0.40421622146E+02  0.21383096167E+03  0.21762839285E+03  0.00000000000E+00 0. -1.
        -13    1    4    4    0    0  0.28829752294E+02  0.21647807439E+02  0.16521016841E+02  0.39657611902E+02  0.00000000000E+00 0.  1.
         13    1    4    4    0    0  0.55692741335E+02 -0.30072325524E+02 -0.79046813962E+02  0.10126413480E+03  0.00000000000E+00 0. -1.
          1    1    1    2  501    0 -0.35017829769E+02  0.32347307226E+01 -0.18081281882E+01  0.35213366953E+02  0.00000000000E+00 0. -1.
<scales pt_clust_5="13000.00000" pt_clust_6="13000.00000" pt_clust_7="13000.00000" pt_clust_8="13000.00000" pt_clust_9="35.16691"></scales>
<clustering>
<clus scale="   35.167">  2  9  1 -1</clus>
<clus scale="   87.763">  5  6 -1 -1</clus>
<clus scale="   93.458">  7  8 -1 -1</clus>
<clus scale="  101.842">  1  5  2 -1</clus>
<clus scale="   35.167">  2  5  1 -1</clus>
</clustering>
</event>
<event>
 9    1  0.1601012E-005  0.1530451E+03  0.7546771E-02  0.1213917E+00
         21   -1    0    0  501  502  0.00000000000E+00  0.00000000000E+00  0.77943068818E+02  0.77943068818E+02  0.00000000000E+00 0. -1.
          1   -1    0    0  502    0 -0.00000000000E+00 -0.00000000000E+00 -0.74596387768E+03  0.74596387768E+03  0.00000000000E+00 0. -1.
         23    2    1    2    0    0  0.52165695113E+02 -0.87653784780E+01 -0.27072732228E+03  0.29067952404E+03  0.91669029989E+02 0.  0.
         23    2    1    2    0    0  0.34824038278E+02 -0.87926703470E+02 -0.38018921655E+03  0.40204385459E+03  0.90286221571E+02 0.  0.
        -11    1    3    3    0    0  0.11409865375E+02 -0.44198159754E+02 -0.17409986783E+03  0.17998451693E+03  0.00000000000E+00 0. -1.
         11    1    3    3    0    0  0.40755829737E+02  0.35432781276E+02 -0.96627454450E+02  0.11069500711E+03  0.00000000000E+00 0.  1.
        -13    1    4    4    0    0  0.50716213904E+02 -0.10767106789E+02 -0.15952908916E+03  0.16774264583E+03  0.00000000000E+00 0.  1.
         13    1    4    4    0    0 -0.15892175626E+02 -0.77159596681E+02 -0.22066012739E+03  0.23430120876E+03  0.00000000000E+00 0. -1.
          1    1    1    2  501    0 -0.86989733391E+02  0.96692081948E+02 -0.17104270033E+02  0.13118356787E+03  0.00000000000E+00 0. -1.
<scales pt_clust_5="13000.00000" pt_clust_6="13000.00000" pt_clust_7="13000.00000" pt_clust_8="13000.00000" pt_clust_9="123.57665"></scales>
<clustering>
<clus scale="   90.286">  7  8 -1 -1</clus>
<clus scale="   91.669">  5  6 -1 -1</clus>
<clus scale="  105.836">  2  5  1 -1</clus>
<clus scale="  123.577">  1  9  2 -1</clus>
<clus scale="  123.577">  1  5  2 -1</clus>
</clustering>
</event>
<event>
 9    1  0.1601012E-005  0.1565159E+03  0.7546771E-02  0.1199188E+00
         -3   -1    0    0    0  501 -0.00000000000E+00  0.00000000000E+00  0.32620259879E+03  0.32620259879E+03  0.00000000000E+00 0.  1.
         21   -1    0    0  501  502  0.00000000000E+00 -0.00000000000E+00 -0.12887550432E+03  0.12887550432E+03  0.00000000000E+00 0. -1.
         23    2    1    2    0    0  0.61016230142E+02  0.91846744050E+02  0.20987524167E+03  0.25417852761E+03  0.91653161983E+02 0.  0.
         23    2    1    2    0    0 -0.54481448361E+02 -0.51452051146E+02  0.26708109782E+02  0.14419429972E+03  0.12026275883E+03 0.  0.
        -13    1    4    4    0    0 -0.45886195372E+02 -0.89344436754E+02  0.71461661477E+01  0.10069279515E+03  0.00000000000E+00 0.  1.
         13    1    4    4    0    0 -0.85952529888E+01  0.37892385608E+02  0.19561943635E+02  0.43501504569E+02  0.00000000000E+00 0. -1.
        -13    1    3    3    0    0  0.34642237414E+02 -0.84229223377E+01  0.30146681020E+02  0.46688891723E+02  0.00000000000E+00 0.  1.
         13    1    3    3    0    0  0.26373992728E+02  0.10026966639E+03  0.17972856065E+03  0.20748963589E+03  0.00000000000E+00 0. -1.
         -3    1    1    2    0  502 -0.65347817813E+01 -0.40394692903E+02 -0.39256256982E+02  0.56705275768E+02  0.00000000000E+00 0.  1.
<scales pt_clust_5="13000.00000" pt_clust_6="13000.00000" pt_clust_7="13000.00000" pt_clust_8="13000.00000" pt_clust_9="40.91986"></scales>
<clustering>
<clus scale="   40.920">  2  9  1 -1</clus>
<clus scale="   91.653">  7  8 -1 -1</clus>
<clus scale="  120.263">  5  6 -1 -1</clus>
<clus scale="  135.773">  1  7  2 -1</clus>
<clus scale="   40.920">  2  5  1 -1</clus>
</clustering>
</event>
<event>
 9    1  0.2466982E-005  0.9306179E+02  0.7546771E-02  0.1296796E+00
         21   -1    0    0  501  502  0.00000000000E+00  0.00000000000E+00  0.85792159943E+02  0.85792159943E+02  0.00000000000E+00 0.  1.
          2   -1    0    0  502    0 -0.00000000000E+00 -0.00000000000E+00 -0.28307693465E+03  0.28307693465E+03  0.00000000000E+00 0. -1.
         23    2    1    2    0    0 -0.18172214495E+00  0.73773197323E+01 -0.22403265840E+03  0.24253583667E+03  0.92620419817E+02 0.  0.
         23    2    1    2    0    0  0.21070267479E+02 -0.18070970025E+02  0.35674989181E+02  0.10122591448E+03  0.90572980403E+02 0.  0.
        -13    1    3    3    0    0  0.12745079853E+02  0.47982727011E+02 -0.10611397502E+03  0.11715355242E+03  0.00000000000E+00 0.  1.
         13    1    3    3    0    0 -0.12926801998E+02 -0.40605407279E+02 -0.11791868339E+03  0.12538228424E+03  0.00000000000E+00 0. -1.
        -13    1    4    4    0    0  0.30913004026E+02  0.22447482587E+02  0.44454436058E+02  0.58614846051E+02  0.00000000000E+00 0.  1.
         13    1    4    4    0    0 -0.98427365468E+01 -0.40518452613E+02 -0.87794468768E+01  0.42611068425E+02  0.00000000000E+00 0. -1.
          2    1    1    2  501    0 -0.20888545334E+02  0.10693650293E+02 -0.89271054832E+01  0.25107343449E+02  0.00000000000E+00 0. -1.
<scales pt_clust_5="13000.00000" pt_clust_6="13000.00000" pt_clust_7="13000.00000" pt_clust_8="13000.00000" pt_clust_9="23.46669"></scales>
<clustering>
<clus scale="   23.467">  1  9  2 -1</clus>
<clus scale="   90.573">  7  8 -1 -1</clus>
<clus scale="   91.024">  1  7  2 -1</clus>
<clus scale="   92.620">  5  6 -1 -1</clus>
<clus scale="   23.467">  1  5  2 -1</clus>
</clustering>
</event>
<event>
 9    1  0.1601012E-005  0.9259716E+02  0.7546771E-02  0.1298561E+00
         21   -1    0    0  501  502  0.00000000000E+00  0.00000000000E+00  0.90521029605E+02  0.90521029605E+02  0.00000000000E+00 0. -1.
          2   -1    0    0  502    0 -0.00000000000E+00 -0.00000000000E+00 -0.20169874486E+03  0.20169874486E+03  0.00000000000E+00 0. -1.
         23    2    1    2    0    0  0.39576885550E+02  0.13808622429E+02 -0.88066746355E+02  0.13277379080E+03  0.90089509862E+02 0.  0.
         23    2    1    2    0    0  0.88390452488E+01 -0.12801791182E+02 -0.52639520052E+02  0.10272692693E+03  0.86832527695E+02 0.  0.
        -11    1    4    4    0    0  0.40772528324E+02 -0.33738580106E+01 -0.56276719881E+00  0.40915751132E+02  0.00000000000E+00 0. -1.
         11    1    4    4    0    0 -0.31933483075E+02 -0.94279331710E+01 -0.52076752853E+02  0.61811175793E+02  0.00000000000E+00 0.  1.
        -11    1    3    3    0    0  0.51508550049E+02  0.43113403389E+02 -0.53163697610E+02  0.85663732253E+02  0.00000000000E+00 0. -1.
         11    1    3    3    0    0 -0.11931664499E+02 -0.29304780960E+02 -0.34903048745E+02  0.47110058549E+02  0.00000000000E+00 0.  1.
          2    1    1    2  501    0 -0.48415930799E+02 -0.10068312477E+01  0.29528551151E+02  0.56719056739E+02  0.00000000000E+00 0. -1.
<scales pt_clust_5="13000.00000" pt_clust_6="13000.00000" pt_clust_7="13000.00000" pt_clust_8="13000.00000" pt_clust_9="48.42640"></scales>
<clustering>
<clus scale="   48.426">  1  9  2 -1</clus>
<clus scale="   86.833">  5  6 -1 -1</clus>
<clus scale="   89.432">  1  5  2 -1</clus>
<clus scale="   90.090">  7  8 -1 -1</clus>
<clus scale="   48.426">  1  5  2 -1</clus>
</clustering>
</event>
<event>
 9    1  0.1601012E-005  0.1321893E+03  0.7546771E-02  0.1224784E+00
         -3   -1    0    0    0  501 -0.00000000000E+00  0.00000000000E+00  0.61350473119E+03  0.61350473119E+03  0.00000000000E+00 0.  1.
         21   -1    0    0  501  502  0.00000000000E+00 -0.00000000000E+00 -0.34810474001E+02  0.34810474001E+02  0.00000000000E+00 0. -1.
         23    2    1    2    0    0 -0.86694892586E+02  0.30858950504E+02  0.29799108224E+03  0.32444470731E+03  0.89428204598E+02 0.  0.
         23    2    1    2    0    0  0.85508199194E+02 -0.53348439129E+02  0.25887099452E+03  0.29250444232E+03  0.91580286533E+02 0.  0.
        -11    1    4    4    0    0  0.74455261372E+02 -0.19526583803E+02  0.24038255532E+03  0.25240571769E+03  0.00000000000E+00 0.  1.
         11    1    4    4    0    0  0.11052937821E+02 -0.33821855326E+02  0.18488439202E+02  0.40098724622E+02  0.00000000000E+00 0. -1.
        -11    1    3    3    0    0  0.10984349577E+01 -0.23928567259E+02  0.42405327825E+02  0.48703128425E+02  0.00000000000E+00 0.  1.
         11    1    3    3    0    0 -0.87793327544E+02  0.54787517763E+02  0.25558575441E+03  0.27574157888E+03  0.00000000000E+00 0. -1.
         -3    1    1    2    0  502  0.11866933928E+01  0.22489488626E+02  0.21832180422E+02  0.31366055567E+02  0.00000000000E+00 0.  1.
<scales pt_clust_5="13000.00000" pt_clust_6="13000.00000" pt_clust_7="13000.00000" pt_clust_8="13000.00000" pt_clust_9="22.52078"></scales>
<clustering>
<clus scale="   22.521">  2  9  1 -1</clus>
<clus scale="   89.428">  7  8 -1 -1</clus>
<clus scale="   91.580">  5  6 -1 -1</clus>
<clus scale="  130.708">  1  7  2 -1</clus>
<clus scale="   22.521">  2  5  1 -1</clus>
</clustering>
</event>
<event>
 9    1  0.1601012E-005  0.9858495E+02  0.7546771E-02  0.1284376E+00
          2   -1    0    0  502    0 -0.00000000000E+00  0.00000000000E+00  0.36068042386E+03  0.36068042386E+03  0.00000000000E+00 0. -1.
         21   -1    0    0  501  502  0.00000000000E+00 -0.00000000000E+00 -0.51274418323E+02  0.51274418323E+02  0.00000000000E+00 0.  1.
         23    2    1    2    0    0  0.22862433693E+02 -0.11067823369E+01  0.17489960056E+03  0.19827420282E+03  0.90547630472E+02 0.  0.
         23    2    1    2    0    0 -0.45842523492E+02  0.22874967675E+02  0.14569607234E+03  0.18010762825E+03  0.92663969003E+02 0.  0.
        -11    1    3    3    0    0 -0.24163712693E+02 -0.22743156130E+02  0.31247727057E+02  0.45580221676E+02  0.00000000000E+00 0.  1.
         11    1    3    3    0    0  0.47026146386E+02  0.21636373793E+02  0.14365187351E+03  0.15269398114E+03  0.00000000000E+00 0. -1.
        -13    1    4    4    0    0 -0.11324439914E+02  0.42044265313E+02  0.13088427600E+03  0.13793714833E+03  0.00000000000E+00 0. -1.
         13    1    4    4    0    0 -0.34518083578E+02 -0.19169297638E+02  0.14811796342E+02  0.42170479920E+02  0.00000000000E+00 0.  1.
          2    1    1    2  501    0  0.22980089799E+02 -0.21768185338E+02 -0.11189667363E+02  0.33573011122E+02  0.00000000000E+00 0. -1.
<scales pt_clust_5="13000.00000" pt_clust_6="13000.00000" pt_clust_7="13000.00000" pt_clust_8="13000.00000" pt_clust_9="31.65341"></scales>
<clustering>
<clus scale="   31.653">  2  9  1 -1</clus>
<clus scale="   90.548">  5  6 -1 -1</clus>
<clus scale="   92.664">  7  8 -1 -1</clus>
<clus scale="   96.598">  1  5  2 -1</clus>
<clus scale="   31.653">  2  5  1 -1</clus>
</clustering>
</event>
<event>
 9    1  0.1601012E-005  0.1615273E+03  0.7546771E-02  0.1208295E+00
         21   -1    0    0  501  502  0.00000000000E+00  0.00000000000E+00  0.12669093331E+03  0.12669093331E+03  0.00000000000E+00 0.  1.
          1   -1    0    0  502    0 -0.00000000000E+00 -0.00000000000E+00 -0.37118527036E+03  0.37118527036E+03  0.00000000000E+00 0. -1.
         23    2    1    2    0    0 -0.32929677760E+02 -0.31294883148E+02 -0.10351686524E+03  0.14496422346E+03  0.90747734438E+02 0.  0.
         23    2    1    2    0    0  0.15146507339E+03  0.50535634695E+02 -0.13922862002E+03  0.23281241727E+03  0.96547885371E+02 0.  0.
        -11    1    4    4    0    0  0.13729067945E+03  0.72514585469E+02 -0.96791356108E+02  0.18296355480E+03  0.00000000000E+00 0.  1.
         11    1    4    4    0    0  0.14174393945E+02 -0.21978950774E+02 -0.42437263907E+02  0.49848862462E+02  0.00000000000E+00 0. -1.
        -13    1    3    3    0    0  0.14333629526E+02 -0.18733102702E+02  0.65852701291E+01  0.24489749997E+02  0.00000000000E+00 0.  1.
         13    1    3    3    0    0 -0.47263307286E+02 -0.12561780445E+02 -0.11010213536E+03  0.12047447346E+03  0.00000000000E+00 0. -1.
          1    1    1    2  501    0 -0.11853539563E+03 -0.19240751547E+02 -0.17488517996E+01  0.12009956295E+03  0.00000000000E+00 0. -1.
<scales pt_clust_5="13000.00000" pt_clust_6="13000.00000" pt_clust_7="13000.00000" pt_clust_8="13000.00000" pt_clust_9="129.49736"></scales>
<clustering>
<clus scale="   90.748">  7  8 -1 -1</clus>
<clus scale="   96.548">  5  6 -1 -1</clus>
<clus scale="  101.483">  2  7  1 -1</clus>
<clus scale="  129.497">  1  9  2 -1</clus>
<clus scale="  129.497">  1  5  2 -1</clus>
</clustering>
</event>
<event>
 9    1  0.1601012E-005  0.2325573E+03  0.7546771E-02  0.1125005E+00
          1   -1    0    0  502    0 -0.00000000000E+00  0.00000000000E+00  0.74286127309E+03  0.74286127309E+03  0.00000000000E+00 0. -1.
         21   -1    0    0  501  502  0.00000000000E+00 -0.00000000000E+00 -0.14855233088E+03  0.14855233088E+03  0.00000000000E+00 0. -1.
         23    2    1    2    0    0 -0.14402704941E+03 -0.18100129291E+03  0.54966050657E+03  0.60353839320E+03  0.92879817954E+02 0.  0.
         23    2    1    2    0    0  0.13939367693E+03  0.86515674854E+02  0.34709454940E+02  0.19275537322E+03  0.95049084581E+02 0.  0.
        -11    1    4    4    0    0  0.12759609637E+03  0.30571264016E+02  0.14028367611E+02  0.13195514802E+03  0.00000000000E+00 0.  1.
         11    1    4    4    0    0  0.11797580564E+02  0.55944410838E+02  0.20681087329E+02  0.60800225199E+02  0.00000000000E+00 0. -1.
        -11    1    3    3    0    0 -0.40862722755E+02 -0.38806925943E+02  0.55562100871E+02  0.79138401963E+02  0.00000000000E+00 0.  1.
         11    1    3    3    0    0 -0.10316432665E+03 -0.14219436696E+03  0.49409840570E+03  0.52439999123E+03  0.00000000000E+00 0. -1.
          1    1    1    2  501    0  0.46333724743E+01  0.94485618054E+02  0.99389806975E+01  0.95119837557E+02  0.00000000000E+00 0. -1.
<scales pt_clust_5="13000.00000" pt_clust_6="13000.00000" pt_clust_7="13000.00000" pt_clust_8="13000.00000" pt_clust_9="94.59916"></scales>
<clustering>
<clus scale="   92.880">  7  8 -1 -1</clus>
<clus scale="   94.599">  2  9  1 -1</clus>
<clus scale="   95.049">  5  6 -1 -1</clus>
<clus scale="  231.679">  1  7  2 -1</clus>
<clus scale="   94.599">  2  5  1 -1</clus>
</clustering>
</event>
<event>
 9    1  0.1601012E-005  0.9739484E+02  0.7546771E-02  0.1286584E+00
         21   -1    0    0  501  502  0.00000000000E+00  0.00000000000E+00  0.31397113316E+02  0.31397113316E+02  0.00000000000E+00 0. -1.
          2   -1    0    0  502    0 -0.00000000000E+00 -0.00000000000E+00 -0.58171090296E+03  0.58171090296E+03  0.00000000000E+00 0. -1.
         23    2    1    2    0    0 -0.15457819563E+02 -0.38286098085E+02 -0.35385097922E+03  0.36759226014E+03  0.90602343954E+02 0.  0.
         23    2    1    2    0    0  0.41740852566E+02  0.21227318174E+01 -0.15968329670E+03  0.18762517388E+03  0.89205638081E+02 0.  0.
        -13    1    4    4    0    0  0.83731965617E+01  0.40535396432E+02 -0.10533784905E+03  0.11317813935E+03  0.00000000000E+00 0.  1.
         13    1    4    4    0    0  0.33367656005E+02 -0.38412664615E+02 -0.54345447657E+02  0.74447034535E+02  0.00000000000E+00 0. -1.
        -13    1    3    3    0    0 -0.12732640976E+02  0.29230660126E+02 -0.10545519271E+03  0.11016963877E+03  0.00000000000E+00 0.  1.
         13    1    3    3    0    0 -0.27251785872E+01 -0.67516758211E+02 -0.24839578651E+03  0.25742262137E+03  0.00000000000E+00 0. -1.
          2    1    1    2  501    0 -0.26283033004E+02  0.36163366267E+02 -0.36779513724E+02  0.57890582252E+02  0.00000000000E+00 0. -1.
<scales pt_clust_5="13000.00000" pt_clust_6="13000.00000" pt_clust_7="13000.00000" pt_clust_8="13000.00000" pt_clust_9="44.70556"></scales>
<clustering>
<clus scale="   44.706">  1  9  2 -1</clus>
<clus scale="   89.206">  5  6 -1 -1</clus>
<clus scale="   90.602">  7  8 -1 -1</clus>
<clus scale="   96.097">  1  5  2 -1</clus>
<clus scale="   44.706">  1  5  2 -1</clus>
</clustering>
</event>
<event>
 9    1  0.1601012E-005  0.1063558E+03  0.7546771E-02  0.1267856E+00
          3   -1    0    0  502    0 -0.00000000000E+00  0.00000000000E+00  0.74704320954E+02  0.74704320954E+02  0.00000000000E+00 0. -1.
         21   -1    0    0  501  502  0.00000000000E+00 -0.00000000000E+00 -0.23186559205E+03  0.23186559205E+03  0.00000000000E+00 0.  1.
         23    2    1    2    0    0 -0.23209375021E+02 -0.70768280378E+02 -0.48471575014E+02  0.12587517209E+03  0.89152906665E+02 0.  0.
         23    2    1    2    0    0  0.26219035456E+01  0.33187482940E+02 -0.96490982150E+02  0.13614175068E+03  0.90087641986E+02 0.  0.
        -13    1    3    3    0    0 -0.52539139614E+02 -0.68813626303E+02 -0.32965542631E+02  0.92641261635E+02  0.00000000000E+00 0. -1.
         13    1    3    3    0    0  0.29329764593E+02 -0.19546540749E+01 -0.15506032383E+02  0.33233910451E+02  0.00000000000E+00 0.  1.
        -13    1    4    4    0    0  0.14719687417E+02 -0.27223917986E+02 -0.16187117618E+02  0.34926117519E+02  0.00000000000E+00 0. -1.
         13    1    4    4    0    0 -0.12097783871E+02  0.60411400926E+02 -0.80303864533E+02  0.10121563316E+03  0.00000000000E+00 0.  1.
          3    1    1    2  501    0  0.20587471476E+02  0.37580797438E+02 -0.12198713931E+02  0.44552990241E+02  0.00000000000E+00 0. -1.
<scales pt_clust_5="13000.00000" pt_clust_6="13000.00000" pt_clust_7="13000.00000" pt_clust_8="13000.00000" pt_clust_9="42.85046"></scales>
<clustering>
<clus scale="   42.850">  2  9  1 -1</clus>
<clus scale="   89.153">  5  6 -1 -1</clus>
<clus scale="   90.088">  7  8 -1 -1</clus>
<clus scale="  105.565">  1  5  2 -1</clus>
<clus scale="   42.850">  2  5  1 -1</clus>
</clustering>
</event>
<event>
 9    1  0.2804110E-005  0.9267579E+02  0.7546771E-02  0.1296547E+00
          3   -1    0    0  502    0 -0.00000000000E+00  0.00000000000E+00  0.51823083885E+03  0.51823083885E+03  0.00000000000E+00 0. -1.
         21   -1    0    0  501  502  0.00000000000E+00 -0.00000000000E+00 -0.44954343815E+03  0.44954343815E+03  0.00000000000E+00 0. -1.
         23    2    1    2    0    0 -0.25018215921E+02 -0.22321016788E+02  0.34843451586E+03  0.36174413623E+03  0.91258256276E+02 0.  0.
         23    2    1    2    0    0 -0.16942359298E+02 -0.12435099224E+02  0.14780577943E+03  0.17501952008E+03  0.91343356318E+02 0.  0.
        -11    1    4    4    0    0  0.31223765950E+02  0.16924609505E+02  0.74408519388E+02  0.82449946783E+02  0.00000000000E+00 0.  1.
         11    1    4    4    0    0 -0.48166125248E+02 -0.29359708729E+02  0.73397260043E+02  0.92569573294E+02  0.00000000000E+00 0. -1.
        -13    1    3    3    0    0 -0.38217893869E+02 -0.49222578542E+02  0.28292053712E+03  0.28970243350E+03  0.00000000000E+00 0. -1.
         13    1    3    3    0    0  0.13199677948E+02  0.26901561755E+02  0.65513978739E+02  0.72041702735E+02  0.00000000000E+00 0.  1.
          3    1    1    2  501    0  0.41960575220E+02  0.34756116012E+02 -0.42755289459E+03  0.43101062068E+03  0.00000000000E+00 0. -1.
<scales pt_clust_5="13000.00000" pt_clust_6="13000.00000" pt_clust_7="13000.00000" pt_clust_8="13000.00000" pt_clust_9="54.48557"></scales>
<clustering>
<clus scale="   54.486">  2  9  1 -1</clus>
<clus scale="   91.258">  7  8 -1 -1</clus>
<clus scale="   91.343">  5  6 -1 -1</clus>
<clus scale="   92.592">  1  7  2 -1</clus>
<clus scale="   54.486">  2  5  1 -1</clus>
</clustering>
</event>
<event>
 9    1  0.1601012E-005  0.9941857E+02  0.7546771E-02  0.1282757E+00
         21   -1    0    0  501  502  0.00000000000E+00  0.00000000000E+00  0.20977805661E+03  0.20977805661E+03  0.00000000000E+00 0.  1.
          3   -1    0    0  502    0 -0.00000000000E+00 -0.00000000000E+00 -0.18121993439E+03  0.18121993439E+03  0.00000000000E+00 0. -1.
         23    2    1    2    0    0 -0.23389500252E+02 -0.34265857004E+02 -0.12706477890E+03  0.16185366505E+03  0.91268467573E+02 0.  0.
         23    2    1    2    0    0 -0.32487977772E+02 -0.58492669794E+01  0.94738591831E+02  0.13728348097E+03  0.93710568993E+02 0.  0.
        -11    1    4    4    0    0 -0.38119521266E+02  0.15244863080E+02  0.10530724821E+03  0.11302707763E+03  0.00000000000E+00 0.  1.
         11    1    4    4    0    0  0.56315434936E+01 -0.21094130059E+02 -0.10568656383E+02  0.24256403336E+02  0.00000000000E+00 0. -1.
        -11    1    3    3    0    0 -0.58543852347E+02 -0.17397938473E+02 -0.72649956699E+02  0.94910943095E+02  0.00000000000E+00 0.  1.
         11    1    3    3    0    0  0.35154352096E+02 -0.16867918531E+02 -0.54414822204E+02  0.66942721952E+02  0.00000000000E+00 0. -1.
          3    1    1    2  501    0  0.55877478024E+02  0.40115123984E+02  0.60884309292E+02  0.91860844981E+02  0.00000000000E+00 0. -1.
<scales pt_clust_5="13000.00000" pt_clust_6="13000.00000" pt_clust_7="13000.00000" pt_clust_8="13000.00000" pt_clust_9="68.78601"></scales>
<clustering>
<clus scale="   68.786">  1  9  2 -1</clus>
<clus scale="   91.268">  7  8 -1 -1</clus>
<clus scale="   93.711">  5  6 -1 -1</clus>
<clus scale="   97.120">  2  7  1 -1</clus>
<clus scale="   68.786">  1  5  2 -1</clus>
</clustering>
</event>
<event>
 9    1  0.1601012E-005  0.9972103E+02  0.7546771E-02  0.1281176E+00
         21   -1    0    0  501  502  0.00000000000E+00  0.00000000000E+00  0.58454308853E+03  0.58454308853E+03  0.00000000000E+00 0.  1.
          3   -1    0    0  502    0 -0.00000000000E+00 -0.00000000000E+00 -0.32250278866E+02  0.32250278866E+02  0.00000000000E+00 0. -1.
         23    2    1    2    0    0  0.47584208184E+02  0.11331593704E+01  0.88550659376E+02  0.13464019171E+03  0.89561269687E+02 0.  0.
         23    2    1    2    0    0 -0.32609006679E+02 -0.21072788484E+02  0.27197961691E+03  0.28877604500E+03  0.88945390080E+02 0.  0.
        -13    1    4    4    0    0  0.21220179351E+02 -0.32741233272E+02  0.14903308082E+03  0.15405565081E+03  0.00000000000E+00 0.  1.
         13    1    4    4    0    0 -0.53829186030E+02  0.11668444788E+02  0.12294653610E+03  0.13472039419E+03  0.00000000000E+00 0. -1.
        -13    1    3    3    0    0  0.65642451731E+02 -0.19715837271E+02  0.41568122295E+02  0.80159556509E+02  0.00000000000E+00 0.  1.
         13    1    3    3    0    0 -0.18058243547E+02  0.20848996641E+02  0.46982537080E+02  0.54480635197E+02  0.00000000000E+00 0. -1.
          3    1    1    2  501    0 -0.14975201505E+02  0.19939629113E+02  0.19176253338E+03  0.19337713070E+03  0.00000000000E+00 0. -1.
<scales pt_clust_5="13000.00000" pt_clust_6="13000.00000" pt_clust_7="13000.00000" pt_clust_8="13000.00000" pt_clust_9="24.93683"></scales>
<clustering>
<clus scale="   24.937">  1  9  2 -1</clus>
<clus scale="   88.945">  5  6 -1 -1</clus>
<clus scale="   89.561">  7  8 -1 -1</clus>
<clus scale="   99.168">  1  5  2 -1</clus>
<clus scale="   24.937">  1  5  2 -1</clus>
</clustering>
</event>
<event>
 9    1  0.1601012E-005  0.9329668E+02  0.7546771E-02  0.1296212E+00
          1   -1    0    0  502    0 -0.00000000000E+00  0.00000000000E+00  0.13503006813E+03  0.13503006813E+03  0.00000000000E+00 0. -1.
         21   -1    0    0  501  502  0.00000000000E+00 -0.00000000000E+00 -0.12445496157E+03  0.12445496157E+03  0.00000000000E+00 0. -1.
         23    2    1    2    0    0 -0.14088038118E+02 -0.13309303556E+02  0.83584963551E+02  0.12572485445E+03  0.91894953694E+02 0.  0.
         23    2    1    2    0    0 -0.69483195858E+01  0.10781002693E+02 -0.57059051417E+02  0.10723945036E+03  0.89889127267E+02 0.  0.
        -13    1    3    3    0    0 -0.47789384292E+02 -0.64190085342E+01  0.76771427471E+02  0.90658044306E+02  0.00000000000E+00 0. -1.
         13    1    3    3    0    0  0.33701346174E+02 -0.68902950220E+01  0.68135360801E+01  0.35066810139E+02  0.00000000000E+00 0.  1.
        -13    1    4    4    0    0 -0.12183853160E+02 -0.38023977262E+02 -0.15179576677E+02  0.42716374761E+02  0.00000000000E+00 0.  1.
         13    1    4    4    0    0  0.52355335741E+01  0.48804979955E+02 -0.41879474741E+02  0.64523075599E+02  0.00000000000E+00 0. -1.
          1    1    1    2  501    0  0.21036357704E+02  0.25283008636E+01 -0.15950805565E+02  0.26520724894E+02  0.00000000000E+00 0. -1.
<scales pt_clust_5="13000.00000" pt_clust_6="13000.00000" pt_clust_7="13000.00000" pt_clust_8="13000.00000" pt_clust_9="21.18775"></scales>
<clustering>
<clus scale="   21.188">  2  9  1 -1</clus>
<clus scale="   89.889">  7  8 -1 -1</clus>
<clus scale="   91.322">  2  7  1 -1</clus>
<clus scale="   91.895">  5  6 -1 -1</clus>
<clus scale="   21.188">  2  5  1 -1</clus>
</clustering>
</event>
<event>
 9    1  0.1601012E-005  0.9746905E+02  0.7546771E-02  0.1285928E+00
          1   -1    0    0  502    0 -0.00000000000E+00  0.00000000000E+00  0.63185532398E+02  0.63185532398E+02  0.00000000000E+00 0. -1.
         21   -1    0    0  501  502  0.00000000000E+00 -0.00000000000E+00 -0.24931029326E+03  0.24931029326E+03  0.00000000000E+00 0.  1.
         23    2    1    2    0    0  0.30575805046E+02 -0.19409873458E+02 -0.23788962741E+02  0.10115192306E+03  0.91401169300E+02 0.  0.
         23    2    1    2    0    0 -0.53766830402E+01  0.38059745492E+02 -0.94850420291E+02  0.13693227919E+03  0.90974688278E+02 0.  0.
        -11    1    3    3    0    0  0.37359194204E+02 -0.50366557152E+02 -0.20910428803E+01  0.62744497219E+02  0.00000000000E+00 0.  1.
         11    1    3    3    0    0 -0.67833891577E+01  0.30956683694E+02 -0.21697919860E+02  0.38407425846E+02  0.00000000000E+00 0. -1.
        -11    1    4    4    0    0  0.30058207068E+02  0.50259757653E+02 -0.41673230935E+02  0.71876263315E+02  0.00000000000E+00 0.  1.
         11    1    4    4    0    0 -0.35434890109E+02 -0.12200012161E+02 -0.53177189356E+02  0.65056015875E+02  0.00000000000E+00 0. -1.
          1    1    1    2  501    0 -0.25199122006E+02 -0.18649872034E+02 -0.67485377829E+02  0.74411623403E+02  0.00000000000E+00 0. -1.
<scales pt_clust_5="13000.00000" pt_clust_6="13000.00000" pt_clust_7="13000.00000" pt_clust_8="13000.00000" pt_clust_9="31.34986"></scales>
<clustering>
<clus scale="   31.350">  2  9  1 -1</clus>
<clus scale="   90.975">  7  8 -1 -1</clus>
<clus scale="   91.401">  5  6 -1 -1</clus>
<clus scale="   97.069">  2  7  1 -1</clus>
<clus scale="   31.350">  2  5  1 -1</clus>
</clustering>
</event>
<event>
 9    1  0.1601012E-005  0.9459346E+02  0.7546771E-02  0.1293021E+00
         21   -1    0    0  501  502  0.00000000000E+00  0.00000000000E+00  0.97683127524E+02  0.97683127524E+02  0.00000000000E+00 0. -1.
          1   -1    0    0  502    0 -0.00000000000E+00 -0.00000000000E+00 -0.44817592399E+03  0.44817592399E+03  0.00000000000E+00 0. -1.
         23    2    1    2    0    0 -0.77685537309E+01  0.35217589424E+01 -0.25077875193E+03  0.26681290763E+03  0.90699460032E+02 0.  0.
         23    2    1    2    0    0  0.39541682580E+02 -0.61238466180E+02 -0.15500526627E+03  0.19303527707E+03  0.89007253754E+02 0.  0.
        -13    1    3    3    0    0 -0.39845753384E+02  0.29057778602E+02 -0.15412226141E+03  0.16181999265E+03  0.00000000000E+00 0.  1.
         13    1    3    3    0    0  0.32077199653E+02 -0.25536019660E+02 -0.96656490518E+02  0.10499291498E+03  0.00000000000E+00 0. -1.
        -13    1    4    4    0    0  0.50575003594E+02  0.16239516673E+01 -0.78610829554E+02  0.93488666322E+02  0.00000000000E+00 0.  1.
         13    1    4    4    0    0 -0.11033321014E+02 -0.62862417847E+02 -0.76394436711E+02  0.99546610744E+02  0.00000000000E+00 0. -1.
          1    1    1    2  501    0 -0.31773128849E+02  0.57716707238E+02  0.55291221721E+02  0.86010866817E+02  0.00000000000E+00 0. -1.
<scales pt_clust_5="13000.00000" pt_clust_6="13000.00000" pt_clust_7="13000.00000" pt_clust_8="13000.00000" pt_clust_9="65.88437"></scales>
<clustering>
<clus scale="   65.884">  1  9  2 -1</clus>
<clus scale="   89.007">  7  8 -1 -1</clus>
<clus scale="   90.699">  5  6 -1 -1</clus>
<clus scale="   92.972">  1  7  2 -1</clus>
<clus scale="   65.884">  1  5  2 -1</clus>
</clustering>
</event>
<event>
 9    1  0.1601012E-005  0.9239722E+02  0.7546771E-02  0.1300771E+00
          1   -1    0    0  502    0 -0.00000000000E+00  0.00000000000E+00  0.23739492603E+03  0.23739492603E+03  0.00000000000E+00 0. -1.
         21   -1    0    0  501  502  0.00000000000E+00 -0.00000000000E+00 -0.71413665716E+02  0.71413665716E+02  0.00000000000E+00 0.  1.
         23    2    1    2    0    0  0.13979319435E+02  0.29211266575E+02  0.10360310311E+03  0.14211974322E+03  0.91737118835E+02 0.  0.
         23    2    1    2    0    0  0.20234288439E+02  0.93948116989E+01  0.72089583588E+02  0.11419778218E+03  0.85711938949E+02 0.  0.
        -13    1    4    4    0    0 -0.19767805418E+01 -0.37039991455E+02  0.30510814861E+02  0.48028933486E+02  0.00000000000E+00 0.  1.
         13    1    4    4    0    0  0.22211068981E+02  0.46434803154E+02  0.41578768727E+02  0.66168848698E+02  0.00000000000E+00 0. -1.
        -13    1    3    3    0    0 -0.35164194420E+02  0.20012250380E+02  0.21053354601E+02  0.45609806779E+02  0.00000000000E+00 0.  1.
         13    1    3    3    0    0  0.49143513855E+02  0.91990161954E+01  0.82549748512E+02  0.96509936443E+02  0.00000000000E+00 0. -1.
          1    1    1    2  501    0 -0.34213607874E+02 -0.38606078274E+02 -0.97114263825E+01  0.52491066343E+02  0.00000000000E+00 0. -1.
<scales pt_clust_5="13000.00000" pt_clust_6="13000.00000" pt_clust_7="13000.00000" pt_clust_8="13000.00000" pt_clust_9="51.58488"></scales>
<clustering>
<clus scale="   51.585">  2  9  1 -1</clus>
<clus scale="   85.712">  5  6 -1 -1</clus>
<clus scale="   86.418">  2  5  1 -1</clus>
<clus scale="   91.737">  7  8 -1 -1</clus>
<clus scale="   51.585">  2  5  1 -1</clus>
</clustering>
</event>
<event>
 9    1  0.1601012E-005  0.9338268E+02  0.7546771E-02  0.1295135E+00
         21   -1    0    0  501  502  0.00000000000E+00  0.00000000000E+00  0.86953152340E+02  0.86953152340E+02  0.00000000000E+00 0.  1.
         -4   -1    0    0    0  501 -0.00000000000E+00 -0.00000000000E+00 -0.18209717287E+03  0.18209717287E+03  0.00000000000E+00 0.  1.
         23    2    1    2    0    0 -0.23045624714E+02 -0.65329256053E+01 -0.82565169043E+02  0.12484612780E+03  0.90530484104E+02 0.  0.
         23    2    1    2    0    0  0.13188596877E+02 -0.32235648276E+02 -0.27900440301E+02  0.10136829655E+03  0.91016596668E+02 0.  0.
        -11    1    3    3    0    0 -0.11948333634E+02 -0.46321128493E+02 -0.63098105421E+02  0.79181945727E+02  0.00000000000E+00 0.  1.
         11    1    3    3    0    0 -0.11097291081E+02  0.39788202887E+02 -0.19467063622E+02  0.45664182073E+02  0.00000000000E+00 0. -1.
        -13    1    4    4    0    0 -0.66142060697E+01 -0.47834802068E+02  0.15892661385E+02  0.50837906101E+02  0.00000000000E+00 0.  1.
         13    1    4    4    0    0  0.19802802946E+02  0.15599153792E+02 -0.43793101686E+02  0.50530390448E+02  0.00000000000E+00 0. -1.
         -4    1    1    2    0  502  0.98570278378E+01  0.38768573881E+02  0.15321588816E+02  0.42835900859E+02  0.00000000000E+00 0.  1.
<scales pt_clust_5="13000.00000" pt_clust_6="13000.00000" pt_clust_7="13000.00000" pt_clust_8="13000.00000" pt_clust_9="40.00204"></scales>
<clustering>
<clus scale="   40.002">  1  9  2 -1</clus>
<clus scale="   90.530">  5  6 -1 -1</clus>
<clus scale="   91.017">  7  8 -1 -1</clus>
<clus scale="   92.909">  2  5  1 -1</clus>
<clus scale="   40.002">  1  5  2 -1</clus>
</clustering>
</event>
<event>
 9    1  0.1601012E-005  0.1195254E+03  0.7546771E-02  0.1247814E+00
          2   -1    0    0  502    0 -0.00000000000E+00  0.00000000000E+00  0.16945641913E+03  0.16945641913E+03  0.00000000000E+00 0. -1.
         21   -1    0    0  501  502  0.00000000000E+00 -0.00000000000E+00 -0.21373694116E+03  0.21373694116E+03  0.00000000000E+00 0. -1.
         23    2    1    2    0    0 -0.39136754716E+02  0.56572013315E+02  0.11434850702E+03  0.16629179228E+03  0.99223489467E+02 0.  0.
         23    2    1    2    0    0  0.53063863352E+01 -0.63677913609E+02 -0.94785707615E+02  0.14430020895E+03  0.88063531143E+02 0.  0.
        -11    1    3    3    0    0  0.91876627857E+01 -0.18689010013E+02 -0.36890671547E+00  0.20828546155E+02  0.00000000000E+00 0.  1.
         11    1    3    3    0    0 -0.48324417502E+02  0.75261023329E+02  0.11471741374E+03  0.14546324613E+03  0.00000000000E+00 0. -1.
        -11    1    4    4    0    0 -0.27065973597E+00 -0.85668032951E+02 -0.69375319510E+02  0.11023620133E+03  0.00000000000E+00 0. -1.
         11    1    4    4    0    0  0.55770460712E+01  0.21990119342E+02 -0.25410388105E+02  0.34064007621E+02  0.00000000000E+00 0.  1.
          2    1    1    2  501    0  0.33830368381E+02  0.71059002939E+01 -0.63843321446E+02  0.72601359058E+02  0.00000000000E+00 0. -1.
<scales pt_clust_5="13000.00000" pt_clust_6="13000.00000" pt_clust_7="13000.00000" pt_clust_8="13000.00000" pt_clust_9="34.56859"></scales>
<clustering>
<clus scale="   34.569">  2  9  1 -1</clus>
<clus scale="   88.064">  7  8 -1 -1</clus>
<clus scale="   99.223">  5  6 -1 -1</clus>
<clus scale="  110.436">  2  7  1 -1</clus>
<clus scale="   34.569">  2  5  1 -1</clus>
</clustering>
</event>
<event>
 9    1  0.1601012E-005  0.1286736E+03  0.7546771E-02  0.1231747E+00
          1   -1    0    0  502    0 -0.00000000000E+00  0.00000000000E+00  0.53992715801E+03  0.53992715801E+03  0.00000000000E+00 0. -1.
         21   -1    0    0  501  502  0.00000000000E+00 -0.00000000000E+00 -0.49452940365E+02  0.49452940365E+02  0.00000000000E+00 0.  1.
         23    2    1    2    0    0 -0.92387808667E+02  0.25350967353E+01  0.33795942716E+03  0.36403614738E+03  0.98811984545E+02 0.  0.
         23    2    1    2    0    0  0.63480920908E+02 -0.32458945996E+02  0.14080486513E+03  0.18212165042E+03  0.90878352843E+02 0.  0.
        -13    1    4    4    0    0  0.18109258898E+02  0.22227507327E+02  0.90836477991E+02  0.95253729972E+02  0.00000000000E+00 0. -1.
         13    1    4    4    0    0  0.45371662011E+02 -0.54686453324E+02  0.49968387135E+02  0.86867920452E+02  0.00000000000E+00 0.  1.
        -13    1    3    3    0    0 -0.61944764365E+01  0.25341456279E+02  0.17521731936E+02  0.31425658858E+02  0.00000000000E+00 0.  1.
         13    1    3    3    0    0 -0.86193332231E+02 -0.22806359543E+02  0.32043769522E+03  0.33261048852E+03  0.00000000000E+00 0. -1.
          1    1    1    2  501    0  0.28906887759E+02  0.29923849261E+02  0.11709925359E+02  0.43222300568E+02  0.00000000000E+00 0. -1.
<scales pt_clust_5="13000.00000" pt_clust_6="13000.00000" pt_clust_7="13000.00000" pt_clust_8="13000.00000" pt_clust_9="41.60583"></scales>
<clustering>
<clus scale="   41.606">  2  9  1 -1</clus>
<clus scale="   90.878">  5  6 -1 -1</clus>
<clus scale="   98.812">  7  8 -1 -1</clus>
<clus scale="  122.686">  2  5  1 -1</clus>
<clus scale="   41.606">  2  5  1 -1</clus>
</clustering>
</event>
<event>
 9    1  0.1601012E-005  0.9195081E+02  0.7546771E-02  0.1298475E+00
          3   -1    0    0  502    0 -0.00000000000E+00  0.00000000000E+00  0.42670400526E+02  0.42670400526E+02  0.00000000000E+00 0. -1.
         21   -1    0    0  501  502  0.00000000000E+00 -0.00000000000E+00 -0.64978928020E+03  0.64978928020E+03  0.00000000000E+00 0. -1.
         23    2    1    2    0    0  0.12006276517E+02 -0.12584895953E+02 -0.60039403166E+02  0.10982273994E+03  0.90298250223E+02 0.  0.
         23    2    1    2    0    0 -0.39404683175E+02 -0.64603548515E+02 -0.35141847024E+03  0.37052386241E+03  0.89814496871E+02 0.  0.
        -11    1    4    4    0    0  0.14648182467E+02 -0.42327475416E+02 -0.24540142766E+03  0.24945549728E+03  0.00000000000E+00 0.  1.
         11    1    4    4    0    0 -0.54052865643E+02 -0.22276073099E+02 -0.10601704258E+03  0.12106836513E+03  0.00000000000E+00 0. -1.
        -13    1    3    3    0    0 -0.10198074417E+01 -0.50522588868E+02 -0.24184480857E+02  0.56021969864E+02  0.00000000000E+00 0. -1.
         13    1    3    3    0    0  0.13026083959E+02  0.37937692914E+02 -0.35854922308E+02  0.53800770076E+02  0.00000000000E+00 0.  1.
          3    1    1    2  501    0  0.27398406658E+02  0.77188444468E+02 -0.19566100626E+03  0.21211307838E+03  0.00000000000E+00 0. -1.
<scales pt_clust_5="13000.00000" pt_clust_6="13000.00000" pt_clust_7="13000.00000" pt_clust_8="13000.00000" pt_clust_9="81.90683"></scales>
<clustering>
<clus scale="   81.907">  2  9  1 -1</clus>
<clus scale="   89.814">  5  6 -1 -1</clus>
<clus scale="   90.298">  7  8 -1 -1</clus>
<clus scale="   91.476">  2  5  1 -1</clus>
<clus scale="   81.907">  2  5  1 -1</clus>
</clustering>
</event>
<event>
 9    1  0.1601012E-005  0.9743647E+02  0.7546771E-02  0.1286106E+00
          1   -1    0    0  502    0 -0.00000000000E+00  0.00000000000E+00  0.28877601518E+03  0.28877601518E+03  0.00000000000E+00 0. -1.
         21   -1    0    0  501  502  0.00000000000E+00 -0.00000000000E+00 -0.86734812694E+02  0.86734812694E+02  0.00000000000E+00 0. -1.
         23    2    1    2    0    0  0.46646698488E+02  0.10994094394E+02  0.16538385161E+03  0.19449265034E+03  0.90436652266E+02 0.  0.
         23    2    1    2    0    0 -0.16888330079E+02  0.73263023561E+01  0.81895064430E+02  0.12385483128E+03  0.91073197235E+02 0.  0.
        -11    1    4    4    0    0 -0.50432716432E+01 -0.36310029418E+02  0.84698487073E+01  0.37624342683E+02  0.00000000000E+00 0.  1.
         11    1    4    4    0    0 -0.11845058435E+02  0.43636331774E+02  0.73425215723E+02  0.86230488599E+02  0.00000000000E+00 0. -1.
        -11    1    3    3    0    0  0.31461629823E+02 -0.38993427859E+02  0.81829304144E+02  0.95949760730E+02  0.00000000000E+00 0.  1.
         11    1    3    3    0    0  0.15185068665E+02  0.49987522253E+02  0.83554547466E+02  0.98542889615E+02  0.00000000000E+00 0. -1.
          1    1    1    2  501    0 -0.29758368410E+02 -0.18320396750E+02 -0.45237713551E+02  0.57163346253E+02  0.00000000000E+00 0. -1.
<scales pt_clust_5="13000.00000" pt_clust_6="13000.00000" pt_clust_7="13000.00000" pt_clust_8="13000.00000" pt_clust_9="34.94564"></scales>
<clustering>
<clus scale="   34.946">  2  9  1 -1</clus>
<clus scale="   90.437">  7  8 -1 -1</clus>
<clus scale="   91.073">  5  6 -1 -1</clus>
<clus scale="   96.842">  1  7  2 -1</clus>
<clus scale="   34.946">  2  5  1 -1</clus>
</clustering>
</event>
<event>
 9    1  0.1601012E-005  0.1164881E+03  0.7546771E-02  0.1253886E+00
         21   -1    0    0  501  502  0.00000000000E+00  0.00000000000E+00  0.37695063812E+03  0.37695063812E+03  0.00000000000E+00 0. -1.
         -3   -1    0    0    0  501 -0.00000000000E+00 -0.00000000000E+00 -0.65575493397E+02  0.65575493397E+02  0.00000000000E+00 0.  1.
         23    2    1    2    0    0 -0.26606935990E+02  0.24632340933E+02  0.63467793630E+02  0.12810534555E+03  0.10520521597E+03 0.  0.
         23    2    1    2    0    0  0.35548858775E+02 -0.54808999431E+02  0.69575893872E+02  0.13333324544E+03  0.93108547149E+02 0.  0.
        -11    1    4    4    0    0  0.66405608717E+02 -0.25534082578E+02  0.41422847210E+02  0.82325855678E+02  0.00000000000E+00 0.  1.
         11    1    4    4    0    0 -0.30856749942E+02 -0.29274916852E+02  0.28153046662E+02  0.51007389760E+02  0.00000000000E+00 0. -1.
        -11    1    3    3    0    0 -0.69618480554E+01 -0.40326594503E+02  0.11148195487E+02  0.42414429327E+02  0.00000000000E+00 0. -1.
         11    1    3    3    0    0 -0.19645087935E+02  0.64958935436E+02  0.52319598143E+02  0.85690916221E+02  0.00000000000E+00 0.  1.
         -3    1    1    2    0  502 -0.89419227845E+01  0.30176658498E+02  0.17833145722E+03  0.18108754053E+03  0.00000000000E+00 0.  1.
<scales pt_clust_5="13000.00000" pt_clust_6="13000.00000" pt_clust_7="13000.00000" pt_clust_8="13000.00000" pt_clust_9="31.47362"></scales>
<clustering>
<clus scale="   31.474">  1  9  2 -1</clus>
<clus scale="   93.109">  5  6 -1 -1</clus>
<clus scale="  105.205">  7  8 -1 -1</clus>
<clus scale="  105.691">  1  5  2 -1</clus>
<clus scale="   31.474">  1  5  2 -1</clus>
</clustering>
</event>
<event>
 9    1  0.1601012E-005  0.1743605E+03  0.7546771E-02  0.1173958E+00
         21   -1    0    0  501  502  0.00000000000E+00  0.00000000000E+00  0.54916386838E+03  0.54916386838E+03  0.00000000000E+00 0.  1.
         -1   -1    0    0    0  501 -0.00000000000E+00 -0.00000000000E+00 -0.14422730825E+03  0.14422730825E+03  0.00000000000E+00 0.  1.
         23    2    1    2    0    0 -0.17135654049E+03  0.25505556820E+02 -0.30148768743E+02  0.19920900085E+03  0.93603848034E+02 0.  0.
         23    2    1    2    0    0  0.86360142950E+02 -0.35649433515E+02  0.15763231419E+03  0.20382470440E+03  0.89261454422E+02 0.  0.
        -11    1    4    4    0    0 -0.17510314814E+02 -0.15424845894E+02  0.30891519133E+02  0.38714634831E+02  0.00000000000E+00 0.  1.
         11    1    4    4    0    0  0.10387045776E+03 -0.20224587621E+02  0.12674079505E+03  0.16511006956E+03  0.00000000000E+00 0. -1.
        -11    1    3    3    0    0 -0.94822317637E+02  0.60772136453E+02 -0.18652110803E+02  0.11415965018E+03  0.00000000000E+00 0.  1.
         11    1    3    3    0    0 -0.76534222855E+02 -0.35266579632E+02 -0.11496657940E+02  0.85049350678E+02  0.00000000000E+00 0. -1.
         -1    1    1    2    0  502  0.84996397541E+02  0.10143876695E+02  0.27745301468E+03  0.29035747138E+03  0.00000000000E+00 0.  1.
<scales pt_clust_5="13000.00000" pt_clust_6="13000.00000" pt_clust_7="13000.00000" pt_clust_8="13000.00000" pt_clust_9="85.59957"></scales>
<clustering>
<clus scale="   85.600">  1  9  2 -1</clus>
<clus scale="   89.261">  5  6 -1 -1</clus>
<clus scale="   93.604">  7  8 -1 -1</clus>
<clus scale="  172.068">  1  5  2 -1</clus>
<clus scale="   85.600">  1  5  2 -1</clus>
</clustering>
</event>
<event>
 9    1  0.1601012E-005  0.1251964E+03  0.7546771E-02  0.1235534E+00
          2   -1    0    0  502    0 -0.00000000000E+00  0.00000000000E+00  0.70678078030E+03  0.70678078030E+03  0.00000000000E+00 0. -1.
         21   -1    0    0  501  502  0.00000000000E+00 -0.00000000000E+00 -0.34132407806E+02  0.34132407806E+02  0.00000000000E+00 0.  1.
         23    2    1    2    0    0  0.55222315062E+02  0.63115809135E+02  0.39898196844E+03  0.41733678971E+03  0.89164317224E+02 0.  0.
         23    2    1    2    0    0 -0.41583001084E+02 -0.77864710439E+02  0.27537495855E+03  0.30341504591E+03  0.91854576222E+02 0.  0.
        -11    1    4    4    0    0 -0.51024839305E+02 -0.18187121105E+02  0.19782032799E+03  0.20510287118E+03  0.00000000000E+00 0. -1.
         11    1    4    4    0    0  0.94418382209E+01 -0.59677589333E+02  0.77554630566E+02  0.98312174729E+02  0.00000000000E+00 0.  1.
        -11    1    3    3    0    0  0.46071952644E+01  0.70833753270E+02  0.21924813330E+03  0.23045257821E+03  0.00000000000E+00 0.  1.
         11    1    3    3    0    0  0.50615119798E+02 -0.77179441355E+01  0.17973383514E+03  0.18688421150E+03  0.00000000000E+00 0. -1.
          2    1    1    2  501    0 -0.13639313978E+02  0.14748901304E+02 -0.17085545002E+01  0.20161352483E+02  0.00000000000E+00 0. -1.
<scales pt_clust_5="13000.00000" pt_clust_6="13000.00000" pt_clust_7="13000.00000" pt_clust_8="13000.00000" pt_clust_9="20.08883"></scales>
<clustering>
<clus scale="   20.089">  2  9  1 -1</clus>
<clus scale="   89.164">  7  8 -1 -1</clus>
<clus scale="   91.855">  5  6 -1 -1</clus>
<clus scale="  123.236">  1  7  2 -1</clus>
<clus scale="   20.089">  2  5  1 -1</clus>
</clustering>
</event>
<event>
 9    1  0.1601012E-005  0.9659784E+02  0.7546771E-02  0.1288936E+00
          2   -1    0    0  502    0 -0.00000000000E+00  0.00000000000E+00  0.58219914078E+03  0.58219914078E+03  0.00000000000E+00 0. -1.
         21   -1    0    0  501  502  0.00000000000E+00 -0.00000000000E+00 -0.99012071466E+02  0.99012071466E+02  0.00000000000E+00 0. -1.
         23    2    1    2    0    0 -0.27355905216E+02  0.14757614352E+02  0.34651469202E+03  0.36013330480E+03  0.93045326100E+02 0.  0.
         23    2    1    2    0    0  0.14321071978E+02  0.76312068480E+02  0.18270059841E+03  0.21820812983E+03  0.90590586517E+02 0.  0.
        -11    1    3    3    0    0  0.90244472542E+01  0.46425518363E+02  0.13067839629E+03  0.13897342429E+03  0.00000000000E+00 0. -1.
         11    1    3    3    0    0 -0.36380352470E+02 -0.31667904011E+02  0.21583629573E+03  0.22115988051E+03  0.00000000000E+00 0.  1.
        -13    1    4    4    0    0 -0.26588810271E+02  0.23060438068E+02  0.16336327694E+02  0.38802374129E+02  0.00000000000E+00 0.  1.
         13    1    4    4    0    0  0.40909882249E+02  0.53251630412E+02  0.16636427072E+03  0.17940575570E+03  0.00000000000E+00 0. -1.
          2    1    1    2  501    0  0.13034833238E+02 -0.91069682832E+02 -0.46028221115E+02  0.10286977762E+03  0.00000000000E+00 0. -1.
<scales pt_clust_5="13000.00000" pt_clust_6="13000.00000" pt_clust_7="13000.00000" pt_clust_8="13000.00000" pt_clust_9="91.99779"></scales>
<clustering>
<clus scale="   90.591">  7  8 -1 -1</clus>
<clus scale="   91.998">  2  9  1 -1</clus>
<clus scale="   93.045">  5  6 -1 -1</clus>
<clus scale="   94.236">  2  7  1 -1</clus>
<clus scale="   91.998">  2  5  1 -1</clus>
</clustering>
</event>
<event>
 9    1  0.1601012E-005  0.1069359E+03  0.7546771E-02  0.1267967E+00
         21   -1    0    0  501  502  0.00000000000E+00  0.00000000000E+00  0.14089631278E+03  0.14089631278E+03  0.00000000000E+00 0. -1.
         -3   -1    0    0    0  501 -0.00000000000E+00 -0.00000000000E+00 -0.15281126030E+03  0.15281126030E+03  0.00000000000E+00 0.  1.
         23    2    1    2    0    0  0.49188579986E+02 -0.36165064218E+01 -0.59170899945E+02  0.11822649837E+03  0.89686754852E+02 0.  0.
         23    2    1    2    0    0 -0.47386144664E+02  0.49545625287E+02  0.10083355753E+02  0.11636648534E+03  0.93484058300E+02 0.  0.
        -11    1    3    3    0    0  0.66633844000E+02  0.22145561152E+02 -0.48481152840E+02  0.85328290886E+02  0.00000000000E+00 0. -1.
         11    1    3    3    0    0 -0.17445264014E+02 -0.25762067574E+02 -0.10689747105E+02  0.32898207480E+02  0.00000000000E+00 0.  1.
        -11    1    4    4    0    0 -0.14090047211E+02  0.41230092453E+02  0.48268678528E+02  0.65025497161E+02  0.00000000000E+00 0. -1.
         11    1    4    4    0    0 -0.33296097453E+02  0.83155328342E+01 -0.38185322775E+02  0.51340988181E+02  0.00000000000E+00 0.  1.
         -3    1    1    2    0  502 -0.18024353216E+01 -0.45929118866E+02  0.37172596676E+02  0.59114589371E+02  0.00000000000E+00 0.  1.
<scales pt_clust_5="13000.00000" pt_clust_6="13000.00000" pt_clust_7="13000.00000" pt_clust_8="13000.00000" pt_clust_9="45.96447"></scales>
<clustering>
<clus scale="   45.964">  1  9  2 -1</clus>
<clus scale="   89.687">  5  6 -1 -1</clus>
<clus scale="   93.484">  7  8 -1 -1</clus>
<clus scale="  103.633">  2  5  1 -1</clus>
<clus scale="   45.964">  1  5  2 -1</clus>
</clustering>
</event>
<event>
 9    1  0.1601012E-005  0.1046645E+03  0.7546771E-02  0.1277226E+00
         21   -1    0    0  501  502  0.00000000000E+00  0.00000000000E+00  0.21250586858E+03  0.21250586858E+03  0.00000000000E+00 0.  1.
          4   -1    0    0  502    0 -0.00000000000E+00 -0.00000000000E+00 -0.11685436736E+03  0.11685436736E+03  0.00000000000E+00 0. -1.
         23    2    1    2    0    0 -0.32860315248E+00 -0.55474814174E+01 -0.65243473030E+02  0.12313556571E+03  0.10428218562E+03 0.  0.
         23    2    1    2    0    0  0.18169940580E+02  0.16728329172E+02  0.85791310880E+02  0.12822540788E+03  0.92041417116E+02 0.  0.
        -11    1    4    4    0    0  0.30543202764E+02 -0.25360969573E+02  0.72032554497E+02  0.82248130193E+02  0.00000000000E+00 0. -1.
         11    1    4    4    0    0 -0.12373262184E+02  0.42089298745E+02  0.13758756383E+02  0.45977277683E+02  0.00000000000E+00 0.  1.
        -11    1    3    3    0    0 -0.14125150068E+02  0.34309468154E+02 -0.71444875636E+02  0.80504842861E+02  0.00000000000E+00 0.  1.
         11    1    3    3    0    0  0.13796546916E+02 -0.39856949572E+02  0.62014026064E+01  0.42630722844E+02  0.00000000000E+00 0. -1.
          4    1    1    2  501    0 -0.17841337427E+02 -0.11180847754E+02  0.75103663363E+02  0.77999262357E+02  0.00000000000E+00 0. -1.
<scales pt_clust_5="13000.00000" pt_clust_6="13000.00000" pt_clust_7="13000.00000" pt_clust_8="13000.00000" pt_clust_9="21.05528"></scales>
<clustering>
<clus scale="   21.055">  1  9  2 -1</clus>
<clus scale="   92.041">  5  6 -1 -1</clus>
<clus scale="   92.474">  1  5  2 -1</clus>
<clus scale="  104.282">  7  8 -1 -1</clus>
<clus scale="   21.055">  1  5  2 -1</clus>
</clustering>
</event>
<event>
 9    1  0.1601012E-005  0.9208850E+02  0.7546771E-02  0.1298237E+00
         21   -1    0    0  501  502  0.00000000000E+00  0.00000000000E+00  0.16145374365E+03  0.16145374365E+03  0.00000000000E+00 0.  1.
          2   -1    0    0  502    0 -0.00000000000E+00 -0.00000000000E+00 -0.23675458815E+03  0.23675458815E+03  0.00000000000E+00 0. -1.
         23    2    1    2    0    0 -0.41054144769E+01  0.12281452383E+02 -0.17204302322E+03  0.19536616925E+03  0.91659422566E+02 0.  0.
         23    2    1    2    0    0  0.21106136369E+02  0.25690858274E+02 -0.66704812709E+00  0.96920123307E+02  0.91036125562E+02 0.  0.
        -11    1    3    3    0    0  0.34496818998E+02 -0.11640654906E+02 -0.12409329746E+03  0.12932394149E+03  0.00000000000E+00 0.  1.
         11    1    3    3    0    0 -0.38602233475E+02  0.23922107289E+02 -0.47949725766E+02  0.66042227760E+02  0.00000000000E+00 0. -1.
        -13    1    4    4    0    0 -0.26946294060E+02  0.28155566440E+02 -0.21475707714E+02  0.44497693276E+02  0.00000000000E+00 0. -1.
         13    1    4    4    0    0  0.48052430429E+02 -0.24647081655E+01  0.20808659587E+02  0.52422430030E+02  0.00000000000E+00 0.  1.
          2    1    1    2  501    0 -0.17000721892E+02 -0.37972310657E+02  0.97409226857E+02  0.10592203925E+03  0.00000000000E+00 0. -1.
<scales pt_clust_5="13000.00000" pt_clust_6="13000.00000" pt_clust_7="13000.00000" pt_clust_8="13000.00000" pt_clust_9="41.60434"></scales>
<clustering>
<clus scale="   41.604">  1  9  2 -1</clus>
<clus scale="   91.036">  7  8 -1 -1</clus>
<clus scale="   91.468">  1  7  2 -1</clus>
<clus scale="   91.659">  5  6 -1 -1</clus>
<clus scale="   41.604">  1  5  2 -1</clus>
</clustering>
</event>
<event>
 9    1  0.1601012E-005  0.1219272E+03  0.7546771E-02  0.1239951E+00
         -1   -1    0    0    0  501 -0.00000000000E+00  0.00000000000E+00  0.40478068042E+03  0.40478068042E+03  0.00000000000E+00 0.  1.
         21   -1    0    0  501  502  0.00000000000E+00 -0.00000000000E+00 -0.12764308241E+03  0.12764308241E+03  0.00000000000E+00 0. -1.
         23    2    1    2    0    0 -0.82541671862E+02 -0.69245638360E+01  0.34267989254E+03  0.36391145437E+03  0.90227272431E+02 0.  0.
         23    2    1    2    0    0  0.71951511439E+02  0.37218963948E+02 -0.40618940554E+02  0.12787887704E+03  0.90226590235E+02 0.  0.
        -13    1    4    4    0    0  0.37316621062E+02  0.59563265445E+02 -0.39692606278E+00  0.70288479484E+02  0.00000000000E+00 0.  1.
         13    1    4    4    0    0  0.34634890378E+02 -0.22344301497E+02 -0.40222014491E+02  0.57590397555E+02  0.00000000000E+00 0. -1.
        -13    1    3    3    0    0 -0.17578613295E+02 -0.40867117851E+02  0.84068221061E+02  0.95113588720E+02  0.00000000000E+00 0. -1.
         13    1    3    3    0    0 -0.64963058567E+02  0.33942554015E+02  0.25861167148E+03  0.26879786565E+03  0.00000000000E+00 0.  1.
         -1    1    1    2    0  502  0.10590160423E+02 -0.30294400111E+02 -0.24923353975E+02  0.40633431423E+02  0.00000000000E+00 0.  1.
<scales pt_clust_5="13000.00000" pt_clust_6="13000.00000" pt_clust_7="13000.00000" pt_clust_8="13000.00000" pt_clust_9="32.09209"></scales>
<clustering>
<clus scale="   32.092">  2  9  1 -1</clus>
<clus scale="   90.227">  5  6 -1 -1</clus>
<clus scale="   90.227">  7  8 -1 -1</clus>
<clus scale="  121.927">  2  5  1 -1</clus>
<clus scale="   32.092">  2  5  1 -1</clus>
</clustering>
</event>
<event>
 9    1  0.1601012E-005  0.1065334E+03  0.7546771E-02  0.1268045E+00
         21   -1    0    0  501  502  0.00000000000E+00  0.00000000000E+00  0.62757996602E+02  0.62757996602E+02  0.00000000000E+00 0. -1.
         -1   -1    0    0    0  501 -0.00000000000E+00 -0.00000000000E+00 -0.64638322672E+03  0.64638322672E+03  0.00000000000E+00 0.  1.
         23    2    1    2    0    0  0.40141613620E+02 -0.51016568102E+01 -0.30565757934E+03  0.32218710892E+03  0.93491183034E+02 0.  0.
         23    2    1    2    0    0 -0.60233880274E+02  0.20939127078E+02 -0.31939447161E+03  0.33826421681E+03  0.91341581477E+02 0.  0.
        -11    1    3    3    0    0  0.54414535408E+02  0.26272155679E+02 -0.24576923443E+03  0.25308829373E+03  0.00000000000E+00 0.  1.
         11    1    3    3    0    0 -0.14272921789E+02 -0.31373812489E+02 -0.59888344905E+02  0.69098815199E+02  0.00000000000E+00 0. -1.
        -11    1    4    4    0    0 -0.53635004899E+02 -0.28691698874E+02 -0.15904231419E+03  0.17027737676E+03  0.00000000000E+00 0. -1.
         11    1    4    4    0    0 -0.65988753749E+01  0.49630825952E+02 -0.16035215742E+03  0.16798684005E+03  0.00000000000E+00 0.  1.
         -1    1    1    2    0  502  0.20092266654E+02 -0.15837470268E+02  0.41426820823E+02  0.48689897589E+02  0.00000000000E+00 0.  1.
<scales pt_clust_5="13000.00000" pt_clust_6="13000.00000" pt_clust_7="13000.00000" pt_clust_8="13000.00000" pt_clust_9="25.58368"></scales>
<clustering>
<clus scale="   25.584">  1  9  2 -1</clus>
<clus scale="   91.342">  7  8 -1 -1</clus>
<clus scale="   93.491">  5  6 -1 -1</clus>
<clus scale="  104.652">  1  7  2 -1</clus>
<clus scale="   25.584">  1  5  2 -1</clus>
</clustering>
</event>
<event>
 9    1  0.1601012E-005  0.1949109E+03  0.7546771E-02  0.1154133E+00
          1   -1    0    0  502    0 -0.00000000000E+00  0.00000000000E+00  0.78200026356E+03  0.78200026356E+03  0.00000000000E+00 0. -1.
         21   -1    0    0  501  502  0.00000000000E+00 -0.00000000000E+00 -0.14659070985E+03  0.14659070985E+03  0.00000000000E+00 0. -1.
         23    2    1    2    0    0  0.25025856693E+02  0.15804387595E+03  0.45504999377E+03  0.49096506786E+03  0.91498856846E+02 0.  0.
         23    2    1    2    0    0 -0.49088032188E+02 -0.19252890682E+03  0.26465415643E+03  0.34342513782E+03  0.91771389369E+02 0.  0.
        -11    1    3    3    0    0  0.17580933478E+01  0.15961729719E+03  0.37434521312E+03  0.40695836524E+03  0.00000000000E+00 0. -1.
         11    1    3    3    0    0  0.23267763345E+02 -0.15734212430E+01  0.80704780650E+02  0.84006702621E+02  0.00000000000E+00 0.  1.
        -13    1    4    4    0    0 -0.79491609598E+01 -0.17019324013E+03  0.22393594648E+03  0.28138272206E+03  0.00000000000E+00 0.  1.
         13    1    4    4    0    0 -0.41138871228E+02 -0.22335666690E+02  0.40718209946E+02  0.62042415762E+02  0.00000000000E+00 0. -1.
          1    1    1    2  501    0  0.24062175495E+02  0.34485030875E+02 -0.84294596483E+02  0.94200767727E+02  0.00000000000E+00 0. -1.
<scales pt_clust_5="13000.00000" pt_clust_6="13000.00000" pt_clust_7="13000.00000" pt_clust_8="13000.00000" pt_clust_9="42.05004"></scales>
<clustering>
<clus scale="   42.050">  2  9  1 -1</clus>
<clus scale="   91.499">  5  6 -1 -1</clus>
<clus scale="   91.771">  7  8 -1 -1</clus>
<clus scale="  194.783">  1  5  2 -1</clus>
<clus scale="   42.050">  2  5  1 -1</clus>
</clustering>
</event>
<event>
 9    1  0.1601012E-005  0.1211644E+03  0.7546771E-02  0.1242175E+00
         21   -1    0    0  501  502  0.00000000000E+00  0.00000000000E+00  0.33984183236E+03  0.33984183236E+03  0.00000000000E+00 0. -1.
          1   -1    0    0  502    0 -0.00000000000E+00 -0.00000000000E+00 -0.74444006611E+03  0.74444006611E+03  0.00000000000E+00 0. -1.
         23    2    1    2    0    0 -0.13116075485E+02 -0.68479157308E+02 -0.50068491970E+03  0.51399477991E+03  0.92972138504E+02 0.  0.
         23    2    1    2    0    0 -0.68600287601E+02  0.11770244176E+03 -0.20062891540E+03  0.25861318027E+03  0.89827340252E+02 0.  0.
        -13    1    3    3    0    0  0.33203821281E+02 -0.67035570437E-01 -0.16329474777E+03  0.16663634925E+03  0.00000000000E+00 0.  1.
         13    1    3    3    0    0 -0.46319896766E+02 -0.68412121737E+02 -0.33739017193E+03  0.34735843066E+03  0.00000000000E+00 0. -1.
        -13    1    4    4    0    0 -0.85132326970E+02  0.96610953565E+02 -0.12958977525E+03  0.18268743606E+03  0.00000000000E+00 0. -1.
         13    1    4    4    0    0  0.16532039369E+02  0.21091488190E+02 -0.71039140151E+02  0.75925744206E+02  0.00000000000E+00 0.  1.
          1    1    1    2  501    0  0.81716363086E+02 -0.49223284447E+02  0.29671560135E+03  0.31167393830E+03  0.00000000000E+00 0. -1.
<scales pt_clust_5="13000.00000" pt_clust_6="13000.00000" pt_clust_7="13000.00000" pt_clust_8="13000.00000" pt_clust_9="95.39652"></scales>
<clustering>
<clus scale="   89.827">  7  8 -1 -1</clus>
<clus scale="   92.972">  5  6 -1 -1</clus>
<clus scale="   95.397">  1  9  2 -1</clus>
<clus scale="  118.768">  1  7  2 -1</clus>
<clus scale="   95.397">  1  5  2 -1</clus>
</clustering>
</event>
<event>
 9    1  0.1601012E-005  0.1025459E+03  0.7546771E-02  0.1276985E+00
          3   -1    0    0  502    0 -0.00000000000E+00  0.00000000000E+00  0.12443386013E+03  0.12443386013E+03  0.00000000000E+00 0. -1.
         21   -1    0    0  501  502  0.00000000000E+00 -0.00000000000E+00 -0.10477213720E+03  0.10477213720E+03  0.00000000000E+00 0.  1.
         23    2    1    2    0    0 -0.25713881825E+02 -0.45385834189E+02  0.29234601381E+02  0.10726632895E+03  0.89052376414E+02 0.  0.
         23    2    1    2    0    0  0.13330094124E+02  0.26015455046E+02 -0.13498220357E+02  0.98616330395E+02  0.93212034401E+02 0.  0.
        -11    1    4    4    0    0  0.46658497248E+02 -0.84764818929E+01  0.39300092261E+01  0.47584777852E+02  0.00000000000E+00 0.  1.
         11    1    4    4    0    0 -0.33328403124E+02  0.34491936939E+02 -0.17428229583E+02  0.51031552543E+02  0.00000000000E+00 0. -1.
        -13    1    3    3    0    0  0.24915561331E+01 -0.58895846142E+02 -0.70446706893E+01  0.59367970572E+02  0.00000000000E+00 0.  1.
         13    1    3    3    0    0 -0.28205437958E+02  0.13510011953E+02  0.36279272071E+02  0.47898358379E+02  0.00000000000E+00 0. -1.
          3    1    1    2  501    0  0.12383787701E+02  0.19370379142E+02  0.39253419089E+01  0.23323337991E+02  0.00000000000E+00 0. -1.
<scales pt_clust_5="13000.00000" pt_clust_6="13000.00000" pt_clust_7="13000.00000" pt_clust_8="13000.00000" pt_clust_9="22.99066"></scales>
<clustering>
<clus scale="   22.991">  2  9  1 -1</clus>
<clus scale="   89.052">  7  8 -1 -1</clus>
<clus scale="   93.212">  5  6 -1 -1</clus>
<clus scale="   98.780">  1  7  2 -1</clus>
<clus scale="   22.991">  2  5  1 -1</clus>
</clustering>
</event>
<event>
 9    1  0.1601012E-005  0.1083500E+03  0.7546771E-02  0.1264134E+00
         21   -1    0    0  501  502  0.00000000000E+00  0.00000000000E+00  0.74602540449E+02  0.74602540449E+02  0.00000000000E+00 0.  1.
          1   -1    0    0  502    0 -0.00000000000E+00 -0.00000000000E+00 -0.67679289643E+03  0.67679289643E+03  0.00000000000E+00 0. -1.
         23    2    1    2    0    0  0.62031930178E+02 -0.21575695916E+02 -0.35441346853E+03  0.37203858239E+03  0.92142981799E+02 0.  0.
         23    2    1    2    0    0 -0.37029108972E+02  0.34944216932E+02 -0.30128164101E+03  0.31880425689E+03  0.90957538395E+02 0.  0.
        -13    1    3    3    0    0  0.16454415490E+02 -0.53457897833E+02 -0.14652416639E+03  0.15683694070E+03  0.00000000000E+00 0.  1.
         13    1    3    3    0    0  0.45577514688E+02  0.31882201917E+02 -0.20788930214E+03  0.21520164170E+03  0.00000000000E+00 0. -1.
        -13    1    4    4    0    0  0.26370438690E+02  0.64238892067E+01 -0.14836037182E+03  0.15082263197E+03  0.00000000000E+00 0. -1.
         13    1    4    4    0    0 -0.63399547662E+02  0.28520327725E+02 -0.15292126920E+03  0.16798162492E+03  0.00000000000E+00 0.  1.
          1    1    1    2  501    0 -0.25002821206E+02 -0.13368521016E+02  0.53504753562E+02  0.60552597601E+02  0.00000000000E+00 0. -1.
<scales pt_clust_5="13000.00000" pt_clust_6="13000.00000" pt_clust_7="13000.00000" pt_clust_8="13000.00000" pt_clust_9="28.35240"></scales>
<clustering>
<clus scale="   28.352">  1  9  2 -1</clus>
<clus scale="   90.958">  7  8 -1 -1</clus>
<clus scale="   92.143">  5  6 -1 -1</clus>
<clus scale="  107.344">  1  7  2 -1</clus>
<clus scale="   28.352">  1  5  2 -1</clus>
</clustering>
</event>
<event>
 9    1  0.1601012E-005  0.1028925E+03  0.7546771E-02  0.1274555E+00
          1   -1    0    0  502    0 -0.00000000000E+00  0.00000000000E+00  0.17735143887E+03  0.17735143887E+03  0.00000000000E+00 0. -1.
         21   -1    0    0  501  502  0.00000000000E+00 -0.00000000000E+00 -0.87881459229E+02  0.87881459229E+02  0.00000000000E+00 0.  1.
         23    2    1    2    0    0  0.25163755523E+02  0.39529501125E+02  0.58318502649E+02  0.11956916466E+03  0.93273476048E+02 0.  0.
         23    2    1    2    0    0 -0.34598620273E+02 -0.20496834585E+02  0.53187535687E+02  0.11505577775E+03  0.93764243128E+02 0.  0.
        -11    1    4    4    0    0  0.98587569974E+01  0.19658957484E+02  0.50507664096E+02  0.55088055251E+02  0.00000000000E+00 0. -1.
         11    1    4    4    0    0 -0.44457377271E+02 -0.40155792070E+02  0.26798715910E+01  0.59967722504E+02  0.00000000000E+00 0.  1.
        -13    1    3    3    0    0 -0.15685978731E+02  0.36121752026E+02 -0.93295882798E+01  0.40470632755E+02  0.00000000000E+00 0. -1.
         13    1    3    3    0    0  0.40849734254E+02  0.34077490993E+01  0.67648090929E+02  0.79098531901E+02  0.00000000000E+00 0.  1.
          1    1    1    2  501    0  0.94348647501E+01 -0.19032666540E+02 -0.22036058696E+02  0.30607955687E+02  0.00000000000E+00 0. -1.
<scales pt_clust_5="13000.00000" pt_clust_6="13000.00000" pt_clust_7="13000.00000" pt_clust_8="13000.00000" pt_clust_9="21.24286"></scales>
<clustering>
<clus scale="   21.243">  2  9  1 -1</clus>
<clus scale="   93.273">  7  8 -1 -1</clus>
<clus scale="   93.764">  5  6 -1 -1</clus>
<clus scale="  102.445">  1  7  2 -1</clus>
<clus scale="   21.243">  2  5  1 -1</clus>
</clustering>
</event>
<event>
 9    1  0.1601012E-005  0.1396941E+03  0.7546771E-02  0.1219672E+00
         21   -1    0    0  501  502  0.00000000000E+00  0.00000000000E+00  0.22131390463E+03  0.22131390463E+03  0.00000000000E+00 0.  1.
          2   -1    0    0  502    0 -0.00000000000E+00 -0.00000000000E+00 -0.10129934232E+03  0.10129934232E+03  0.00000000000E+00 0. -1.
         23    2    1    2    0    0  0.36157194636E+02 -0.70707925025E+02  0.50728959302E+02  0.14582756603E+03  0.11128925518E+03 0.  0.
         23    2    1    2    0    0 -0.62634119605E+02  0.67295700040E+02  0.75946340604E+02  0.14927138899E+03  0.89790627223E+02 0.  0.
        -11    1    3    3    0    0  0.15238543251E+02  0.27302556343E+02  0.30317299637E+02  0.43552054378E+02  0.00000000000E+00 0.  1.
         11    1    3    3    0    0  0.20918651385E+02 -0.98010481368E+02  0.20411659665E+02  0.10227551165E+03  0.00000000000E+00 0. -1.
        -11    1    4    4    0    0 -0.77201803621E+02  0.33881638289E+02  0.74947589279E+02  0.11280613917E+03  0.00000000000E+00 0.  1.
         11    1    4    4    0    0  0.14567684016E+02  0.33414061750E+02  0.99875132486E+00  0.36465249820E+02  0.00000000000E+00 0. -1.
          2    1    1    2  501    0  0.26476924969E+02  0.34122249857E+01 -0.66607376007E+01  0.27514291933E+02  0.00000000000E+00 0. -1.
<scales pt_clust_5="13000.00000" pt_clust_6="13000.00000" pt_clust_7="13000.00000" pt_clust_8="13000.00000" pt_clust_9="26.69591"></scales>
<clustering>
<clus scale="   26.696">  1  9  2 -1</clus>
<clus scale="   89.791">  7  8 -1 -1</clus>
<clus scale="  111.289">  5  6 -1 -1</clus>
<clus scale="  123.254">  1  7  2 -1</clus>
<clus scale="   26.696">  1  5  2 -1</clus>
</clustering>
</event>
<event>
 9    1  0.1601012E-005  0.9478696E+02  0.7546771E-02  0.1293110E+00
         21   -1    0    0  501  502  0.00000000000E+00  0.00000000000E+00  0.10589696225E+03  0.10589696225E+03  0.00000000000E+00 0. -1.
          2   -1    0    0  502    0 -0.00000000000E+00 -0.00000000000E+00 -0.17518370361E+03  0.17518370361E+03  0.00000000000E+00 0. -1.
         23    2    1    2    0    0  0.14793965885E+02 -0.20882308630E+02 -0.77645558834E+02  0.12143594848E+03  0.89793788964E+02 0.  0.
         23    2    1    2    0    0  0.36863573576E+02  0.21619499982E+02  0.25970752212E+02  0.10506243931E+03  0.92397566785E+02 0.  0.
        -13    1    3    3    0    0 -0.27609766826E+02  0.14097658501E+02 -0.67516256310E+01  0.31727395860E+02  0.00000000000E+00 0.  1.
         13    1    3    3    0    0  0.42403732711E+02 -0.34979967130E+02 -0.70893933203E+02  0.89708552620E+02  0.00000000000E+00 0. -1.
        -13    1    4    4    0    0  0.37969635219E+02 -0.26754203430E+02  0.31850826646E+02  0.56320118589E+02  0.00000000000E+00 0.  1.
         13    1    4    4    0    0 -0.11060616426E+01  0.48373703413E+02 -0.58800744345E+01  0.48742320724E+02  0.00000000000E+00 0. -1.
          2    1    1    2  501    0 -0.51657539461E+02 -0.73719135258E+00 -0.17611934737E+02  0.54582278071E+02  0.00000000000E+00 0. -1.
<scales pt_clust_5="13000.00000" pt_clust_6="13000.00000" pt_clust_7="13000.00000" pt_clust_8="13000.00000" pt_clust_9="51.66283"></scales>
<clustering>
<clus scale="   51.663">  1  9  2 -1</clus>
<clus scale="   89.794">  5  6 -1 -1</clus>
<clus scale="   92.251">  2  5  1 -1</clus>
<clus scale="   92.398">  7  8 -1 -1</clus>
<clus scale="   51.663">  1  5  2 -1</clus>
</clustering>
</event>
<event>
 9    1  0.1601012E-005  0.1211160E+03  0.7546771E-02  0.1241341E+00
          4   -1    0    0  502    0 -0.00000000000E+00  0.00000000000E+00  0.51477974917E+03  0.51477974917E+03  0.00000000000E+00 0. -1.
         21   -1    0    0  501  502  0.00000000000E+00 -0.00000000000E+00 -0.39272797227E+02  0.39272797227E+02  0.00000000000E+00 0.  1.
         23    2    1    2    0    0 -0.17444458146E+02 -0.72088731801E+02  0.22579167282E+03  0.25432870696E+03  0.90554499035E+02 0.  0.
         23    2    1    2    0    0  0.53505254770E+02  0.75653817226E+02  0.19006370329E+03  0.22992841418E+03  0.90313631260E+02 0.  0.
        -11    1    3    3    0    0 -0.34839375435E+02 -0.42502704029E+02  0.47123349525E+02  0.72393867150E+02  0.00000000000E+00 0.  1.
         11    1    3    3    0    0  0.17394917290E+02 -0.29586027772E+02  0.17866832329E+03  0.18193483981E+03  0.00000000000E+00 0. -1.
        -11    1    4    4    0    0  0.16378616717E+01  0.55945897393E+02  0.15373879619E+03  0.16361003478E+03  0.00000000000E+00 0.  1.
         11    1    4    4    0    0  0.51867393099E+02  0.19707919834E+02  0.36324907097E+02  0.66318379403E+02  0.00000000000E+00 0. -1.
          4    1    1    2  501    0 -0.36060796625E+02 -0.35650854250E+01  0.59651575837E+02  0.69795425259E+02  0.00000000000E+00 0. -1.
<scales pt_clust_5="13000.00000" pt_clust_6="13000.00000" pt_clust_7="13000.00000" pt_clust_8="13000.00000" pt_clust_9="36.23660"></scales>
<clustering>
<clus scale="   36.237">  2  9  1 -1</clus>
<clus scale="   90.314">  7  8 -1 -1</clus>
<clus scale="   90.554">  5  6 -1 -1</clus>
<clus scale="  120.936">  2  7  1 -1</clus>
<clus scale="   36.237">  2  5  1 -1</clus>
</clustering>
</event>
<event>
 9    1  0.1601012E-005  0.1015876E+03  0.7546771E-02  0.1277959E+00
         21   -1    0    0  501  502  0.00000000000E+00  0.00000000000E+00  0.13950738578E+03  0.13950738578E+03  0.00000000000E+00 0. -1.
         -1   -1    0    0    0  501 -0.00000000000E+00 -0.00000000000E+00 -0.97074720126E+02  0.97074720126E+02  0.00000000000E+00 0.  1.
         23    2    1    2    0    0  0.20227369005E+02 -0.35118068444E+02 -0.85820679554E+01  0.10160419469E+03  0.92775725818E+02 0.  0.
         23    2    1    2    0    0 -0.38961397185E+02  0.24164909840E+02  0.33333390822E+02  0.10698567339E+03  0.90735252409E+02 0.  0.
        -11    1    4    4    0    0  0.28902586765E+02  0.30385543191E+01  0.14841353444E+01  0.29099742125E+02  0.00000000000E+00 0.  1.
         11    1    4    4    0    0 -0.67863983950E+02  0.21126355521E+02  0.31849255478E+02  0.77885931269E+02  0.00000000000E+00 0. -1.
        -13    1    3    3    0    0  0.43304870783E+02 -0.14634626288E+02 -0.37644055391E+02  0.59216205775E+02  0.00000000000E+00 0.  1.
         13    1    3    3    0    0 -0.23077501778E+02 -0.20483442156E+02  0.29061987436E+02  0.42387988919E+02  0.00000000000E+00 0. -1.
         -1    1    1    2    0  502  0.18734028180E+02  0.10953158604E+02  0.17681342784E+02  0.27992237815E+02  0.00000000000E+00 0.  1.
<scales pt_clust_5="13000.00000" pt_clust_6="13000.00000" pt_clust_7="13000.00000" pt_clust_8="13000.00000" pt_clust_9="21.70105"></scales>
<clustering>
<clus scale="   21.701">  1  9  2 -1</clus>
<clus scale="   90.735">  5  6 -1 -1</clus>
<clus scale="   92.776">  7  8 -1 -1</clus>
<clus scale="   99.728">  1  5  2 -1</clus>
<clus scale="   21.701">  1  5  2 -1</clus>
</clustering>
</event>
<event>
 9    1  0.1601012E-005  0.9752645E+02  0.7546771E-02  0.1288527E+00
         21   -1    0    0  501  502  0.00000000000E+00  0.00000000000E+00  0.46658190247E+02  0.46658190247E+02  0.00000000000E+00 0.  1.
         -3   -1    0    0    0  501 -0.00000000000E+00 -0.00000000000E+00 -0.50615207886E+03  0.50615207886E+03  0.00000000000E+00 0.  1.
         23    2    1    2    0    0  0.74324724207E+01  0.28135416599E+02 -0.26293547872E+03  0.27928658277E+03  0.89549349708E+02 0.  0.
         23    2    1    2    0    0  0.17959090277E+02 -0.14020279520E+02 -0.21702911633E+03  0.23798471656E+03  0.94952571414E+02 0.  0.
        -11    1    4    4    0    0  0.54353457316E+02 -0.77191177741E+01 -0.16704125421E+03  0.17583135019E+03  0.00000000000E+00 0.  1.
         11    1    4    4    0    0 -0.36394367039E+02 -0.63011617454E+01 -0.49987862125E+02  0.62153366372E+02  0.00000000000E+00 0. -1.
        -13    1    3    3    0    0  0.29245792847E+02 -0.23864937743E+02 -0.10251008555E+03  0.10923904656E+03  0.00000000000E+00 0. -1.
         13    1    3    3    0    0 -0.21813320427E+02  0.52000354342E+02 -0.16042539316E+03  0.17004753621E+03  0.00000000000E+00 0.  1.
         -3    1    1    2    0  502 -0.25391562697E+02 -0.14115137080E+02  0.20470706437E+02  0.35538969780E+02  0.00000000000E+00 0.  1.
<scales pt_clust_5="13000.00000" pt_clust_6="13000.00000" pt_clust_7="13000.00000" pt_clust_8="13000.00000" pt_clust_9="29.05114"></scales>
<clustering>
<clus scale="   29.051">  1  9  2 -1</clus>
<clus scale="   89.549">  7  8 -1 -1</clus>
<clus scale="   92.274">  2  7  1 -1</clus>
<clus scale="   94.953">  5  6 -1 -1</clus>
<clus scale="   29.051">  1  5  2 -1</clus>
</clustering>
</event>
<event>
 9    1  0.1601012E-005  0.1406701E+03  0.7546771E-02  0.1232307E+00
         -2   -1    0    0    0  501 -0.00000000000E+00  0.00000000000E+00  0.67959214373E+02  0.67959214373E+02  0.00000000000E+00 0.  1.
         21   -1    0    0  501  502  0.00000000000E+00 -0.00000000000E+00 -0.47454783030E+03  0.47454783030E+03  0.00000000000E+00 0.  1.
         23    2    1    2    0    0  0.23596102311E+02 -0.95824066515E+01 -0.38941099093E+02  0.10065999336E+03  0.89260441980E+02 0.  0.
         23    2    1    2    0    0 -0.17741192280E+02 -0.97390383623E+02 -0.21077593545E+03  0.25188349987E+03  0.96016487220E+02 0.  0.
        -13    1    4    4    0    0 -0.45204368146E+02 -0.99882938940E+02 -0.17794168303E+03  0.20900545197E+03  0.00000000000E+00 0.  1.
         13    1    4    4    0    0  0.27463175865E+02  0.24925553168E+01 -0.32834252414E+02  0.42878047906E+02  0.00000000000E+00 0. -1.
        -13    1    3    3    0    0 -0.47581738687E+01  0.37482941584E+02 -0.18079991175E+02  0.41886718769E+02  0.00000000000E+00 0.  1.
         13    1    3    3    0    0  0.28354276180E+02 -0.47065348235E+02 -0.20861107918E+02  0.58773274588E+02  0.00000000000E+00 0. -1.
         -2    1    1    2    0  502 -0.58549100307E+01  0.10697279027E+03 -0.15687158139E+03  0.18996355145E+03  0.00000000000E+00 0.  1.
<scales pt_clust_5="13000.00000" pt_clust_6="13000.00000" pt_clust_7="13000.00000" pt_clust_8="13000.00000" pt_clust_9="102.80528"></scales>
<clustering>
<clus scale="   89.260">  7  8 -1 -1</clus>
<clus scale="   92.823">  1  7  2 -1</clus>
<clus scale="   96.016">  5  6 -1 -1</clus>
<clus scale="  102.805">  2  9  1 -1</clus>
<clus scale="  102.805">  2  5  1 -1</clus>
</clustering>
</event>
<event>
 9    1  0.1601012E-005  0.1198439E+03  0.7546771E-02  0.1246575E+00
         21   -1    0    0  501  502  0.00000000000E+00  0.00000000000E+00  0.61395164669E+02  0.61395164669E+02  0.00000000000E+00 0. -1.
          2   -1    0    0  502    0 -0.00000000000E+00 -0.00000000000E+00 -0.70281550169E+03  0.70281550169E+03  0.00000000000E+00 0. -1.
         23    2    1    2    0    0  0.52322018538E+02  0.66778744735E+02 -0.48752079040E+03  0.50263423542E+03  0.88134324621E+02 0.  0.
         23    2    1    2    0    0 -0.39601340014E+01 -0.44643108109E+02 -0.17422211641E+03  0.20463905194E+03  0.97545404662E+02 0.  0.
        -11    1    4    4    0    0  0.33739581294E+02 -0.22791890898E+02 -0.14862726029E+03  0.15410351111E+03  0.00000000000E+00 0. -1.
         11    1    4    4    0    0 -0.37699715295E+02 -0.21851217211E+02 -0.25594856119E+02  0.50535540827E+02  0.00000000000E+00 0.  1.
        -13    1    3    3    0    0  0.63007672955E+02  0.35340494335E+02 -0.43155239509E+03  0.43755729579E+03  0.00000000000E+00 0. -1.
         13    1    3    3    0    0 -0.10685654417E+02  0.31438250400E+02 -0.55968395303E+02  0.65076939628E+02  0.00000000000E+00 0.  1.
          2    1    1    2  501    0 -0.48361884537E+02 -0.22135636626E+02  0.20322569781E+02  0.56937378999E+02  0.00000000000E+00 0. -1.
<scales pt_clust_5="13000.00000" pt_clust_6="13000.00000" pt_clust_7="13000.00000" pt_clust_8="13000.00000" pt_clust_9="53.18701"></scales>
<clustering>
<clus scale="   53.187">  1  9  2 -1</clus>
<clus scale="   88.134">  7  8 -1 -1</clus>
<clus scale="   97.545">  5  6 -1 -1</clus>
<clus scale="  112.317">  2  7  1 -1</clus>
<clus scale="   53.187">  1  5  2 -1</clus>
</clustering>
</event>
<event>
 9    1  0.1601012E-005  0.1285302E+03  0.7546771E-02  0.1230248E+00
         -1   -1    0    0    0  501 -0.00000000000E+00  0.00000000000E+00  0.50532681973E+03  0.50532681973E+03  0.00000000000E+00 0.  1.
         21   -1    0    0  501  502  0.00000000000E+00 -0.00000000000E+00 -0.27727428114E+03  0.27727428114E+03  0.00000000000E+00 0.  1.
         23    2    1    2    0    0 -0.62194754074E+02  0.60885979141E+02  0.39576661328E+03  0.41586761785E+03  0.93484616397E+02 0.  0.
         23    2    1    2    0    0  0.29386461608E+02 -0.10085192019E+03  0.46203708919E+02  0.14665513642E+03  0.91314141233E+02 0.  0.
        -11    1    3    3    0    0  0.24903215801E+02  0.13995248482E+02  0.78369371797E+02  0.83413401640E+02  0.00000000000E+00 0. -1.
         11    1    3    3    0    0 -0.87097969875E+02  0.46890730658E+02  0.31739724148E+03  0.33245421621E+03  0.00000000000E+00 0.  1.
        -13    1    4    4    0    0  0.86454810054E+01 -0.11306995645E+03  0.46544975132E+02  0.12258056168E+03  0.00000000000E+00 0.  1.
         13    1    4    4    0    0  0.20740980603E+02  0.12218036254E+02 -0.34126621326E+00  0.24074574739E+02  0.00000000000E+00 0. -1.
         -1    1    1    2    0  502  0.32808292466E+02  0.39965941053E+02 -0.21391778360E+03  0.22007834659E+03  0.00000000000E+00 0.  1.
<scales pt_clust_5="13000.00000" pt_clust_6="13000.00000" pt_clust_7="13000.00000" pt_clust_8="13000.00000" pt_clust_9="51.70745"></scales>
<clustering>
<clus scale="   51.707">  2  9  1 -1</clus>
<clus scale="   91.314">  7  8 -1 -1</clus>
<clus scale="   93.485">  5  6 -1 -1</clus>
<clus scale="  126.960">  2  7  1 -1</clus>
<clus scale="   51.707">  2  5  1 -1</clus>
</clustering>
</event>
<event>
 9    1  0.1601012E-005  0.1978012E+03  0.7546771E-02  0.1152499E+00
         21   -1    0    0  501  502  0.00000000000E+00  0.00000000000E+00  0.66930839470E+02  0.66930839470E+02  0.00000000000E+00 0. -1.
         -1   -1    0    0    0  501 -0.00000000000E+00 -0.00000000000E+00 -0.70266491848E+03  0.70266491848E+03  0.00000000000E+00 0.  1.
         23    2    1    2    0    0  0.13479876031E+03  0.81162851754E+02 -0.27358629814E+03  0.32883853161E+03  0.92342856000E+02 0.  0.
         23    2    1    2    0    0 -0.16691391817E+03 -0.10212327025E+03 -0.31385770481E+03  0.37909156366E+03  0.83152488636E+02 0.  0.
        -13    1    4    4    0    0 -0.12646335178E+03 -0.62867021845E+02 -0.27929556430E+03  0.31297165050E+03  0.00000000000E+00 0. -1.
         13    1    4    4    0    0 -0.40450566390E+02 -0.39256248405E+02 -0.34562140511E+02  0.66119913164E+02  0.00000000000E+00 0.  1.
        -13    1    3    3    0    0  0.12399818476E+03  0.98983451504E+02 -0.25773806249E+03  0.30265852434E+03  0.00000000000E+00 0.  1.
         13    1    3    3    0    0  0.10800575549E+02 -0.17820599749E+02 -0.15848235645E+02  0.26180007270E+02  0.00000000000E+00 0. -1.
         -1    1    1    2    0  502  0.32115157863E+02  0.20960418496E+02 -0.48290076064E+02  0.61665662685E+02  0.00000000000E+00 0.  1.
<scales pt_clust_5="13000.00000" pt_clust_6="13000.00000" pt_clust_7="13000.00000" pt_clust_8="13000.00000" pt_clust_9="38.35000"></scales>
<clustering>
<clus scale="   38.350">  1  9  2 -1</clus>
<clus scale="   83.152">  5  6 -1 -1</clus>
<clus scale="   92.343">  7  8 -1 -1</clus>
<clus scale="  193.681">  1  5  2 -1</clus>
<clus scale="   38.350">  1  5  2 -1</clus>
</clustering>
</event>
<event>
 9    1  0.1601012E-005  0.1658370E+03  0.7546771E-02  0.1182702E+00
         21   -1    0    0  501  502  0.00000000000E+00  0.00000000000E+00  0.10484754061E+03  0.10484754061E+03  0.00000000000E+00 0.  1.
         -1   -1    0    0    0  501 -0.00000000000E+00 -0.00000000000E+00 -0.63901329835E+03  0.63901329835E+03  0.00000000000E+00 0.  1.
         23    2    1    2    0    0 -0.76678836411E+02 -0.61673380964E+02 -0.18144930893E+03  0.22582938139E+03  0.91606811496E+02 0.  0.
         23    2    1    2    0    0  0.10707902190E+03  0.17957090265E+03 -0.31923263188E+03  0.39175729992E+03  0.88615364226E+02 0.  0.
        -11    1    4    4    0    0  0.32479502784E+02  0.13775938533E+03 -0.19625611163E+03  0.24196906351E+03  0.00000000000E+00 0.  1.
         11    1    4    4    0    0  0.74599519116E+02  0.41811517321E+02 -0.12297652025E+03  0.14978823641E+03  0.00000000000E+00 0. -1.
        -13    1    3    3    0    0 -0.64039022817E+02  0.63331883769E+01 -0.10067910875E+03  0.11948802726E+03  0.00000000000E+00 0.  1.
         13    1    3    3    0    0 -0.12639813595E+02 -0.68006569341E+02 -0.80770200181E+02  0.10634135413E+03  0.00000000000E+00 0. -1.
         -1    1    1    2    0  502 -0.30400185489E+02 -0.11789752168E+03 -0.33483816926E+02  0.12627415766E+03  0.00000000000E+00 0.  1.
<scales pt_clust_5="13000.00000" pt_clust_6="13000.00000" pt_clust_7="13000.00000" pt_clust_8="13000.00000" pt_clust_9="121.75384"></scales>
<clustering>
<clus scale="   88.615">  5  6 -1 -1</clus>
<clus scale="   91.607">  7  8 -1 -1</clus>
<clus scale="  121.754">  1  9  2 -1</clus>
<clus scale="  164.203">  1  5  2 -1</clus>
<clus scale="  121.754">  1  5  2 -1</clus>
</clustering>
</event>
<event>
 9    1  0.1601012E-005  0.9230580E+02  0.7546771E-02  0.1298291E+00
         21   -1    0    0  501  502  0.00000000000E+00  0.00000000000E+00  0.68971571789E+03  0.68971571789E+03  0.00000000000E+00 0.  1.
          3   -1    0    0  502    0 -0.00000000000E+00 -0.00000000000E+00 -0.21723100042E+02  0.21723100042E+02  0.00000000000E+00 0. -1.
         23    2    1    2    0    0 -0.49330913913E+01  0.14907262719E+02  0.16235612238E+03  0.18685830697E+03  0.91158952045E+02 0.  0.
         23    2    1    2    0    0 -0.26500756573E+02 -0.84006511055E+01  0.25133816490E+03  0.26826417570E+03  0.89565248785E+02 0.  0.
        -11    1    4    4    0    0  0.50929418399E+01 -0.41701412473E+02  0.16743439449E+03  0.17262451250E+03  0.00000000000E+00 0. -1.
         11    1    4    4    0    0 -0.31593698413E+02  0.33300761368E+02  0.83903770415E+02  0.95639663199E+02  0.00000000000E+00 0.  1.
        -11    1    3    3    0    0 -0.26917332975E+02 -0.30446535972E+02  0.56297727623E+02  0.69433194530E+02  0.00000000000E+00 0. -1.
         11    1    3    3    0    0  0.21984241583E+02  0.45353798691E+02  0.10605839476E+03  0.11742511244E+03  0.00000000000E+00 0.  1.
          3    1    1    2  501    0  0.31433847965E+02 -0.65066116137E+01  0.25429833056E+03  0.25631633525E+03  0.00000000000E+00 0. -1.
<scales pt_clust_5="13000.00000" pt_clust_6="13000.00000" pt_clust_7="13000.00000" pt_clust_8="13000.00000" pt_clust_9="32.10020"></scales>
<clustering>
<clus scale="   32.100">  1  9  2 -1</clus>
<clus scale="   89.565">  5  6 -1 -1</clus>
<clus scale="   90.732">  1  5  2 -1</clus>
<clus scale="   91.159">  7  8 -1 -1</clus>
<clus scale="   32.100">  1  5  2 -1</clus>
</clustering>
</event>
<event>
 9    1  0.1601012E-005  0.3009243E+03  0.7546771E-02  0.1085481E+00
          1   -1    0    0  502    0 -0.00000000000E+00  0.00000000000E+00  0.60092744129E+03  0.60092744129E+03  0.00000000000E+00 0. -1.
         21   -1    0    0  501  502  0.00000000000E+00 -0.00000000000E+00 -0.23681309206E+03  0.23681309206E+03  0.00000000000E+00 0. -1.
         23    2    1    2    0    0  0.90988037580E+02 -0.30309385910E+03  0.27855631946E+03  0.43238641994E+03  0.96019178442E+02 0.  0.
         23    2    1    2    0    0 -0.11736551452E+03  0.22701437795E+03  0.14646349391E+03  0.30439206954E+03  0.76764478473E+02 0.  0.
        -13    1    3    3    0    0 -0.14474364459E+02 -0.24023441907E+02  0.47008796394E+02  0.54739929905E+02  0.00000000000E+00 0.  1.
         13    1    3    3    0    0  0.10546240204E+03 -0.27907041719E+03  0.23154752307E+03  0.37764649003E+03  0.00000000000E+00 0. -1.
        -13    1    4    4    0    0 -0.25708676863E+02  0.13287705667E+03  0.78677695482E+02  0.15654848458E+03  0.00000000000E+00 0.  1.
         13    1    4    4    0    0 -0.91656837659E+02  0.94137321278E+02  0.67785798429E+02  0.14784358497E+03  0.00000000000E+00 0. -1.
          1    1    1    2  501    0  0.26377476942E+02  0.76079481150E+02 -0.60905464139E+02  0.10096204388E+03  0.00000000000E+00 0. -1.
<scales pt_clust_5="13000.00000" pt_clust_6="13000.00000" pt_clust_7="13000.00000" pt_clust_8="13000.00000" pt_clust_9="80.52241"></scales>
<clustering>
<clus scale="   76.764">  7  8 -1 -1</clus>
<clus scale="   80.522">  2  9  1 -1</clus>
<clus scale="   96.019">  5  6 -1 -1</clus>
<clus scale="  295.345">  2  7  1 -1</clus>
<clus scale="   80.522">  2  5  1 -1</clus>
</clustering>
</event>
<event>
 9    1  0.1601012E-005  0.2808968E+03  0.7546771E-02  0.1114906E+00
          2   -1    0    0  502    0 -0.00000000000E+00  0.00000000000E+00  0.49815539388E+03  0.49815539388E+03  0.00000000000E+00 0. -1.
         21   -1    0    0  501  502  0.00000000000E+00 -0.00000000000E+00 -0.30357719482E+03  0.30357719482E+03  0.00000000000E+00 0. -1.
         23    2    1    2    0    0  0.14384453298E+03  0.42856247858E+01  0.12307090729E+03  0.20926947680E+03  0.89093487128E+02 0.  0.
         23    2    1    2    0    0 -0.29387080724E+02  0.25564718987E+03  0.13111721087E+03  0.30225815163E+03  0.89158179860E+02 0.  0.
        -11    1    3    3    0    0  0.63987322508E+02 -0.37029749478E+02  0.82045534738E+02  0.11044025334E+03  0.00000000000E+00 0. -1.
         11    1    3    3    0    0  0.79857210472E+02  0.41315374264E+02  0.41025372553E+02  0.98829223452E+02  0.00000000000E+00 0.  1.
        -13    1    4    4    0    0  0.68857989193E+01  0.18691128448E+03  0.12357343773E+03  0.22417322991E+03  0.00000000000E+00 0. -1.
         13    1    4    4    0    0 -0.36272879643E+02  0.68735905391E+02  0.75437731429E+01  0.78084921725E+02  0.00000000000E+00 0.  1.
          2    1    1    2  501    0 -0.11445745226E+03 -0.25993281466E+03 -0.59609919100E+02  0.29020496028E+03  0.00000000000E+00 0. -1.
<scales pt_clust_5="13000.00000" pt_clust_6="13000.00000" pt_clust_7="13000.00000" pt_clust_8="13000.00000" pt_clust_9="266.37165"></scales>
<clustering>
<clus scale="   89.093">  5  6 -1 -1</clus>
<clus scale="   89.158">  7  8 -1 -1</clus>
<clus scale="  169.255">  1  5  2 -1</clus>
<clus scale="  266.372">  2  9  1 -1</clus>
<clus scale="  266.372">  2  5  1 -1</clus>
</clustering>
</event>
<event>
 9    1  0.1601012E-005  0.1741437E+03  0.7546771E-02  0.1173631E+00
         21   -1    0    0  501  502  0.00000000000E+00  0.00000000000E+00  0.46884000504E+02  0.46884000504E+02  0.00000000000E+00 0.  1.
          2   -1    0    0  502    0 -0.00000000000E+00 -0.00000000000E+00 -0.13764677404E+04  0.13764677404E+04  0.00000000000E+00 0. -1.
         23    2    1    2    0    0 -0.14037605449E+03 -0.13912849029E+02 -0.53934386693E+03  0.56488605561E+03  0.91134214116E+02 0.  0.
         23    2    1    2    0    0  0.16538937604E+03 -0.73588300549E+02 -0.31434936227E+03  0.37395160335E+03  0.90859212005E+02 0.  0.
        -11    1    3    3    0    0 -0.22790290914E+02  0.26838547917E+02 -0.20767357308E+03  0.21063717139E+03  0.00000000000E+00 0.  1.
         11    1    3    3    0    0 -0.11758576357E+03 -0.40751396946E+02 -0.33167029385E+03  0.35424888422E+03  0.00000000000E+00 0. -1.
        -13    1    4    4    0    0  0.14826709489E+03 -0.90908720458E+02 -0.29654530760E+03  0.34378284766E+03  0.00000000000E+00 0.  1.
         13    1    4    4    0    0  0.17122281142E+02  0.17320419909E+02 -0.17804054663E+02  0.30168755689E+02  0.00000000000E+00 0. -1.
          2    1    1    2  501    0 -0.25013321548E+02  0.87501149578E+02 -0.47589051074E+03  0.48451408199E+03  0.00000000000E+00 0. -1.
<scales pt_clust_5="13000.00000" pt_clust_6="13000.00000" pt_clust_7="13000.00000" pt_clust_8="13000.00000" pt_clust_9="91.00619"></scales>
<clustering>
<clus scale="   90.859">  7  8 -1 -1</clus>
<clus scale="   91.006">  1  9  2 -1</clus>
<clus scale="   91.134">  5  6 -1 -1</clus>
<clus scale="  174.000">  1  7  2 -1</clus>
<clus scale="   91.006">  1  5  2 -1</clus>
</clustering>
</event>
<event>
 9    1  0.1601012E-005  0.1292293E+03  0.7546771E-02  0.1228665E+00
          1   -1    0    0  502    0 -0.00000000000E+00  0.00000000000E+00  0.43992971546E+03  0.43992971546E+03  0.00000000000E+00 0. -1.
         21   -1    0    0  501  502  0.00000000000E+00 -0.00000000000E+00 -0.65497629720E+02  0.65497629720E+02  0.00000000000E+00 0.  1.
         23    2    1    2    0    0 -0.22790315614E+02  0.11059345496E+03  0.25647282421E+03  0.29478122819E+03  0.91473231988E+02 0.  0.
         23    2    1    2    0    0  0.17008991753E+02 -0.63732412121E+02  0.11845723754E+03  0.16342716929E+03  0.91242514109E+02 0.  0.
        -11    1    3    3    0    0  0.24532445485E+02  0.64136466854E+02  0.75579910331E+02  0.10211586609E+03  0.00000000000E+00 0.  1.
         11    1    3    3    0    0 -0.47322761100E+02  0.46456988109E+02  0.18089291387E+03  0.19266536210E+03  0.00000000000E+00 0. -1.
        -11    1    4    4    0    0 -0.37615900059E+02 -0.24938782717E+02  0.40545841342E+02  0.60670125027E+02  0.00000000000E+00 0. -1.
         11    1    4    4    0    0  0.54624891812E+02 -0.38793629404E+02  0.77911396200E+02  0.10275704426E+03  0.00000000000E+00 0.  1.
          1    1    1    2  501    0  0.57813238612E+01 -0.46861042841E+02 -0.49797600766E+00  0.47218947700E+02  0.00000000000E+00 0. -1.
<scales pt_clust_5="13000.00000" pt_clust_6="13000.00000" pt_clust_7="13000.00000" pt_clust_8="13000.00000" pt_clust_9="47.21632"></scales>
<clustering>
<clus scale="   47.216">  2  9  1 -1</clus>
<clus scale="   91.243">  7  8 -1 -1</clus>
<clus scale="   91.473">  5  6 -1 -1</clus>
<clus scale="  129.066">  2  7  1 -1</clus>
<clus scale="   47.216">  2  5  1 -1</clus>
</clustering>
</event>
<event>
 9    1  0.1601012E-005  0.1028169E+03  0.7546771E-02  0.1276632E+00
          1   -1    0    0  502    0 -0.00000000000E+00  0.00000000000E+00  0.23749263885E+03  0.23749263885E+03  0.00000000000E+00 0. -1.
         21   -1    0    0  501  502  0.00000000000E+00 -0.00000000000E+00 -0.75920271086E+02  0.75920271086E+02  0.00000000000E+00 0.  1.
         23    2    1    2    0    0  0.22258132727E+02 -0.41160997529E+02  0.15361772782E+03  0.18685782789E+03  0.95539464896E+02 0.  0.
         23    2    1    2    0    0  0.18372374045E+01  0.18084339659E+02  0.79235812870E+01  0.93191629519E+02  0.91057552624E+02 0.  0.
        -11    1    4    4    0    0  0.15767298436E+02  0.43946146643E+02 -0.21688993485E+02  0.51480908530E+02  0.00000000000E+00 0.  1.
         11    1    4    4    0    0 -0.13930061032E+02 -0.25861806983E+02  0.29612574772E+02  0.41710720989E+02  0.00000000000E+00 0. -1.
        -11    1    3    3    0    0  0.47898342903E+02 -0.47325794316E+02  0.62038658483E+02  0.91557507648E+02  0.00000000000E+00 0.  1.
         11    1    3    3    0    0 -0.25640210176E+02  0.61647967872E+01  0.91579069333E+02  0.95300320237E+02  0.00000000000E+00 0. -1.
          1    1    1    2  501    0 -0.24095370132E+02  0.23076657869E+02  0.31058659835E-01  0.33363452532E+02  0.00000000000E+00 0. -1.
<scales pt_clust_5="13000.00000" pt_clust_6="13000.00000" pt_clust_7="13000.00000" pt_clust_8="13000.00000" pt_clust_9="33.36344"></scales>
<clustering>
<clus scale="   33.363">  2  9  1 -1</clus>
<clus scale="   91.058">  5  6 -1 -1</clus>
<clus scale="   95.539">  7  8 -1 -1</clus>
<clus scale="   98.666">  2  5  1 -1</clus>
<clus scale="   33.363">  2  5  1 -1</clus>
</clustering>
</event>
<event>
 9    1  0.1601012E-005  0.1070028E+03  0.7546771E-02  0.1266388E+00
         21   -1    0    0  501  502  0.00000000000E+00  0.00000000000E+00  0.25522088094E+03  0.25522088094E+03  0.00000000000E+00 0. -1.
          2   -1    0    0  502    0 -0.00000000000E+00 -0.00000000000E+00 -0.53758252312E+03  0.53758252312E+03  0.00000000000E+00 0. -1.
         23    2    1    2    0    0 -0.39762334085E+02 -0.13934746140E+02 -0.24946813691E+03  0.26903576420E+03  0.91491369657E+02 0.  0.
         23    2    1    2    0    0  0.48814986193E+02  0.58487996360E+02 -0.26320804432E+03  0.28900876461E+03  0.91890384870E+02 0.  0.
        -13    1    4    4    0    0  0.50306697329E+02 -0.89893599284E+01 -0.97460159351E+02  0.11004569528E+03  0.00000000000E+00 0.  1.
         13    1    4    4    0    0 -0.14917111360E+01  0.67477356289E+02 -0.16574788497E+03  0.17896306933E+03  0.00000000000E+00 0. -1.
        -13    1    3    3    0    0 -0.64328071402E+02  0.64244254458E+01 -0.12736325884E+03  0.14283127709E+03  0.00000000000E+00 0. -1.
         13    1    3    3    0    0  0.24565737317E+02 -0.20359171586E+02 -0.12210487807E+03  0.12620448711E+03  0.00000000000E+00 0.  1.
          2    1    1    2  501    0 -0.90526521080E+01 -0.44553250220E+02  0.23031453905E+03  0.23475887526E+03  0.00000000000E+00 0. -1.
<scales pt_clust_5="13000.00000" pt_clust_6="13000.00000" pt_clust_7="13000.00000" pt_clust_8="13000.00000" pt_clust_9="45.46364"></scales>
<clustering>
<clus scale="   45.464">  1  9  2 -1</clus>
<clus scale="   91.491">  7  8 -1 -1</clus>
<clus scale="   91.890">  5  6 -1 -1</clus>
<clus scale="  106.660">  2  7  1 -1</clus>
<clus scale="   45.464">  1  5  2 -1</clus>
</clustering>
</event>
<event>
 9    1  0.1601012E-005  0.1037125E+03  0.7546771E-02  0.1273439E+00
          1   -1    0    0  502    0 -0.00000000000E+00  0.00000000000E+00  0.35059121427E+03  0.35059121427E+03  0.00000000000E+00 0. -1.
         21   -1    0    0  501  502  0.00000000000E+00 -0.00000000000E+00 -0.12689501562E+03  0.12689501562E+03  0.00000000000E+00 0. -1.
         23    2    1    2    0    0  0.41647736010E+02 -0.29762690109E+02  0.20114840348E+03  0.22693979968E+03  0.91764049710E+02 0.  0.
         23    2    1    2    0    0 -0.14138607478E+02  0.37766935299E+02  0.11511125611E+03  0.15365053559E+03  0.93443267179E+02 0.  0.
        -11    1    3    3    0    0 -0.55450217233E+01 -0.38383644867E+02  0.15708312116E+03  0.16179974787E+03  0.00000000000E+00 0.  1.
         11    1    3    3    0    0  0.47192757733E+02  0.86209547583E+01  0.44065282325E+02  0.65140051810E+02  0.00000000000E+00 0. -1.
        -11    1    4    4    0    0 -0.31625465651E+02  0.52689496870E+02  0.35898015568E+02  0.71168958681E+02  0.00000000000E+00 0.  1.
         11    1    4    4    0    0  0.17486858173E+02 -0.14922561570E+02  0.79213240541E+02  0.82481576910E+02  0.00000000000E+00 0. -1.
          1    1    1    2  501    0 -0.27509128532E+02 -0.80042451905E+01 -0.92563460933E+02  0.96895894617E+02  0.00000000000E+00 0. -1.
<scales pt_clust_5="13000.00000" pt_clust_6="13000.00000" pt_clust_7="13000.00000" pt_clust_8="13000.00000" pt_clust_9="28.64996"></scales>
<clustering>
<clus scale="   28.650">  2  9  1 -1</clus>
<clus scale="   91.764">  5  6 -1 -1</clus>
<clus scale="   93.443">  7  8 -1 -1</clus>
<clus scale="  102.202">  1  5  2 -1</clus>
<clus scale="   28.650">  2  5  1 -1</clus>
</clustering>
</event>
<event>
 9    1  0.1601012E-005  0.1697178E+03  0.7546771E-02  0.1178426E+00
         21   -1    0    0  501  502  0.00000000000E+00  0.00000000000E+00  0.34311182958E+02  0.34311182958E+02  0.00000000000E+00 0.  1.
          2   -1    0    0  502    0 -0.00000000000E+00 -0.00000000000E+00 -0.14667709400E+04  0.14667709400E+04  0.00000000000E+00 0. -1.
         23    2    1    2    0    0 -0.57383591950E+02 -0.12587386710E+03 -0.81458677454E+03  0.83113920483E+03  0.90020317154E+02 0.  0.
         23    2    1    2    0    0  0.10131488520E+03  0.12267578294E+03 -0.32164667824E+03  0.37045968053E+03  0.92031166412E+02 0.  0.
        -11    1    4    4    0    0  0.49032473551E+02  0.11917384767E+03 -0.25469855646E+03  0.28544341662E+03  0.00000000000E+00 0.  1.
         11    1    4    4    0    0  0.52282411651E+02  0.35019352714E+01 -0.66948121786E+02  0.85016263911E+02  0.00000000000E+00 0. -1.
        -11    1    3    3    0    0 -0.51130611982E+02 -0.14821286576E+02 -0.29738553311E+03  0.30211283542E+03  0.00000000000E+00 0. -1.
         11    1    3    3    0    0 -0.62529799685E+01 -0.11105258052E+03 -0.51720124143E+03  0.52902636941E+03  0.00000000000E+00 0.  1.
          2    1    1    2  501    0 -0.43931293252E+02  0.31980841600E+01 -0.29622630430E+03  0.29948323764E+03  0.00000000000E+00 0. -1.
<scales pt_clust_5="13000.00000" pt_clust_6="13000.00000" pt_clust_7="13000.00000" pt_clust_8="13000.00000" pt_clust_9="44.04757"></scales>
<clustering>
<clus scale="   44.048">  1  9  2 -1</clus>
<clus scale="   90.020">  7  8 -1 -1</clus>
<clus scale="   92.031">  5  6 -1 -1</clus>
<clus scale="  168.636">  2  7  1 -1</clus>
<clus scale="   44.048">  1  5  2 -1</clus>
</clustering>
</event>
<event>
 9    1  0.1601012E-005  0.1011353E+03  0.7546771E-02  0.1287998E+00
         -1   -1    0    0    0  501 -0.00000000000E+00  0.00000000000E+00  0.10411382784E+03  0.10411382784E+03  0.00000000000E+00 0.  1.
         21   -1    0    0  501  502  0.00000000000E+00 -0.00000000000E+00 -0.14278941543E+03  0.14278941543E+03  0.00000000000E+00 0.  1.
         23    2    1    2    0    0 -0.54156985252E+02  0.16286882646E+02 -0.23097466671E+01  0.10832956061E+03  0.92367294935E+02 0.  0.
         23    2    1    2    0    0  0.77912252736E+01 -0.38052249880E+02 -0.24413702638E+02  0.85977404098E+02  0.72714566812E+02 0.  0.
        -13    1    3    3    0    0  0.23007836270E+02  0.59182648534E+01 -0.16849236972E+02  0.29125301290E+02  0.00000000000E+00 0. -1.
         13    1    3    3    0    0 -0.77164821523E+02  0.10368617792E+02  0.14539490305E+02  0.79204259317E+02  0.00000000000E+00 0.  1.
        -13    1    4    4    0    0  0.20254515473E+02  0.11224778988E+02 -0.26391048055E+02  0.35110233235E+02  0.00000000000E+00 0. -1.
         13    1    4    4    0    0 -0.12463290199E+02 -0.49277028868E+02  0.19773454174E+01  0.50867170862E+02  0.00000000000E+00 0.  1.
         -1    1    1    2    0  502  0.46365759979E+02  0.21765367234E+02 -0.11952138285E+02  0.52596278564E+02  0.00000000000E+00 0.  1.
<scales pt_clust_5="13000.00000" pt_clust_6="13000.00000" pt_clust_7="13000.00000" pt_clust_8="13000.00000" pt_clust_9="51.22026"></scales>
<clustering>
<clus scale="   51.220">  2  9  1 -1</clus>
<clus scale="   72.715">  7  8 -1 -1</clus>
<clus scale="   83.571">  2  7  1 -1</clus>
<clus scale="   92.367">  5  6 -1 -1</clus>
<clus scale="   51.220">  2  5  1 -1</clus>
</clustering>
</event>
<event>
 9    1  0.1601012E-005  0.1366636E+03  0.7546771E-02  0.1218662E+00
         21   -1    0    0  501  502  0.00000000000E+00  0.00000000000E+00  0.44839300011E+02  0.44839300011E+02  0.00000000000E+00 0.  1.
          2   -1    0    0  502    0 -0.00000000000E+00 -0.00000000000E+00 -0.62042250021E+03  0.62042250021E+03  0.00000000000E+00 0. -1.
         23    2    1    2    0    0  0.31472791103E+02 -0.98849384749E+02 -0.38608974589E+03  0.41131044613E+03  0.96691539278E+02 0.  0.
         23    2    1    2    0    0 -0.13112497381E+02  0.85391703870E+02 -0.19268794023E+03  0.23096409022E+03  0.93552594744E+02 0.  0.
        -11    1    3    3    0    0  0.57203266754E+02 -0.46970482871E+02 -0.13848476721E+03  0.15702379036E+03  0.00000000000E+00 0.  1.
         11    1    3    3    0    0 -0.25730475651E+02 -0.51878901877E+02 -0.24760497867E+03  0.25428665577E+03  0.00000000000E+00 0. -1.
        -11    1    4    4    0    0  0.36508011751E+02  0.35249992554E+02 -0.47335966928E+02  0.69398059498E+02  0.00000000000E+00 0.  1.
         11    1    4    4    0    0 -0.49620509131E+02  0.50141711316E+02 -0.14535197330E+03  0.16156603072E+03  0.00000000000E+00 0. -1.
          2    1    1    2  501    0 -0.18360293723E+02  0.13457680879E+02  0.31944859182E+01  0.22987263876E+02  0.00000000000E+00 0. -1.
<scales pt_clust_5="13000.00000" pt_clust_6="13000.00000" pt_clust_7="13000.00000" pt_clust_8="13000.00000" pt_clust_9="22.76422"></scales>
<clustering>
<clus scale="   22.764">  1  9  2 -1</clus>
<clus scale="   93.553">  7  8 -1 -1</clus>
<clus scale="   96.692">  5  6 -1 -1</clus>
<clus scale="  134.461">  1  7  2 -1</clus>
<clus scale="   22.764">  1  5  2 -1</clus>
</clustering>
</event>
<event>
 9    1  0.1601012E-005  0.1448207E+03  0.7546771E-02  0.1210073E+00
          1   -1    0    0  502    0 -0.00000000000E+00  0.00000000000E+00  0.81094068681E+02  0.81094068681E+02  0.00000000000E+00 0. -1.
         21   -1    0    0  501  502  0.00000000000E+00 -0.00000000000E+00 -0.36406015286E+03  0.36406015286E+03  0.00000000000E+00 0.  1.
         23    2    1    2    0    0 -0.98274552970E+02 -0.77325595847E+01 -0.88247479091E+02  0.16036079364E+03  0.90610630347E+02 0.  0.
         23    2    1    2    0    0  0.94423249650E+02  0.60250145818E+02 -0.16246063083E+03  0.22303983445E+03  0.10395903538E+03 0.  0.
        -11    1    3    3    0    0 -0.10069386686E+03 -0.32332431612E+02 -0.55814877960E+02  0.11958236307E+03  0.00000000000E+00 0. -1.
         11    1    3    3    0    0  0.24193138863E+01  0.24599872027E+02 -0.32432601131E+02  0.40778430567E+02  0.00000000000E+00 0.  1.
        -11    1    4    4    0    0  0.90985308047E+02  0.12585286263E+02 -0.14601139165E+03  0.17249939769E+03  0.00000000000E+00 0. -1.
         11    1    4    4    0    0  0.34379416028E+01  0.47664859555E+02 -0.16449239186E+02  0.50540436768E+02  0.00000000000E+00 0.  1.
          1    1    1    2  501    0  0.38513033198E+01 -0.52517586234E+02 -0.32257974259E+02  0.61753593453E+02  0.00000000000E+00 0. -1.
<scales pt_clust_5="13000.00000" pt_clust_6="13000.00000" pt_clust_7="13000.00000" pt_clust_8="13000.00000" pt_clust_9="52.65864"></scales>
<clustering>
<clus scale="   52.659">  2  9  1 -1</clus>
<clus scale="   90.611">  5  6 -1 -1</clus>
<clus scale="  103.959">  7  8 -1 -1</clus>
<clus scale="  135.558">  1  5  2 -1</clus>
<clus scale="   52.659">  2  5  1 -1</clus>
</clustering>
</event>
<event>
 9    1  0.1601012E-005  0.1031595E+03  0.7546771E-02  0.1274535E+00
          1   -1    0    0  502    0 -0.00000000000E+00  0.00000000000E+00  0.19933321307E+03  0.19933321307E+03  0.00000000000E+00 0. -1.
         21   -1    0    0  501  502  0.00000000000E+00 -0.00000000000E+00 -0.77350133997E+02  0.77350133997E+02  0.00000000000E+00 0.  1.
         23    2    1    2    0    0 -0.84818767350E+01  0.46700198948E+02  0.99003638769E+02  0.14158139671E+03  0.89390830576E+02 0.  0.
         23    2    1    2    0    0 -0.15209239491E+02 -0.52534394389E+02  0.81106098095E+01  0.10652942956E+03  0.91057969504E+02 0.  0.
        -11    1    3    3    0    0 -0.30474093118E+02  0.44257030646E+01  0.87215526708E+02  0.92492190470E+02  0.00000000000E+00 0. -1.
         11    1    3    3    0    0  0.21992216383E+02  0.42274495883E+02  0.11788112061E+02  0.49089206243E+02  0.00000000000E+00 0.  1.
        -11    1    4    4    0    0 -0.49992187682E+02 -0.12595464228E+02  0.13503431106E+02  0.53293594361E+02  0.00000000000E+00 0. -1.
         11    1    4    4    0    0  0.34782948191E+02 -0.39938930161E+02 -0.53928212966E+01  0.53235835194E+02  0.00000000000E+00 0.  1.
          1    1    1    2  501    0  0.23691116226E+02  0.58341954414E+01  0.14868830493E+02  0.28572520797E+02  0.00000000000E+00 0. -1.
<scales pt_clust_5="13000.00000" pt_clust_6="13000.00000" pt_clust_7="13000.00000" pt_clust_8="13000.00000" pt_clust_9="24.39892"></scales>
<clustering>
<clus scale="   24.399">  2  9  1 -1</clus>
<clus scale="   89.391">  5  6 -1 -1</clus>
<clus scale="   91.058">  7  8 -1 -1</clus>
<clus scale="  101.691">  1  5  2 -1</clus>
<clus scale="   24.399">  2  5  1 -1</clus>
</clustering>
</event>
<event>
 9    1  0.1601012E-005  0.1208212E+03  0.7546771E-02  0.1241871E+00
          2   -1    0    0  502    0 -0.00000000000E+00  0.00000000000E+00  0.44539166610E+03  0.44539166610E+03  0.00000000000E+00 0. -1.
         21   -1    0    0  501  502  0.00000000000E+00 -0.00000000000E+00 -0.72161043519E+02  0.72161043519E+02  0.00000000000E+00 0. -1.
         23    2    1    2    0    0 -0.51762060258E+02  0.63553659641E+02  0.35772032396E+03  0.37828711716E+03  0.91754750812E+02 0.  0.
         23    2    1    2    0    0  0.37214741986E+02 -0.43771284313E+02 -0.28125975312E+01  0.10862745665E+03  0.92147443169E+02 0.  0.
        -11    1    3    3    0    0 -0.11805426075E+02  0.68856602386E+02  0.29907308718E+03  0.30712426028E+03  0.00000000000E+00 0. -1.
         11    1    3    3    0    0 -0.39956634183E+02 -0.53029427453E+01  0.58647236785E+02  0.71162856882E+02  0.00000000000E+00 0.  1.
        -13    1    4    4    0    0  0.13068392348E+02 -0.54754961850E+02  0.32083167041E+02  0.64793659668E+02  0.00000000000E+00 0.  1.
         13    1    4    4    0    0  0.24146349638E+02  0.10983677537E+02 -0.34895764572E+02  0.43833796986E+02  0.00000000000E+00 0. -1.
          2    1    1    2  501    0  0.14547318272E+02 -0.19782375328E+02  0.18322896154E+02  0.30638135812E+02  0.00000000000E+00 0. -1.
<scales pt_clust_5="13000.00000" pt_clust_6="13000.00000" pt_clust_7="13000.00000" pt_clust_8="13000.00000" pt_clust_9="24.55538"></scales>
<clustering>
<clus scale="   24.555">  2  9  1 -1</clus>
<clus scale="   91.755">  5  6 -1 -1</clus>
<clus scale="   92.147">  7  8 -1 -1</clus>
<clus scale="  120.522">  1  5  2 -1</clus>
<clus scale="   24.555">  2  5  1 -1</clus>
</clustering>
</event>
<event>
 9    1  0.1601012E-005  0.9550871E+02  0.7546771E-02  0.1290387E+00
         21   -1    0    0  501  502  0.00000000000E+00  0.00000000000E+00  0.16877584738E+03  0.16877584738E+03  0.00000000000E+00 0.  1.
          4   -1    0    0  502    0 -0.00000000000E+00 -0.00000000000E+00 -0.74835655570E+02  0.74835655570E+02  0.00000000000E+00 0. -1.
         23    2    1    2    0    0  0.24301897398E+02 -0.33172499232E+02  0.12457495002E+02  0.97562600073E+02  0.87591522585E+02 0.  0.
         23    2    1    2    0    0 -0.32225603078E+02  0.10486408899E+02  0.51648012285E+02  0.10774025885E+03  0.88272260307E+02 0.  0.
        -11    1    3    3    0    0  0.28006126938E+02  0.59762921300E+00 -0.31404593459E+02  0.42082642468E+02  0.00000000000E+00 0. -1.
         11    1    3    3    0    0 -0.37042295402E+01 -0.33770128445E+02  0.43862088461E+02  0.55479957605E+02  0.00000000000E+00 0.  1.
        -13    1    4    4    0    0 -0.38918784946E+02 -0.18378732892E+02  0.62754769611E+02  0.76096062666E+02  0.00000000000E+00 0.  1.
         13    1    4    4    0    0  0.66931818677E+01  0.28865141791E+02 -0.11106757326E+02  0.31644196188E+02  0.00000000000E+00 0. -1.
          4    1    1    2  501    0  0.79237056804E+01  0.22686090334E+02  0.29834684525E+02  0.38308644025E+02  0.00000000000E+00 0. -1.
<scales pt_clust_5="13000.00000" pt_clust_6="13000.00000" pt_clust_7="13000.00000" pt_clust_8="13000.00000" pt_clust_9="24.03006"></scales>
<clustering>
<clus scale="   24.030">  1  9  2 -1</clus>
<clus scale="   87.592">  5  6 -1 -1</clus>
<clus scale="   88.272">  7  8 -1 -1</clus>
<clus scale="   94.880">  2  5  1 -1</clus>
<clus scale="   24.030">  1  5  2 -1</clus>
</clustering>
</event>
<event>
 9    1  0.1601012E-005  0.2334998E+03  0.7546771E-02  0.1124687E+00
          2   -1    0    0  502    0 -0.00000000000E+00  0.00000000000E+00  0.13289436898E+04  0.13289436898E+04  0.00000000000E+00 0. -1.
         21   -1    0    0  501  502  0.00000000000E+00 -0.00000000000E+00 -0.99412363854E+02  0.99412363854E+02  0.00000000000E+00 0. -1.
         23    2    1    2    0    0  0.14715989285E+03 -0.18154585744E+03  0.10948964128E+04  0.11241224755E+04  0.10118425121E+03 0.  0.
         23    2    1    2    0    0 -0.59851235904E+02  0.12352281352E+03  0.97076518001E+02  0.19287780487E+03  0.94540686289E+02 0.  0.
        -11    1    4    4    0    0 -0.58940877424E+02  0.27955259773E+02  0.64940320807E+02  0.92047644440E+02  0.00000000000E+00 0.  1.
         11    1    4    4    0    0 -0.91035847997E+00  0.95567553746E+02  0.32136197194E+02  0.10083016043E+03  0.00000000000E+00 0. -1.
        -11    1    3    3    0    0  0.78899541267E+02 -0.16683666818E+03  0.77013865913E+03  0.79194265307E+03  0.00000000000E+00 0. -1.
         11    1    3    3    0    0  0.68260351582E+02 -0.14709189258E+02  0.32475775371E+03  0.33217982245E+03  0.00000000000E+00 0.  1.
          2    1    1    2  501    0 -0.87308656946E+02  0.58023043919E+02  0.37558395140E+02  0.11135577331E+03  0.00000000000E+00 0. -1.
<scales pt_clust_5="13000.00000" pt_clust_6="13000.00000" pt_clust_7="13000.00000" pt_clust_8="13000.00000" pt_clust_9="104.83070"></scales>
<clustering>
<clus scale="   94.541">  5  6 -1 -1</clus>
<clus scale="  101.184">  7  8 -1 -1</clus>
<clus scale="  104.831">  2  9  1 -1</clus>
<clus scale="  230.699">  2  5  1 -1</clus>
<clus scale="  104.831">  2  5  1 -1</clus>
</clustering>
</event>
<event>
 9    1  0.1601012E-005  0.1277186E+03  0.7546771E-02  0.1238610E+00
         -4   -1    0    0    0  501 -0.00000000000E+00  0.00000000000E+00  0.64609948746E+02  0.64609948746E+02  0.00000000000E+00 0.  1.
         21   -1    0    0  501  502  0.00000000000E+00 -0.00000000000E+00 -0.51613276498E+03  0.51613276498E+03  0.00000000000E+00 0.  1.
         23    2    1    2    0    0  0.67035007257E+02  0.28662546073E+01 -0.51103514494E+02  0.14045090740E+03  0.11230752683E+03 0.  0.
         23    2    1    2    0    0 -0.45369654280E+02  0.42739981863E+02 -0.15657504303E+03  0.19127506224E+03  0.90472613305E+02 0.  0.
        -11    1    3    3    0    0  0.60639244668E+02 -0.48912298973E+02 -0.23213818990E+02  0.81292142159E+02  0.00000000000E+00 0.  1.
         11    1    3    3    0    0  0.63957625891E+01  0.51778553581E+02 -0.27889695504E+02  0.59158765245E+02  0.00000000000E+00 0. -1.
        -11    1    4    4    0    0 -0.36133825336E+02 -0.22372681897E+02 -0.77852918324E+02  0.88697616204E+02  0.00000000000E+00 0.  1.
         11    1    4    4    0    0 -0.92358289438E+01  0.65112663760E+02 -0.78722124704E+02  0.10257744604E+03  0.00000000000E+00 0. -1.
         -4    1    1    2    0  502 -0.21665352977E+02 -0.45606236470E+02 -0.24384425872E+03  0.24901674408E+03  0.00000000000E+00 0.  1.
<scales pt_clust_5="13000.00000" pt_clust_6="13000.00000" pt_clust_7="13000.00000" pt_clust_8="13000.00000" pt_clust_9="50.49075"></scales>
<clustering>
<clus scale="   50.491">  2  9  1 -1</clus>
<clus scale="   90.473">  7  8 -1 -1</clus>
<clus scale="  109.015">  2  7  1 -1</clus>
<clus scale="  112.308">  5  6 -1 -1</clus>
<clus scale="   50.491">  2  5  1 -1</clus>
</clustering>
</event>
<event>
 9    1  0.1601012E-005  0.1228437E+03  0.7546771E-02  0.1239646E+00
         21   -1    0    0  501  502  0.00000000000E+00  0.00000000000E+00  0.36755504590E+03  0.36755504590E+03  0.00000000000E+00 0.  1.
         -2   -1    0    0    0  501 -0.00000000000E+00 -0.00000000000E+00 -0.74175429584E+02  0.74175429584E+02  0.00000000000E+00 0.  1.
         23    2    1    2    0    0  0.30402446088E+02 -0.62288353297E+02  0.39818693557E+02  0.12381557365E+03  0.94554853057E+02 0.  0.
         23    2    1    2    0    0 -0.24751534577E+02  0.91823938689E+02  0.11054252254E+03  0.17176926760E+03  0.90778619848E+02 0.  0.
        -11    1    4    4    0    0  0.30930076680E+02  0.55408224797E+02  0.66855505007E+02  0.92175916422E+02  0.00000000000E+00 0.  1.
         11    1    4    4    0    0 -0.55681611257E+02  0.36415713892E+02  0.43687017529E+02  0.79593351174E+02  0.00000000000E+00 0. -1.
        -13    1    3    3    0    0  0.50566197002E+02 -0.62076408642E+02  0.56212325078E+02  0.97827635563E+02  0.00000000000E+00 0. -1.
         13    1    3    3    0    0 -0.20163750914E+02 -0.21194465526E+00 -0.16393631521E+02  0.25987938085E+02  0.00000000000E+00 0.  1.
         -2    1    1    2    0  502 -0.56509115111E+01 -0.29535585392E+02  0.14301840022E+03  0.14614563424E+03  0.00000000000E+00 0.  1.
<scales pt_clust_5="13000.00000" pt_clust_6="13000.00000" pt_clust_7="13000.00000" pt_clust_8="13000.00000" pt_clust_9="30.07131"></scales>
<clustering>
<clus scale="   30.071">  1  9  2 -1</clus>
<clus scale="   90.779">  5  6 -1 -1</clus>
<clus scale="   94.555">  7  8 -1 -1</clus>
<clus scale="  119.961">  1  5  2 -1</clus>
<clus scale="   30.071">  1  5  2 -1</clus>
</clustering>
</event>
<event>
 9    1  0.1601012E-005  0.1284640E+03  0.7546771E-02  0.1232575E+00
          1   -1    0    0  502    0 -0.00000000000E+00  0.00000000000E+00  0.87108529367E+03  0.87108529367E+03  0.00000000000E+00 0. -1.
         21   -1    0    0  501  502  0.00000000000E+00 -0.00000000000E+00 -0.35176312191E+02  0.35176312191E+02  0.00000000000E+00 0.  1.
         23    2    1    2    0    0  0.25502308122E+02 -0.40425573661E+02  0.52457346767E+03  0.53878109153E+03  0.11323933451E+03 0.  0.
         23    2    1    2    0    0 -0.48234316320E+02  0.86172348553E+02  0.22630061881E+03  0.26828149732E+03  0.10493221051E+03 0.  0.
        -13    1    4    4    0    0 -0.75995246395E+02  0.50485981036E+02  0.10652064974E+03  0.14025248866E+03  0.00000000000E+00 0.  1.
         13    1    4    4    0    0  0.27760930075E+02  0.35686367518E+02  0.11977996907E+03  0.12802900865E+03  0.00000000000E+00 0. -1.
        -13    1    3    3    0    0 -0.42006203804E+02 -0.11433900223E+01  0.24155222452E+03  0.24518014942E+03  0.00000000000E+00 0.  1.
         13    1    3    3    0    0  0.67508511926E+02 -0.39282183639E+02  0.28302124314E+03  0.29360094210E+03  0.00000000000E+00 0. -1.
          1    1    1    2  501    0  0.22732008199E+02 -0.45746774892E+02  0.85034895004E+02  0.99199017021E+02  0.00000000000E+00 0. -1.
<scales pt_clust_5="13000.00000" pt_clust_6="13000.00000" pt_clust_7="13000.00000" pt_clust_8="13000.00000" pt_clust_9="51.08338"></scales>
<clustering>
<clus scale="   51.083">  2  9  1 -1</clus>
<clus scale="  104.932">  5  6 -1 -1</clus>
<clus scale="  113.239">  7  8 -1 -1</clus>
<clus scale="  121.205">  2  5  1 -1</clus>
<clus scale="   51.083">  2  5  1 -1</clus>
</clustering>
</event>
<event>
 9    1  0.1601012E-005  0.1366211E+03  0.7546771E-02  0.1229142E+00
         21   -1    0    0  501  502  0.00000000000E+00  0.00000000000E+00  0.18612847459E+03  0.18612847459E+03  0.00000000000E+00 0. -1.
         -1   -1    0    0    0  501 -0.00000000000E+00 -0.00000000000E+00 -0.11565259060E+03  0.11565259060E+03  0.00000000000E+00 0.  1.
         23    2    1    2    0    0  0.42138415152E+02 -0.44930284331E+02 -0.87714274377E+01  0.13696293156E+03  0.12201446718E+03 0.  0.
         23    2    1    2    0    0 -0.22573447258E+02  0.59800836163E+02  0.36466263224E+02  0.11548113569E+03  0.88996650607E+02 0.  0.
        -11    1    3    3    0    0  0.72587656718E+02 -0.11736409611E+02 -0.38493110614E+02  0.82996570912E+02  0.00000000000E+00 0.  1.
         11    1    3    3    0    0 -0.30449241566E+02 -0.33193874720E+02  0.29721683177E+02  0.53966360649E+02  0.00000000000E+00 0. -1.
        -13    1    4    4    0    0 -0.34407261555E+02  0.35426824569E+02 -0.19661770013E+02  0.53155477110E+02  0.00000000000E+00 0. -1.
         13    1    4    4    0    0  0.11833814297E+02  0.24374011594E+02  0.56128033237E+02  0.62325658577E+02  0.00000000000E+00 0.  1.
         -1    1    1    2    0  502 -0.19564967895E+02 -0.14870551831E+02  0.42781048202E+02  0.49336997940E+02  0.00000000000E+00 0.  1.
<scales pt_clust_5="13000.00000" pt_clust_6="13000.00000" pt_clust_7="13000.00000" pt_clust_8="13000.00000" pt_clust_9="24.57481"></scales>
<clustering>
<clus scale="   24.575">  1  9  2 -1</clus>
<clus scale="   88.997">  7  8 -1 -1</clus>
<clus scale="  108.158">  1  7  2 -1</clus>
<clus scale="  122.014">  5  6 -1 -1</clus>
<clus scale="   24.575">  1  5  2 -1</clus>
</clustering>
</event>
<event>
 9    1  0.1601012E-005  0.1872280E+03  0.7546771E-02  0.1161056E+00
         21   -1    0    0  501  502  0.00000000000E+00  0.00000000000E+00  0.50191147181E+03  0.50191147181E+03  0.00000000000E+00 0.  1.
          2   -1    0    0  502    0 -0.00000000000E+00 -0.00000000000E+00 -0.95704376778E+02  0.95704376778E+02  0.00000000000E+00 0. -1.
         23    2    1    2    0    0 -0.14125167169E+03 -0.53340007400E+02  0.10101839331E+03  0.20338720808E+03  0.91457364260E+02 0.  0.
         23    2    1    2    0    0  0.17440544936E+03  0.58744615234E+02  0.21151739753E+03  0.29471634987E+03  0.90829107887E+02 0.  0.
        -11    1    4    4    0    0  0.12049419854E+03  0.82790104432E+02  0.15022810046E+03  0.20962236389E+03  0.00000000000E+00 0. -1.
         11    1    4    4    0    0  0.53911250822E+02 -0.24045489199E+02  0.61289297063E+02  0.85093985984E+02  0.00000000000E+00 0.  1.
        -13    1    3    3    0    0 -0.70451766577E+01  0.21665543736E+02  0.13176838610E+02  0.26318422735E+02  0.00000000000E+00 0.  1.
         13    1    3    3    0    0 -0.13420649503E+03 -0.75005551136E+02  0.87841554705E+02  0.17706878534E+03  0.00000000000E+00 0. -1.
          2    1    1    2  501    0 -0.33153777667E+02 -0.54046078338E+01  0.93671304188E+02  0.99512290637E+02  0.00000000000E+00 0. -1.
<scales pt_clust_5="13000.00000" pt_clust_6="13000.00000" pt_clust_7="13000.00000" pt_clust_8="13000.00000" pt_clust_9="33.59141"></scales>
<clustering>
<clus scale="   33.591">  1  9  2 -1</clus>
<clus scale="   90.829">  5  6 -1 -1</clus>
<clus scale="   91.457">  7  8 -1 -1</clus>
<clus scale="  186.922">  1  5  2 -1</clus>
<clus scale="   33.591">  1  5  2 -1</clus>
</clustering>
</event>
<event>
 9    1  0.1601012E-005  0.2145913E+03  0.7546771E-02  0.1162858E+00
          1   -1    0    0  502    0 -0.00000000000E+00  0.00000000000E+00  0.29645775880E+03  0.29645775880E+03  0.00000000000E+00 0. -1.
         21   -1    0    0  501  502  0.00000000000E+00 -0.00000000000E+00 -0.45611059381E+03  0.45611059381E+03  0.00000000000E+00 0. -1.
         23    2    1    2    0    0 -0.58066248365E+02  0.38488150845E+02  0.17610480732E+03  0.21257749628E+03  0.96557039144E+02 0.  0.
         23    2    1    2    0    0 -0.16752820907E+03  0.92188747451E+01 -0.16939190989E+03  0.25565588407E+03  0.92280135656E+02 0.  0.
        -11    1    3    3    0    0 -0.17300704145E+02  0.27219142853E+02  0.82024507537E+00  0.32262499958E+02  0.00000000000E+00 0.  1.
         11    1    3    3    0    0 -0.40765544220E+02  0.11269007992E+02  0.17528456225E+03  0.18031499632E+03  0.00000000000E+00 0. -1.
        -11    1    4    4    0    0 -0.10900016118E+03  0.79305071440E+01 -0.45025897231E+02  0.11820008250E+03  0.00000000000E+00 0. -1.
         11    1    4    4    0    0 -0.58528047889E+02  0.12883676012E+01 -0.12436601266E+03  0.13745580157E+03  0.00000000000E+00 0.  1.
          1    1    1    2  501    0  0.22559445744E+03 -0.47707025590E+02 -0.16636573245E+03  0.28433497226E+03  0.00000000000E+00 0. -1.
<scales pt_clust_5="13000.00000" pt_clust_6="13000.00000" pt_clust_7="13000.00000" pt_clust_8="13000.00000" pt_clust_9="193.73657"></scales>
<clustering>
<clus scale="   92.280">  7  8 -1 -1</clus>
<clus scale="   96.557">  5  6 -1 -1</clus>
<clus scale="  119.064">  1  5  2 -1</clus>
<clus scale="  193.737">  2  9  1 -1</clus>
<clus scale="  193.737">  2  5  1 -1</clus>
</clustering>
</event>
<event>
 9    1  0.1601012E-005  0.9267091E+02  0.7546771E-02  0.1297313E+00
         21   -1    0    0  501  502  0.00000000000E+00  0.00000000000E+00  0.18728865654E+03  0.18728865654E+03  0.00000000000E+00 0. -1.
          1   -1    0    0  502    0 -0.00000000000E+00 -0.00000000000E+00 -0.16733624375E+03  0.16733624375E+03  0.00000000000E+00 0. -1.
         23    2    1    2    0    0  0.11002240769E+02 -0.95858039137E+01 -0.83456691319E+02  0.12350307895E+03  0.89861305603E+02 0.  0.
         23    2    1    2    0    0 -0.15735833888E+02  0.36002169361E+02 -0.24982868826E+02  0.99955019221E+02  0.88448230429E+02 0.  0.
        -11    1    4    4    0    0  0.24508069404E+01 -0.21775794773E+02  0.15727411387E+02  0.26973008019E+02  0.00000000000E+00 0.  1.
         11    1    4    4    0    0 -0.18186640828E+02  0.57777964134E+02 -0.40710280213E+02  0.72982011202E+02  0.00000000000E+00 0. -1.
        -13    1    3    3    0    0 -0.11489630683E+02 -0.46363568675E+02 -0.40178838794E+02  0.62417395014E+02  0.00000000000E+00 0.  1.
         13    1    3    3    0    0  0.22491871452E+02  0.36777764761E+02 -0.43277852525E+02  0.61085683932E+02  0.00000000000E+00 0. -1.
          1    1    1    2  501    0  0.47335931190E+01 -0.26416365447E+02  0.12839197293E+03  0.13116680213E+03  0.00000000000E+00 0. -1.
<scales pt_clust_5="13000.00000" pt_clust_6="13000.00000" pt_clust_7="13000.00000" pt_clust_8="13000.00000" pt_clust_9="26.83712"></scales>
<clustering>
<clus scale="   26.837">  1  9  2 -1</clus>
<clus scale="   88.448">  5  6 -1 -1</clus>
<clus scale="   89.861">  7  8 -1 -1</clus>
<clus scale="   91.301">  1  5  2 -1</clus>
<clus scale="   26.837">  1  5  2 -1</clus>
</clustering>
</event>
<event>
 9    1  0.1601012E-005  0.1161912E+03  0.7546771E-02  0.1253240E+00
         21   -1    0    0  501  502  0.00000000000E+00  0.00000000000E+00  0.59465742440E+02  0.59465742440E+02  0.00000000000E+00 0. -1.
          2   -1    0    0  502    0 -0.00000000000E+00 -0.00000000000E+00 -0.60866646210E+03  0.60866646210E+03  0.00000000000E+00 0. -1.
         23    2    1    2    0    0 -0.26535529390E+02  0.45680667958E+02 -0.42775363842E+03  0.44099484298E+03  0.93340337549E+02 0.  0.
         23    2    1    2    0    0 -0.98087218097E+01 -0.69352607291E+02 -0.13312674606E+03  0.18221876989E+03  0.10283459740E+03 0.  0.
        -11    1    4    4    0    0  0.49577807704E+00  0.22326764661E+02 -0.27482123793E+01  0.22500730819E+02  0.00000000000E+00 0.  1.
         11    1    4    4    0    0 -0.10304499887E+02 -0.91679371952E+02 -0.13037853368E+03  0.15971803907E+03  0.00000000000E+00 0. -1.
        -13    1    3    3    0    0 -0.28810639482E+02  0.71352140817E+02 -0.36735221803E+03  0.37532496991E+03  0.00000000000E+00 0. -1.
         13    1    3    3    0    0  0.22751100915E+01 -0.25671472859E+02 -0.60401420393E+02  0.65669873078E+02  0.00000000000E+00 0.  1.
          2    1    1    2  501    0  0.36344251200E+02  0.23671939333E+02  0.11679664819E+02  0.44918591667E+02  0.00000000000E+00 0. -1.
<scales pt_clust_5="13000.00000" pt_clust_6="13000.00000" pt_clust_7="13000.00000" pt_clust_8="13000.00000" pt_clust_9="43.37356"></scales>
<clustering>
<clus scale="   43.374">  1  9  2 -1</clus>
<clus scale="   93.340">  7  8 -1 -1</clus>
<clus scale="  102.835">  5  6 -1 -1</clus>
<clus scale="  107.879">  2  7  1 -1</clus>
<clus scale="   43.374">  1  5  2 -1</clus>
</clustering>
</event>
<event>
 9    1  0.1601012E-005  0.2483664E+03  0.7546771E-02  0.1114479E+00
          1   -1    0    0  502    0 -0.00000000000E+00  0.00000000000E+00  0.10022023512E+04  0.10022023512E+04  0.00000000000E+00 0. -1.
         21   -1    0    0  501  502  0.00000000000E+00 -0.00000000000E+00 -0.23036088735E+03  0.23036088735E+03  0.00000000000E+00 0.  1.
         23    2    1    2    0    0 -0.21634926383E+03 -0.51562060529E+02  0.71954421104E+03  0.75870677700E+03  0.91795706699E+02 0.  0.
         23    2    1    2    0    0  0.27454483284E+03  0.14194062014E+03 -0.48263607882E+02  0.32665763347E+03  0.94094786116E+02 0.  0.
        -11    1    3    3    0    0 -0.15115175746E+03  0.16318561876E+01  0.53383956897E+03  0.55482808340E+03  0.00000000000E+00 0. -1.
         11    1    3    3    0    0 -0.65197506372E+02 -0.53193916717E+02  0.18570464207E+03  0.20387869359E+03  0.00000000000E+00 0.  1.
        -13    1    4    4    0    0  0.51603165010E+02  0.66947342400E+01 -0.40235057037E+02  0.65776636585E+02  0.00000000000E+00 0.  1.
         13    1    4    4    0    0  0.22294166783E+03  0.13524588590E+03 -0.80285508444E+01  0.26088099689E+03  0.00000000000E+00 0. -1.
          1    1    1    2  501    0 -0.58195569009E+02 -0.90378559611E+02  0.10056086073E+03  0.14719882812E+03  0.00000000000E+00 0. -1.
<scales pt_clust_5="13000.00000" pt_clust_6="13000.00000" pt_clust_7="13000.00000" pt_clust_8="13000.00000" pt_clust_9="107.49428"></scales>
<clustering>
<clus scale="   91.796">  5  6 -1 -1</clus>
<clus scale="   94.095">  7  8 -1 -1</clus>
<clus scale="  107.494">  2  9  1 -1</clus>
<clus scale="  247.504">  1  5  2 -1</clus>
<clus scale="  107.494">  2  5  1 -1</clus>
</clustering>
</event>
<event>
 9    1  0.1601012E-005  0.1546615E+03  0.7546771E-02  0.1207979E+00
         21   -1    0    0  501  502  0.00000000000E+00  0.00000000000E+00  0.10878982823E+03  0.10878982823E+03  0.00000000000E+00 0. -1.
          1   -1    0    0  502    0 -0.00000000000E+00 -0.00000000000E+00 -0.65795449024E+03  0.65795449024E+03  0.00000000000E+00 0. -1.
         23    2    1    2    0    0  0.10583119986E+02 -0.69988416370E+02 -0.41580912571E+03  0.43179193910E+03  0.92394095051E+02 0.  0.
         23    2    1    2    0    0 -0.13722046572E+03  0.58906714439E+02 -0.11613434981E+03  0.20666991480E+03  0.83221447104E+02 0.  0.
        -13    1    4    4    0    0 -0.14277231034E+02 -0.20199001786E+02 -0.15589640233E+02  0.29238260580E+02  0.00000000000E+00 0.  1.
         13    1    4    4    0    0 -0.12294323469E+03  0.79105716224E+02 -0.10054470958E+03  0.17743165422E+03  0.00000000000E+00 0. -1.
        -13    1    3    3    0    0  0.35344147727E+02  0.46191143780E+01 -0.94287828206E+02  0.10080049377E+03  0.00000000000E+00 0.  1.
         13    1    3    3    0    0 -0.24761027741E+02 -0.74607530748E+02 -0.32152129750E+03  0.33099144534E+03  0.00000000000E+00 0. -1.
          1    1    1    2  501    0  0.12663734573E+03  0.11081701932E+02 -0.17221186486E+02  0.12828246457E+03  0.00000000000E+00 0. -1.
<scales pt_clust_5="13000.00000" pt_clust_6="13000.00000" pt_clust_7="13000.00000" pt_clust_8="13000.00000" pt_clust_9="130.36241"></scales>
<clustering>
<clus scale="   83.221">  5  6 -1 -1</clus>
<clus scale="   92.394">  7  8 -1 -1</clus>
<clus scale="  116.392">  2  7  1 -1</clus>
<clus scale="  130.362">  1  9  2 -1</clus>
<clus scale="  130.362">  1  5  2 -1</clus>
</clustering>
</event>
<event>
 9    1  0.1601012E-005  0.2343634E+03  0.7546771E-02  0.1124237E+00
         21   -1    0    0  501  502  0.00000000000E+00  0.00000000000E+00  0.36133732042E+03  0.36133732042E+03  0.00000000000E+00 0. -1.
          2   -1    0    0  502    0 -0.00000000000E+00 -0.00000000000E+00 -0.70833584526E+03  0.70833584526E+03  0.00000000000E+00 0. -1.
         23    2    1    2    0    0 -0.21898230222E+03 -0.14496354989E+02 -0.55511995387E+03  0.60491771388E+03  0.97999410158E+02 0.  0.
         23    2    1    2    0    0  0.19056570777E+03 -0.32725598168E+02 -0.34806430127E+02  0.21565434690E+03  0.88932873598E+02 0.  0.
        -11    1    4    4    0    0  0.23152889003E+02  0.17545107610E+01  0.25419254975E+02  0.34427795466E+02  0.00000000000E+00 0. -1.
         11    1    4    4    0    0  0.16741281876E+03 -0.34480108929E+02 -0.60225685102E+02  0.18122655143E+03  0.00000000000E+00 0.  1.
        -13    1    3    3    0    0 -0.90941332711E+02 -0.38044300324E+02 -0.15086334667E+03  0.18021499424E+03  0.00000000000E+00 0.  1.
         13    1    3    3    0    0 -0.12804096951E+03  0.23547945335E+02 -0.40425660721E+03  0.42470271964E+03  0.00000000000E+00 0. -1.
          2    1    1    2  501    0  0.28416594451E+02  0.47221953157E+02  0.24292785916E+03  0.24910110489E+03  0.00000000000E+00 0. -1.
<scales pt_clust_5="13000.00000" pt_clust_6="13000.00000" pt_clust_7="13000.00000" pt_clust_8="13000.00000" pt_clust_9="55.11275"></scales>
<clustering>
<clus scale="   55.113">  1  9  2 -1</clus>
<clus scale="   88.933">  5  6 -1 -1</clus>
<clus scale="   97.999">  7  8 -1 -1</clus>
<clus scale="  230.719">  1  5  2 -1</clus>
<clus scale="   55.113">  1  5  2 -1</clus>
</clustering>
</event>
<event>
 9    1  0.1601012E-005  0.9578290E+02  0.7546771E-02  0.1296577E+00
         21   -1    0    0  501  502  0.00000000000E+00  0.00000000000E+00  0.99329800745E+02  0.99329800745E+02  0.00000000000E+00 0. -1.
          2   -1    0    0  502    0 -0.00000000000E+00 -0.00000000000E+00 -0.22390640137E+03  0.22390640137E+03  0.00000000000E+00 0. -1.
         23    2    1    2    0    0 -0.29419582627E+02  0.12991501497E+02 -0.12356781188E+03  0.15766887994E+03  0.92499624941E+02 0.  0.
         23    2    1    2    0    0  0.17954804741E+02  0.34331931453E+01 -0.61019476047E+02  0.10230205274E+03  0.80051056892E+02 0.  0.
        -13    1    3    3    0    0 -0.28226798160E+02  0.51707484963E+02 -0.68580377250E+02  0.90408430355E+02  0.00000000000E+00 0. -1.
         13    1    3    3    0    0 -0.11927844667E+01 -0.38715983466E+02 -0.54987434630E+02  0.67260449580E+02  0.00000000000E+00 0.  1.
        -13    1    4    4    0    0 -0.33064886024E+01  0.30984600226E+02  0.10100805815E+01  0.31176891776E+02  0.00000000000E+00 0. -1.
         13    1    4    4    0    0  0.21261293343E+02 -0.27551407080E+02 -0.62029556628E+02  0.71125160965E+02  0.00000000000E+00 0.  1.
          2    1    1    2  501    0  0.11464777886E+02 -0.16424694642E+02  0.60010687304E+02  0.63265269436E+02  0.00000000000E+00 0. -1.
<scales pt_clust_5="13000.00000" pt_clust_6="13000.00000" pt_clust_7="13000.00000" pt_clust_8="13000.00000" pt_clust_9="20.03027"></scales>
<clustering>
<clus scale="   20.030">  1  9  2 -1</clus>
<clus scale="   80.051">  7  8 -1 -1</clus>
<clus scale="   83.823">  1  7  2 -1</clus>
<clus scale="   92.500">  5  6 -1 -1</clus>
<clus scale="   20.030">  1  5  2 -1</clus>
</clustering>
</event>
<event>
 9    1  0.1601012E-005  0.1367534E+03  0.7546771E-02  0.1218979E+00
          2   -1    0    0  502    0 -0.00000000000E+00  0.00000000000E+00  0.71661976396E+03  0.71661976396E+03  0.00000000000E+00 0. -1.
         21   -1    0    0  501  502  0.00000000000E+00 -0.00000000000E+00 -0.50258240578E+02  0.50258240578E+02  0.00000000000E+00 0. -1.
         23    2    1    2    0    0  0.84097687428E+02 -0.80814714933E+02  0.32540236791E+03  0.35722040658E+03  0.90090391563E+02 0.  0.
         23    2    1    2    0    0 -0.96268597450E+02 -0.94952791562E+01  0.21398543392E+03  0.25336827635E+03  0.95120525404E+02 0.  0.
        -11    1    4    4    0    0 -0.50973155361E+02 -0.36379871013E+02  0.47075995741E+02  0.78344795343E+02  0.00000000000E+00 0. -1.
         11    1    4    4    0    0 -0.45295442089E+02  0.26884591856E+02  0.16690943818E+03  0.17502348101E+03  0.00000000000E+00 0.  1.
        -13    1    3    3    0    0  0.53258886455E+02 -0.73386997005E+02  0.30793581380E+03  0.32100876271E+03  0.00000000000E+00 0. -1.
         13    1    3    3    0    0  0.30838800973E+02 -0.74277179286E+01  0.17466554114E+02  0.36211643869E+02  0.00000000000E+00 0.  1.
          2    1    1    2  501    0  0.12170910022E+02  0.90309994089E+02  0.12697372156E+03  0.15628932161E+03  0.00000000000E+00 0. -1.
<scales pt_clust_5="13000.00000" pt_clust_6="13000.00000" pt_clust_7="13000.00000" pt_clust_8="13000.00000" pt_clust_9="91.12643"></scales>
<clustering>
<clus scale="   90.090">  7  8 -1 -1</clus>
<clus scale="   91.126">  2  9  1 -1</clus>
<clus scale="   95.121">  5  6 -1 -1</clus>
<clus scale="  133.304">  1  7  2 -1</clus>
<clus scale="   91.126">  2  5  1 -1</clus>
</clustering>
</event>
<event>
 9    1  0.1601012E-005  0.1207780E+03  0.7546771E-02  0.1242155E+00
         21   -1    0    0  501  502  0.00000000000E+00  0.00000000000E+00  0.72657081428E+02  0.72657081428E+02  0.00000000000E+00 0.  1.
         -4   -1    0    0    0  501 -0.00000000000E+00 -0.00000000000E+00 -0.86590516427E+03  0.86590516427E+03  0.00000000000E+00 0.  1.
         23    2    1    2    0    0  0.84510175677E+02 -0.14903949901E+00 -0.66939642299E+03  0.68094235965E+03  0.91918083367E+02 0.  0.
         23    2    1    2    0    0 -0.25249097044E+02 -0.80540303305E+02 -0.74310667930E+02  0.14591959346E+03  0.92984918295E+02 0.  0.
        -11    1    4    4    0    0 -0.36074537409E+02  0.73761705049E+01 -0.18314284488E+02  0.41124118920E+02  0.00000000000E+00 0. -1.
         11    1    4    4    0    0  0.10825440366E+02 -0.87916473810E+02 -0.55996383442E+02  0.10479547454E+03  0.00000000000E+00 0.  1.
        -13    1    3    3    0    0  0.36413019142E+02 -0.45705690008E+02 -0.33196721001E+03  0.33707142653E+03  0.00000000000E+00 0.  1.
         13    1    3    3    0    0  0.48097156535E+02  0.45556650509E+02 -0.33742921298E+03  0.34387093312E+03  0.00000000000E+00 0. -1.
         -4    1    1    2    0  502 -0.59261078634E+02  0.80689342804E+02 -0.49540991926E+02  0.11170029259E+03  0.00000000000E+00 0.  1.
<scales pt_clust_5="13000.00000" pt_clust_6="13000.00000" pt_clust_7="13000.00000" pt_clust_8="13000.00000" pt_clust_9="100.11316"></scales>
<clustering>
<clus scale="   91.918">  7  8 -1 -1</clus>
<clus scale="   92.985">  5  6 -1 -1</clus>
<clus scale="  100.113">  1  9  2 -1</clus>
<clus scale="  119.959">  2  7  1 -1</clus>
<clus scale="  100.113">  1  5  2 -1</clus>
</clustering>
</event>
<event>
 9    1  0.1601012E-005  0.1381366E+03  0.7546771E-02  0.1216334E+00
          2   -1    0    0  502    0 -0.00000000000E+00  0.00000000000E+00  0.45146311201E+03  0.45146311201E+03  0.00000000000E+00 0. -1.
         21   -1    0    0  501  502  0.00000000000E+00 -0.00000000000E+00 -0.17896892401E+03  0.17896892401E+03  0.00000000000E+00 0.  1.
         23    2    1    2    0    0 -0.10488230120E+03 -0.33872508908E+02  0.37776117585E+03  0.40364421338E+03  0.89874918903E+02 0.  0.
         23    2    1    2    0    0  0.64473920326E+02 -0.37590652568E+02 -0.55613830673E+02  0.13084379359E+03  0.91963343767E+02 0.  0.
        -11    1    3    3    0    0 -0.92803525692E+02  0.10653350899E+02  0.28718431771E+03  0.30199473605E+03  0.00000000000E+00 0.  1.
         11    1    3    3    0    0 -0.12078775512E+02 -0.44525859808E+02  0.90576858145E+02  0.10164947733E+03  0.00000000000E+00 0. -1.
        -13    1    4    4    0    0  0.81765918847E+00 -0.49795752256E+02 -0.80508281761E+01  0.50448997449E+02  0.00000000000E+00 0. -1.
         13    1    4    4    0    0  0.63656261137E+02  0.12205099688E+02 -0.47563002497E+02  0.80394796143E+02  0.00000000000E+00 0.  1.
          2    1    1    2  501    0  0.40408380878E+02  0.71463161476E+02 -0.49653157181E+02  0.95944029055E+02  0.00000000000E+00 0. -1.
<scales pt_clust_5="13000.00000" pt_clust_6="13000.00000" pt_clust_7="13000.00000" pt_clust_8="13000.00000" pt_clust_9="82.09641"></scales>
<clustering>
<clus scale="   82.096">  2  9  1 -1</clus>
<clus scale="   89.875">  5  6 -1 -1</clus>
<clus scale="   91.963">  7  8 -1 -1</clus>
<clus scale="  136.755">  1  5  2 -1</clus>
<clus scale="   82.096">  2  5  1 -1</clus>
</clustering>
</event>
<event>
 9    1  0.1601012E-005  0.9234478E+02  0.7546771E-02  0.1298439E+00
         21   -1    0    0  501  502  0.00000000000E+00  0.00000000000E+00  0.58851861748E+02  0.58851861748E+02  0.00000000000E+00 0.  1.
         -4   -1    0    0    0  501 -0.00000000000E+00 -0.00000000000E+00 -0.41094940050E+03  0.41094940050E+03  0.00000000000E+00 0.  1.
         23    2    1    2    0    0 -0.68046180379E+01  0.20377171497E+02 -0.32611803088E+03  0.33908639790E+03  0.90360850098E+02 0.  0.
         23    2    1    2    0    0  0.27969605320E+02  0.71764613689E+01 -0.23590236218E+02  0.95888610028E+02  0.88342095678E+02 0.  0.
        -11    1    4    4    0    0 -0.32063141597E+02 -0.20043094863E+01 -0.62165623037E+01  0.32721674048E+02  0.00000000000E+00 0.  1.
         11    1    4    4    0    0  0.60032746917E+02  0.91807708552E+01 -0.17373673914E+02  0.63166935981E+02  0.00000000000E+00 0. -1.
        -13    1    3    3    0    0 -0.19749523854E+01  0.52284825070E+02 -0.26347087194E+03  0.26861590372E+03  0.00000000000E+00 0.  1.
         13    1    3    3    0    0 -0.48296656525E+01 -0.31907653573E+02 -0.62647158940E+02  0.70470494181E+02  0.00000000000E+00 0. -1.
         -4    1    1    2    0  502 -0.21164987282E+02 -0.27553632866E+02 -0.23892716514E+01  0.34826254317E+02  0.00000000000E+00 0.  1.
<scales pt_clust_5="13000.00000" pt_clust_6="13000.00000" pt_clust_7="13000.00000" pt_clust_8="13000.00000" pt_clust_9="34.74420"></scales>
<clustering>
<clus scale="   34.744">  1  9  2 -1</clus>
<clus scale="   88.342">  5  6 -1 -1</clus>
<clus scale="   90.361">  7  8 -1 -1</clus>
<clus scale="   90.370">  1  5  2 -1</clus>
<clus scale="   34.744">  1  5  2 -1</clus>
</clustering>
</event>
<event>
 9    1  0.1601012E-005  0.1758967E+03  0.7546771E-02  0.1171870E+00
         -1   -1    0    0    0  501 -0.00000000000E+00  0.00000000000E+00  0.47452665640E+03  0.47452665640E+03  0.00000000000E+00 0.  1.
         21   -1    0    0  501  502  0.00000000000E+00 -0.00000000000E+00 -0.13358329165E+03  0.13358329165E+03  0.00000000000E+00 0.  1.
         23    2    1    2    0    0 -0.16363466596E+02 -0.11485301278E+03  0.12683129487E+03  0.19488845905E+03  0.91849640868E+02 0.  0.
         23    2    1    2    0    0  0.40740508806E+02  0.18284929076E+03  0.25564428733E+03  0.32989886847E+03  0.91572974090E+02 0.  0.
        -13    1    4    4    0    0  0.68955061346E+02  0.12933517781E+03  0.19791487407E+03  0.24627766054E+03  0.00000000000E+00 0.  1.
         13    1    4    4    0    0 -0.28214552540E+02  0.53514112942E+02  0.57729413261E+02  0.83621207923E+02  0.00000000000E+00 0. -1.
        -13    1    3    3    0    0 -0.32436314263E+02 -0.13810070734E+01  0.19500030867E+02  0.37871795142E+02  0.00000000000E+00 0. -1.
         13    1    3    3    0    0  0.16072847667E+02 -0.11347200571E+03  0.10733126401E+03  0.15701666391E+03  0.00000000000E+00 0.  1.
         -1    1    1    2    0  502 -0.24377042210E+02 -0.67996277978E+02 -0.41532217454E+02  0.83322620533E+02  0.00000000000E+00 0.  1.
<scales pt_clust_5="13000.00000" pt_clust_6="13000.00000" pt_clust_7="13000.00000" pt_clust_8="13000.00000" pt_clust_9="72.23388"></scales>
<clustering>
<clus scale="   72.234">  2  9  1 -1</clus>
<clus scale="   91.573">  5  6 -1 -1</clus>
<clus scale="   91.850">  7  8 -1 -1</clus>
<clus scale="  175.752">  2  5  1 -1</clus>
<clus scale="   72.234">  2  5  1 -1</clus>
</clustering>
</event>
<event>
 9    1  0.1601012E-005  0.1843294E+03  0.7546771E-02  0.1180824E+00
         21   -1    0    0  501  502  0.00000000000E+00  0.00000000000E+00  0.27543518732E+03  0.27543518732E+03  0.00000000000E+00 0. -1.
          1   -1    0    0  502    0 -0.00000000000E+00 -0.00000000000E+00 -0.27802862536E+03  0.27802862536E+03  0.00000000000E+00 0. -1.
         23    2    1    2    0    0 -0.59740697806E+02  0.62375855676E+02 -0.11910214775E+03  0.17245222043E+03  0.89970819636E+02 0.  0.
         23    2    1    2    0    0  0.40101897535E+02  0.13267274643E+03  0.65046872485E+02  0.17833460700E+03  0.91443515907E+02 0.  0.
        -13    1    4    4    0    0  0.43952949251E+02  0.13088948062E+02  0.24569399462E+02  0.52027278414E+02  0.00000000000E+00 0.  1.
         13    1    4    4    0    0 -0.38510517151E+01  0.11958379837E+03  0.40477473023E+02  0.12630732858E+03  0.00000000000E+00 0. -1.
        -13    1    3    3    0    0 -0.31992357014E+02 -0.14821690646E+02 -0.11377840059E+02  0.37049273479E+02  0.00000000000E+00 0.  1.
         13    1    3    3    0    0 -0.27748340792E+02  0.77197546322E+02 -0.10772430769E+03  0.13540294695E+03  0.00000000000E+00 0. -1.
          1    1    1    2  501    0  0.19638800270E+02 -0.19504860211E+03  0.51461837221E+02  0.20267698525E+03  0.00000000000E+00 0. -1.
<scales pt_clust_5="13000.00000" pt_clust_6="13000.00000" pt_clust_7="13000.00000" pt_clust_8="13000.00000" pt_clust_9="160.04820"></scales>
<clustering>
<clus scale="   89.971">  7  8 -1 -1</clus>
<clus scale="   91.444">  5  6 -1 -1</clus>
<clus scale="  124.717">  2  7  1 -1</clus>
<clus scale="  160.048">  1  9  2 -1</clus>
<clus scale="  160.048">  1  5  2 -1</clus>
</clustering>
</event>
<event>
 9    1  0.1601012E-005  0.1537192E+03  0.7546771E-02  0.1217062E+00
          2   -1    0    0  502    0 -0.00000000000E+00  0.00000000000E+00  0.48212257209E+03  0.48212257209E+03  0.00000000000E+00 0. -1.
         21   -1    0    0  501  502  0.00000000000E+00 -0.00000000000E+00 -0.13229433887E+03  0.13229433887E+03  0.00000000000E+00 0. -1.
         23    2    1    2    0    0 -0.21612692251E+01 -0.31263283331E+02  0.63737372478E+02  0.11667474112E+03  0.92566076920E+02 0.  0.
         23    2    1    2    0    0 -0.35392656060E+02  0.14597304156E+03  0.32628003981E+03  0.37052662027E+03  0.90942525741E+02 0.  0.
        -11    1    3    3    0    0 -0.29455963200E+02 -0.68925870757E+01 -0.12012983302E+02  0.32549551341E+02  0.00000000000E+00 0. -1.
         11    1    3    3    0    0  0.27294693975E+02 -0.24370696255E+02  0.75750355779E+02  0.84125189782E+02  0.00000000000E+00 0.  1.
        -11    1    4    4    0    0  0.20660508553E+02  0.98852484300E+02  0.21155686231E+03  0.23442477740E+03  0.00000000000E+00 0. -1.
         11    1    4    4    0    0 -0.56053164613E+02  0.47120557264E+02  0.11472317749E+03  0.13610184288E+03  0.00000000000E+00 0.  1.
          2    1    1    2  501    0  0.37553925285E+02 -0.11470975823E+03 -0.40189179068E+02  0.12721554957E+03  0.00000000000E+00 0. -1.
<scales pt_clust_5="13000.00000" pt_clust_6="13000.00000" pt_clust_7="13000.00000" pt_clust_8="13000.00000" pt_clust_9="123.93158"></scales>
<clustering>
<clus scale="   90.943">  7  8 -1 -1</clus>
<clus scale="   92.566">  5  6 -1 -1</clus>
<clus scale="   97.727">  1  5  2 -1</clus>
<clus scale="  123.932">  2  9  1 -1</clus>
<clus scale="  123.932">  2  5  1 -1</clus>
</clustering>
</event>
<event>
 9    1  0.1601012E-005  0.9080904E+02  0.7546771E-02  0.1301371E+00
         21   -1    0    0  501  502  0.00000000000E+00  0.00000000000E+00  0.13573445020E+03  0.13573445020E+03  0.00000000000E+00 0.  1.
         -3   -1    0    0    0  501 -0.00000000000E+00 -0.00000000000E+00 -0.15184257914E+03  0.15184257914E+03  0.00000000000E+00 0.  1.
         23    2    1    2    0    0  0.93114013582E+01 -0.81936587657E+01 -0.89194529039E+02  0.12689697333E+03  0.89405478520E+02 0.  0.
         23    2    1    2    0    0 -0.13731364273E+02 -0.16754917586E+02  0.10728938354E+02  0.93371657056E+02  0.90188018024E+02 0.  0.
        -11    1    4    4    0    0  0.31545201578E+02 -0.12381475517E+02  0.28754019836E+02  0.44443158476E+02  0.00000000000E+00 0.  1.
         11    1    4    4    0    0 -0.45276565851E+02 -0.43734420692E+01 -0.18025081483E+02  0.48928498580E+02  0.00000000000E+00 0. -1.
        -11    1    3    3    0    0  0.39286410801E+01 -0.47113136737E+02 -0.30484000533E+02  0.56252610272E+02  0.00000000000E+00 0.  1.
         11    1    3    3    0    0  0.53827602780E+01  0.38919477971E+02 -0.58710528507E+02  0.70644363054E+02  0.00000000000E+00 0. -1.
         -3    1    1    2    0  502  0.44199629150E+01  0.24948576352E+02  0.62357461750E+02  0.67308398956E+02  0.00000000000E+00 0.  1.
<scales pt_clust_5="13000.00000" pt_clust_6="13000.00000" pt_clust_7="13000.00000" pt_clust_8="13000.00000" pt_clust_9="25.33708"></scales>
<clustering>
<clus scale="   25.337">  1  9  2 -1</clus>
<clus scale="   89.405">  7  8 -1 -1</clus>
<clus scale="   90.032">  2  7  1 -1</clus>
<clus scale="   90.188">  5  6 -1 -1</clus>
<clus scale="   25.337">  1  5  2 -1</clus>
</clustering>
</event>
<event>
 9    1  0.1601012E-005  0.9653244E+02  0.7546771E-02  0.1288626E+00
         21   -1    0    0  501  502  0.00000000000E+00  0.00000000000E+00  0.99691437019E+02  0.99691437019E+02  0.00000000000E+00 0. -1.
         -3   -1    0    0    0  501 -0.00000000000E+00 -0.00000000000E+00 -0.25679606807E+03  0.25679606807E+03  0.00000000000E+00 0.  1.
         23    2    1    2    0    0  0.24723147088E+02  0.25664393706E+02 -0.10989342638E+03  0.14790181596E+03  0.92349807236E+02 0.  0.
         23    2    1    2    0    0 -0.32440822877E+02  0.45812699802E+02 -0.76162420319E+02  0.13108271948E+03  0.90723506471E+02 0.  0.
        -11    1    3    3    0    0  0.46573732307E+02  0.48556598837E+02 -0.72347170188E+02  0.98797615689E+02  0.00000000000E+00 0. -1.
         11    1    3    3    0    0 -0.21850585219E+02 -0.22892205131E+02 -0.37546256189E+02  0.49104200268E+02  0.00000000000E+00 0.  1.
        -13    1    4    4    0    0 -0.19554861699E+02 -0.19288131345E+02  0.31739009543E+01  0.27649561916E+02  0.00000000000E+00 0.  1.
         13    1    4    4    0    0 -0.12885961177E+02  0.65100831147E+02 -0.79336321273E+02  0.10343315757E+03  0.00000000000E+00 0. -1.
         -3    1    1    2    0  502  0.77176757885E+01 -0.71477093509E+02  0.28951215649E+02  0.77502969644E+02  0.00000000000E+00 0.  1.
<scales pt_clust_5="13000.00000" pt_clust_6="13000.00000" pt_clust_7="13000.00000" pt_clust_8="13000.00000" pt_clust_9="71.89254"></scales>
<clustering>
<clus scale="   71.893">  1  9  2 -1</clus>
<clus scale="   90.724">  7  8 -1 -1</clus>
<clus scale="   92.350">  5  6 -1 -1</clus>
<clus scale="   94.978">  1  7  2 -1</clus>
<clus scale="   71.893">  1  5  2 -1</clus>
</clustering>
</event>
<event>
 9    1  0.1601012E-005  0.1428512E+03  0.7546771E-02  0.1210302E+00
          2   -1    0    0  502    0 -0.00000000000E+00  0.00000000000E+00  0.23279459380E+03  0.23279459380E+03  0.00000000000E+00 0. -1.
         21   -1    0    0  501  502  0.00000000000E+00 -0.00000000000E+00 -0.12134497900E+03  0.12134497900E+03  0.00000000000E+00 0.  1.
         23    2    1    2    0    0 -0.98818019570E+02  0.64562727558E+01  0.68081989780E+02  0.14883945130E+03  0.87814238492E+02 0.  0.
         23    2    1    2    0    0  0.12905974440E+03 -0.24119002563E+02  0.59359342871E+02  0.16679987494E+03  0.84026917023E+02 0.  0.
        -11    1    4    4    0    0  0.87151959050E+02 -0.37633235993E+02  0.74034200859E+02  0.12038599302E+03  0.00000000000E+00 0.  1.
         11    1    4    4    0    0  0.41907785350E+02  0.13514233431E+02 -0.14674857989E+02  0.46413881923E+02  0.00000000000E+00 0. -1.
        -13    1    3    3    0    0 -0.29438653022E+02 -0.12391340416E+02 -0.18016666052E+02  0.36671240294E+02  0.00000000000E+00 0.  1.
         13    1    3    3    0    0 -0.69379366548E+02  0.18847613172E+02  0.86098655831E+02  0.11216821101E+03  0.00000000000E+00 0. -1.
          2    1    1    2  501    0 -0.30241724830E+02  0.17662729807E+02 -0.15991717848E+02  0.38500246553E+02  0.00000000000E+00 0. -1.
<scales pt_clust_5="13000.00000" pt_clust_6="13000.00000" pt_clust_7="13000.00000" pt_clust_8="13000.00000" pt_clust_9="35.02191"></scales>
<clustering>
<clus scale="   35.022">  2  9  1 -1</clus>
<clus scale="   84.027">  5  6 -1 -1</clus>
<clus scale="   87.814">  7  8 -1 -1</clus>
<clus scale="  140.555">  2  5  1 -1</clus>
<clus scale="   35.022">  2  5  1 -1</clus>
</clustering>
</event>
<event>
 9    1  0.1601012E-005  0.1095254E+03  0.7546771E-02  0.1262149E+00
          3   -1    0    0  502    0 -0.00000000000E+00  0.00000000000E+00  0.16130024593E+03  0.16130024593E+03  0.00000000000E+00 0. -1.
         21   -1    0    0  501  502  0.00000000000E+00 -0.00000000000E+00 -0.30628470366E+03  0.30628470366E+03  0.00000000000E+00 0. -1.
         23    2    1    2    0    0  0.76878633179E+02  0.32272093459E+02  0.79835077334E+02  0.14721769676E+03  0.91365192562E+02 0.  0.
         23    2    1    2    0    0  0.26054119470E+02 -0.38982936377E+02 -0.46052906902E+02  0.11397516401E+03  0.93118104084E+02 0.  0.
        -11    1    3    3    0    0  0.63301616945E+02  0.60948100288E+01  0.16053474229E+01  0.63614609623E+02  0.00000000000E+00 0. -1.
         11    1    3    3    0    0  0.13577016235E+02  0.26177283430E+02  0.78229729911E+02  0.83603087141E+02  0.00000000000E+00 0.  1.
        -13    1    4    4    0    0 -0.35806614500E+01 -0.38070112950E+02  0.18841826220E+02  0.42628265878E+02  0.00000000000E+00 0. -1.
         13    1    4    4    0    0  0.29634780920E+02 -0.91282342648E+00 -0.64894733122E+02  0.71346898137E+02  0.00000000000E+00 0.  1.
          3    1    1    2  501    0 -0.10293275265E+03  0.67108429181E+01 -0.17876662816E+03  0.20639208881E+03  0.00000000000E+00 0. -1.
<scales pt_clust_5="13000.00000" pt_clust_6="13000.00000" pt_clust_7="13000.00000" pt_clust_8="13000.00000" pt_clust_9="103.15128"></scales>
<clustering>
<clus scale="   91.365">  5  6 -1 -1</clus>
<clus scale="   93.118">  7  8 -1 -1</clus>
<clus scale="  103.151">  2  9  1 -1</clus>
<clus scale="  108.039">  1  5  2 -1</clus>
<clus scale="  103.151">  2  5  1 -1</clus>
</clustering>
</event>
<event>
 9    1  0.1601012E-005  0.9239218E+02  0.7546771E-02  0.1297820E+00
         21   -1    0    0  501  502  0.00000000000E+00  0.00000000000E+00  0.86243694589E+02  0.86243694589E+02  0.00000000000E+00 0. -1.
          1   -1    0    0  502    0 -0.00000000000E+00 -0.00000000000E+00 -0.22429569864E+03  0.22429569864E+03  0.00000000000E+00 0. -1.
         23    2    1    2    0    0 -0.43991686638E+01  0.22389251445E+01 -0.13057063056E+03  0.15923704592E+03  0.91013085651E+02 0.  0.
         23    2    1    2    0    0  0.45500139937E+02 -0.41621918950E+01 -0.28945300486E+02  0.10489449283E+03  0.89874566093E+02 0.  0.
        -13    1    4    4    0    0 -0.25648462043E+02  0.69854208072E+01  0.16818572785E+01  0.26635847141E+02  0.00000000000E+00 0.  1.
         13    1    4    4    0    0  0.71148601979E+02 -0.11147612702E+02 -0.30627157765E+02  0.78258645691E+02  0.00000000000E+00 0. -1.
        -13    1    3    3    0    0 -0.36074043630E+02 -0.19943663455E+02 -0.10520018783E+03  0.11298745884E+03  0.00000000000E+00 0.  1.
         13    1    3    3    0    0  0.31674874966E+02  0.22182588600E+02 -0.25370442724E+02  0.46249587080E+02  0.00000000000E+00 0. -1.
          1    1    1    2  501    0 -0.41100971273E+02  0.19232667505E+01  0.21463926996E+02  0.46407854472E+02  0.00000000000E+00 0. -1.
<scales pt_clust_5="13000.00000" pt_clust_6="13000.00000" pt_clust_7="13000.00000" pt_clust_8="13000.00000" pt_clust_9="41.14595"></scales>
<clustering>
<clus scale="   41.146">  1  9  2 -1</clus>
<clus scale="   89.875">  5  6 -1 -1</clus>
<clus scale="   91.013">  7  8 -1 -1</clus>
<clus scale="   91.271">  1  5  2 -1</clus>
<clus scale="   41.146">  1  5  2 -1</clus>
</clustering>
</event>
<event>
 9    1  0.1601012E-005  0.1058720E+03  0.7546771E-02  0.1268832E+00
         21   -1    0    0  501  502  0.00000000000E+00  0.00000000000E+00  0.77319464318E+02  0.77319464318E+02  0.00000000000E+00 0. -1.
          2   -1    0    0  502    0 -0.00000000000E+00 -0.00000000000E+00 -0.44622166205E+03  0.44622166205E+03  0.00000000000E+00 0. -1.
         23    2    1    2    0    0  0.47788571290E+02 -0.20503327937E+02 -0.22922243834E+03  0.25186542824E+03  0.90493832389E+02 0.  0.
         23    2    1    2    0    0 -0.65740595256E+02 -0.65437239086E+02 -0.12880779342E+03  0.18320956976E+03  0.91490112479E+02 0.  0.
        -11    1    3    3    0    0  0.73893706594E+02 -0.11307811602E+02 -0.14377871578E+03  0.16205081175E+03  0.00000000000E+00 0.  1.
         11    1    3    3    0    0 -0.26105135304E+02 -0.91955163351E+01 -0.85443722567E+02  0.89814616494E+02  0.00000000000E+00 0. -1.
        -11    1    4    4    0    0 -0.62762871420E+02  0.14427514468E+01 -0.53874965156E+02  0.82727090069E+02  0.00000000000E+00 0.  1.
         11    1    4    4    0    0 -0.29777238362E+01 -0.66879990533E+02 -0.74932828263E+02  0.10048247969E+03  0.00000000000E+00 0. -1.
          2    1    1    2  501    0  0.17952023966E+02  0.85940567024E+02 -0.10871965970E+02  0.88466128371E+02  0.00000000000E+00 0. -1.
<scales pt_clust_5="13000.00000" pt_clust_6="13000.00000" pt_clust_7="13000.00000" pt_clust_8="13000.00000" pt_clust_9="87.79554"></scales>
<clustering>
<clus scale="   87.796">  1  9  2 -1</clus>
<clus scale="   90.494">  5  6 -1 -1</clus>
<clus scale="   91.490">  7  8 -1 -1</clus>
<clus scale="  105.012">  2  5  1 -1</clus>
<clus scale="   87.796">  1  5  2 -1</clus>
</clustering>
</event>
<event>
 9    1  0.1601012E-005  0.1442226E+03  0.7546771E-02  0.1220346E+00
         21   -1    0    0  501  502  0.00000000000E+00  0.00000000000E+00  0.53016642844E+03  0.53016642844E+03  0.00000000000E+00 0. -1.
          1   -1    0    0  502    0 -0.00000000000E+00 -0.00000000000E+00 -0.39987543553E+03  0.39987543553E+03  0.00000000000E+00 0. -1.
         23    2    1    2    0    0 -0.17833958599E+02 -0.59828282256E+02 -0.35445183794E+03  0.37125539301E+03  0.91087803712E+02 0.  0.
         23    2    1    2    0    0 -0.95011307362E+02  0.69393173752E+02  0.18139790850E+03  0.23499072807E+03  0.92048248105E+02 0.  0.
        -11    1    4    4    0    0 -0.68626853161E+02  0.86780373403E+02  0.10591796123E+03  0.15316361413E+03  0.00000000000E+00 0.  1.
         11    1    4    4    0    0 -0.26384454201E+02 -0.17387199651E+02  0.75479947267E+02  0.81827113933E+02  0.00000000000E+00 0. -1.
        -13    1    3    3    0    0 -0.48893807524E+02 -0.62350299322E+02 -0.25835282054E+03  0.27023016879E+03  0.00000000000E+00 0. -1.
         13    1    3    3    0    0  0.31059848925E+02  0.25220170665E+01 -0.96099017397E+02  0.10102522423E+03  0.00000000000E+00 0.  1.
          1    1    1    2  501    0  0.11284526596E+03 -0.95648914965E+01  0.30334492235E+03  0.32379574289E+03  0.00000000000E+00 0. -1.
<scales pt_clust_5="13000.00000" pt_clust_6="13000.00000" pt_clust_7="13000.00000" pt_clust_8="13000.00000" pt_clust_9="111.02831"></scales>
<clustering>
<clus scale="   91.088">  7  8 -1 -1</clus>
<clus scale="   92.048">  5  6 -1 -1</clus>
<clus scale="  110.429">  2  7  1 -1</clus>
<clus scale="  111.028">  1  9  2 -1</clus>
<clus scale="  111.028">  1  5  2 -1</clus>
</clustering>
</event>
<event>
 9    1  0.1601012E-005  0.9588685E+02  0.7546771E-02  0.1291117E+00
         21   -1    0    0  501  502  0.00000000000E+00  0.00000000000E+00  0.72669558077E+02  0.72669558077E+02  0.00000000000E+00 0.  1.
          1   -1    0    0  502    0 -0.00000000000E+00 -0.00000000000E+00 -0.19116250594E+03  0.19116250594E+03  0.00000000000E+00 0. -1.
         23    2    1    2    0    0 -0.23734924342E+02 -0.25835225604E+02 -0.84974359359E+02  0.13133302915E+03  0.93791882819E+02 0.  0.
         23    2    1    2    0    0  0.27186894902E+00 -0.32387239699E+00 -0.36099787113E+02  0.97264450110E+02  0.90316110520E+02 0.  0.
        -13    1    3    3    0    0 -0.22789089840E+02  0.31807134806E+02 -0.18315963256E+02  0.43203135885E+02  0.00000000000E+00 0.  1.
         13    1    3    3    0    0 -0.94583450159E+00 -0.57642360410E+02 -0.66658396103E+02  0.88129893269E+02  0.00000000000E+00 0. -1.
        -13    1    4    4    0    0 -0.44716838578E+02 -0.31203495757E+01 -0.22662378183E+02  0.50228633456E+02  0.00000000000E+00 0.  1.
         13    1    4    4    0    0  0.44988707527E+02  0.27964771787E+01 -0.13437408930E+02  0.47035816654E+02  0.00000000000E+00 0. -1.
          1    1    1    2  501    0  0.23463055393E+02  0.26159098001E+02  0.25811986070E+01  0.35234584755E+02  0.00000000000E+00 0. -1.
<scales pt_clust_5="13000.00000" pt_clust_6="13000.00000" pt_clust_7="13000.00000" pt_clust_8="13000.00000" pt_clust_9="35.13991"></scales>
<clustering>
<clus scale="   35.140">  1  9  2 -1</clus>
<clus scale="   90.316">  7  8 -1 -1</clus>
<clus scale="   92.490">  1  7  2 -1</clus>
<clus scale="   93.792">  5  6 -1 -1</clus>
<clus scale="   35.140">  1  5  2 -1</clus>
</clustering>
</event>
<event>
 9    1  0.1601012E-005  0.1182783E+03  0.7546771E-02  0.1248729E+00
         -3   -1    0    0    0  501 -0.00000000000E+00  0.00000000000E+00  0.32667111708E+03  0.32667111708E+03  0.00000000000E+00 0. -1.
         21   -1    0    0  501  502  0.00000000000E+00 -0.00000000000E+00 -0.11587973251E+03  0.11587973251E+03  0.00000000000E+00 0. -1.
         23    2    1    2    0    0  0.73429426545E+02  0.19393736980E+02  0.25250270775E+03  0.27623002120E+03  0.82325023369E+02 0.  0.
         23    2    1    2    0    0 -0.64214222116E+02 -0.46223019448E+02 -0.57923404066E+02  0.13364726176E+03  0.90809889265E+02 0.  0.
        -13    1    3    3    0    0  0.13846017997E+02  0.35635197921E+02  0.41724631284E+02  0.56590850860E+02  0.00000000000E+00 0. -1.
         13    1    3    3    0    0  0.59583408548E+02 -0.16241460942E+02  0.21077807647E+03  0.21963917034E+03  0.00000000000E+00 0.  1.
        -13    1    4    4    0    0  0.65465622714E+01  0.19361087363E+02  0.12337257511E+01  0.20475137623E+02  0.00000000000E+00 0.  1.
         13    1    4    4    0    0 -0.70760784388E+02 -0.65584106811E+02 -0.59157129817E+02  0.11317212414E+03  0.00000000000E+00 0. -1.
         -3    1    1    2    0  502 -0.92152044288E+01  0.26829282468E+02  0.16212080886E+02  0.32673566642E+02  0.00000000000E+00 0. -1.
<scales pt_clust_5="13000.00000" pt_clust_6="13000.00000" pt_clust_7="13000.00000" pt_clust_8="13000.00000" pt_clust_9="28.36778"></scales>
<clustering>
<clus scale="   28.368">  2  9  1 -1</clus>
<clus scale="   82.325">  5  6 -1 -1</clus>
<clus scale="   90.810">  7  8 -1 -1</clus>
<clus scale="  111.896">  1  5  2 -1</clus>
<clus scale="   28.368">  2  5  1 -1</clus>
</clustering>
</event>
<event>
 9    1  0.1601012E-005  0.1142679E+03  0.7546771E-02  0.1253543E+00
         21   -1    0    0  501  502  0.00000000000E+00  0.00000000000E+00  0.94391891168E+03  0.94391891168E+03  0.00000000000E+00 0.  1.
         -3   -1    0    0    0  501 -0.00000000000E+00 -0.00000000000E+00 -0.47308517083E+02  0.47308517083E+02  0.00000000000E+00 0.  1.
         23    2    1    2    0    0  0.75105637497E+02 -0.43040506284E+02  0.10834880048E+03  0.16695435261E+03  0.92956717488E+02 0.  0.
         23    2    1    2    0    0  0.18980191291E+02  0.68582055246E+02  0.22828527293E+03  0.25587357387E+03  0.91067963659E+02 0.  0.
        -11    1    4    4    0    0  0.43168433663E+02  0.76733066004E+02  0.19477532438E+03  0.21374962941E+03  0.00000000000E+00 0.  1.
         11    1    4    4    0    0 -0.24188242372E+02 -0.81510107585E+01  0.33509948549E+02  0.42123944464E+02  0.00000000000E+00 0. -1.
        -13    1    3    3    0    0  0.54318135167E+02  0.16548021345E+02  0.79163034601E+02  0.97422188775E+02  0.00000000000E+00 0.  1.
         13    1    3    3    0    0  0.20787502331E+02 -0.59588527629E+02  0.29185765877E+02  0.69532163838E+02  0.00000000000E+00 0. -1.
         -3    1    1    2    0  502 -0.94085828788E+02 -0.25541548961E+02  0.55997632119E+03  0.56839950228E+03  0.00000000000E+00 0.  1.
<scales pt_clust_5="13000.00000" pt_clust_6="13000.00000" pt_clust_7="13000.00000" pt_clust_8="13000.00000" pt_clust_9="97.49110"></scales>
<clustering>
<clus scale="   91.068">  5  6 -1 -1</clus>
<clus scale="   92.957">  7  8 -1 -1</clus>
<clus scale="   97.491">  1  9  2 -1</clus>
<clus scale="  112.737">  1  5  2 -1</clus>
<clus scale="   97.491">  1  5  2 -1</clus>
</clustering>
</event>
<event>
 9    1  0.1601012E-005  0.1056117E+03  0.7546771E-02  0.1269498E+00
         21   -1    0    0  501  502  0.00000000000E+00  0.00000000000E+00  0.35462110281E+03  0.35462110281E+03  0.00000000000E+00 0.  1.
         -1   -1    0    0    0  501 -0.00000000000E+00 -0.00000000000E+00 -0.92357473073E+02  0.92357473073E+02  0.00000000000E+00 0.  1.
         23    2    1    2    0    0  0.61014298043E+01 -0.44330722996E+02 -0.17579052692E+02  0.10333854822E+03  0.91473449738E+02 0.  0.
         23    2    1    2    0    0 -0.24207476338E+01  0.73573426336E+02  0.78988955048E+02  0.14063534072E+03  0.90111791447E+02 0.  0.
        -11    1    4    4    0    0  0.31469078005E+02 -0.33202274371E+01  0.15024544684E+02  0.35029469360E+02  0.00000000000E+00 0.  1.
         11    1    4    4    0    0 -0.33889825638E+02  0.76893653773E+02  0.63964410364E+02  0.10560587136E+03  0.00000000000E+00 0. -1.
        -13    1    3    3    0    0  0.42201441054E+02 -0.46271145377E+01 -0.24840597492E+02  0.49187672234E+02  0.00000000000E+00 0.  1.
         13    1    3    3    0    0 -0.36100011250E+02 -0.39703608458E+02  0.72615448002E+01  0.54150875983E+02  0.00000000000E+00 0. -1.
         -1    1    1    2    0  502 -0.36806821705E+01 -0.29242703340E+02  0.20085372739E+03  0.20300468695E+03  0.00000000000E+00 0.  1.
<scales pt_clust_5="13000.00000" pt_clust_6="13000.00000" pt_clust_7="13000.00000" pt_clust_8="13000.00000" pt_clust_9="29.47343"></scales>
<clustering>
<clus scale="   29.473">  1  9  2 -1</clus>
<clus scale="   90.112">  5  6 -1 -1</clus>
<clus scale="   91.473">  7  8 -1 -1</clus>
<clus scale="  104.435">  1  5  2 -1</clus>
<clus scale="   29.473">  1  5  2 -1</clus>
</clustering>
</event>
<event>
 9    1  0.1601012E-005  0.1012526E+03  0.7546771E-02  0.1278132E+00
         21   -1    0    0  501  502  0.00000000000E+00  0.00000000000E+00  0.28609666600E+03  0.28609666600E+03  0.00000000000E+00 0.  1.
          3   -1    0    0  502    0 -0.00000000000E+00 -0.00000000000E+00 -0.13919589667E+03  0.13919589667E+03  0.00000000000E+00 0. -1.
         23    2    1    2    0    0 -0.25979716922E+02  0.23554677879E+02 -0.51853748208E+02  0.10980758676E+03  0.90217106831E+02 0.  0.
         23    2    1    2    0    0  0.27333037647E+01 -0.90019092709E+02  0.26689572439E+02  0.12957031943E+03  0.89248117059E+02 0.  0.
        -13    1    4    4    0    0 -0.43098256162E+02 -0.38215749127E+02  0.10895348447E+02  0.58622621771E+02  0.00000000000E+00 0.  1.
         13    1    4    4    0    0  0.45831559926E+02 -0.51803343582E+02  0.15794223992E+02  0.70947697659E+02  0.00000000000E+00 0. -1.
        -13    1    3    3    0    0  0.24249402096E+02  0.26315205580E+02 -0.47279945487E+02  0.59295166683E+02  0.00000000000E+00 0. -1.
         13    1    3    3    0    0 -0.50229119017E+02 -0.27605277011E+01 -0.45738027206E+01  0.50512420074E+02  0.00000000000E+00 0.  1.
          3    1    1    2  501    0  0.23246413157E+02  0.66464414830E+02  0.17206494510E+03  0.18591465649E+03  0.00000000000E+00 0. -1.
<scales pt_clust_5="13000.00000" pt_clust_6="13000.00000" pt_clust_7="13000.00000" pt_clust_8="13000.00000" pt_clust_9="70.41246"></scales>
<clustering>
<clus scale="   70.412">  1  9  2 -1</clus>
<clus scale="   89.248">  5  6 -1 -1</clus>
<clus scale="   90.217">  7  8 -1 -1</clus>
<clus scale="  100.390">  1  5  2 -1</clus>
<clus scale="   70.412">  1  5  2 -1</clus>
</clustering>
</event>
<event>
 9    1  0.1601012E-005  0.1015947E+03  0.7546771E-02  0.1280974E+00
         -1   -1    0    0    0  501 -0.00000000000E+00  0.00000000000E+00  0.17179543535E+03  0.17179543535E+03  0.00000000000E+00 0.  1.
         21   -1    0    0  501  502  0.00000000000E+00 -0.00000000000E+00 -0.26726908670E+03  0.26726908670E+03  0.00000000000E+00 0.  1.
         23    2    1    2    0    0 -0.26197034853E+02  0.30690742205E+02  0.12642295011E+03  0.15942676467E+03  0.88351144213E+02 0.  0.
         23    2    1    2    0    0 -0.14614691131E+02  0.21940863050E+02 -0.10338048451E+03  0.14369014679E+03  0.96251457332E+02 0.  0.
        -11    1    4    4    0    0 -0.31831317233E+02  0.37871688036E+02 -0.10888458034E+03  0.11959661093E+03  0.00000000000E+00 0.  1.
         11    1    4    4    0    0  0.17216626103E+02 -0.15930824986E+02  0.55040958290E+01  0.24093535855E+02  0.00000000000E+00 0. -1.
        -13    1    3    3    0    0 -0.26569432049E+02 -0.27759261346E+02  0.44587985806E+02  0.58860851065E+02  0.00000000000E+00 0. -1.
         13    1    3    3    0    0  0.37239719549E+00  0.58450003552E+02  0.81834964308E+02  0.10056591360E+03  0.00000000000E+00 0.  1.
         -1    1    1    2    0  502  0.40811725984E+02 -0.52631605256E+02 -0.11851611695E+03  0.13594761060E+03  0.00000000000E+00 0.  1.
<scales pt_clust_5="13000.00000" pt_clust_6="13000.00000" pt_clust_7="13000.00000" pt_clust_8="13000.00000" pt_clust_9="66.60092"></scales>
<clustering>
<clus scale="   66.601">  2  9  1 -1</clus>
<clus scale="   88.351">  7  8 -1 -1</clus>
<clus scale="   94.144">  1  7  2 -1</clus>
<clus scale="   96.251">  5  6 -1 -1</clus>
<clus scale="   66.601">  2  5  1 -1</clus>
</clustering>
</event>
<event>
 9    1  0.1601012E-005  0.9731364E+02  0.7546771E-02  0.1287852E+00
         21   -1    0    0  501  502  0.00000000000E+00  0.00000000000E+00  0.21376052106E+03  0.21376052106E+03  0.00000000000E+00 0. -1.
          1   -1    0    0  502    0 -0.00000000000E+00 -0.00000000000E+00 -0.21505995112E+03  0.21505995112E+03  0.00000000000E+00 0. -1.
         23    2    1    2    0    0  0.13015088835E+02 -0.30722488692E+02 -0.15163019016E+03  0.17932175419E+03  0.89729109594E+02 0.  0.
         23    2    1    2    0    0 -0.15747184055E+02  0.47140390928E+01 -0.23480613674E+01  0.94596405794E+02  0.93127711379E+02 0.  0.
        -13    1    3    3    0    0 -0.66781518646E+00  0.31611887154E+02 -0.57009817768E+02  0.65191078443E+02  0.00000000000E+00 0.  1.
         13    1    3    3    0    0  0.13682904022E+02 -0.62334375846E+02 -0.94620372395E+02  0.11413067575E+03  0.00000000000E+00 0. -1.
        -13    1    4    4    0    0 -0.21706957868E+02  0.24857638854E+02 -0.39771386722E+02  0.51680338921E+02  0.00000000000E+00 0. -1.
         13    1    4    4    0    0  0.59597738130E+01 -0.20143599761E+02  0.37423325354E+02  0.42916066873E+02  0.00000000000E+00 0.  1.
          1    1    1    2  501    0  0.27320952192E+01  0.26008449599E+02  0.15267882148E+03  0.15490231219E+03  0.00000000000E+00 0. -1.
<scales pt_clust_5="13000.00000" pt_clust_6="13000.00000" pt_clust_7="13000.00000" pt_clust_8="13000.00000" pt_clust_9="26.15155"></scales>
<clustering>
<clus scale="   26.152">  1  9  2 -1</clus>
<clus scale="   89.729">  5  6 -1 -1</clus>
<clus scale="   93.128">  7  8 -1 -1</clus>
<clus scale="   94.066">  2  5  1 -1</clus>
<clus scale="   26.152">  1  5  2 -1</clus>
</clustering>
</event>
<event>
 9    1  0.1601012E-005  0.1240045E+03  0.7546771E-02  0.1237414E+00
          1   -1    0    0  502    0 -0.00000000000E+00  0.00000000000E+00  0.12201608222E+04  0.12201608222E+04  0.00000000000E+00 0. -1.
         21   -1    0    0  501  502  0.00000000000E+00 -0.00000000000E+00 -0.17295488695E+02  0.17295488695E+02  0.00000000000E+00 0. -1.
         23    2    1    2    0    0 -0.67121078916E+02 -0.31596679042E+02  0.67128399180E+03  0.68161362096E+03  0.92039889529E+02 0.  0.
         23    2    1    2    0    0  0.85491799891E+02  0.52424865443E+02  0.45294061945E+03  0.47244209081E+03  0.89381821746E+02 0.  0.
        -11    1    4    4    0    0  0.27069758462E+02 -0.20084921536E+02  0.62059281791E+02  0.70622449353E+02  0.00000000000E+00 0.  1.
         11    1    4    4    0    0  0.58422041429E+02  0.72509786979E+02  0.39088133766E+03  0.40181964146E+03  0.00000000000E+00 0. -1.
        -11    1    3    3    0    0 -0.69996574199E+02  0.14911725308E+02  0.39671496686E+03  0.40311864864E+03  0.00000000000E+00 0.  1.
         11    1    3    3    0    0  0.28754952834E+01 -0.46508404351E+02  0.27456902494E+03  0.27849497231E+03  0.00000000000E+00 0. -1.
          1    1    1    2  501    0 -0.18370720975E+02 -0.20828186401E+02  0.78640722272E+02  0.83400599142E+02  0.00000000000E+00 0. -1.
<scales pt_clust_5="13000.00000" pt_clust_6="13000.00000" pt_clust_7="13000.00000" pt_clust_8="13000.00000" pt_clust_9="27.77223"></scales>
<clustering>
<clus scale="   27.772">  2  9  1 -1</clus>
<clus scale="   89.382">  5  6 -1 -1</clus>
<clus scale="   92.040">  7  8 -1 -1</clus>
<clus scale="  122.045">  2  5  1 -1</clus>
<clus scale="   27.772">  2  5  1 -1</clus>
</clustering>
</event>
<event>
 9    1  0.1601012E-005  0.9781836E+02  0.7546771E-02  0.1285442E+00
         -4   -1    0    0    0  501 -0.00000000000E+00  0.00000000000E+00  0.20180857439E+03  0.20180857439E+03  0.00000000000E+00 0.  1.
         21   -1    0    0  501  502  0.00000000000E+00 -0.00000000000E+00 -0.95083429111E+02  0.95083429111E+02  0.00000000000E+00 0. -1.
         23    2    1    2    0    0 -0.96732174615E+01 -0.26355589265E+02  0.10807023561E+03  0.14437563971E+03  0.91525741163E+02 0.  0.
         23    2    1    2    0    0  0.39668565400E+02  0.33914168987E+02  0.29729568009E+02  0.10867018476E+03  0.90562662848E+02 0.  0.
        -11    1    4    4    0    0  0.18417642396E+02  0.56819808185E+02  0.44131950803E+02  0.74265262642E+02  0.00000000000E+00 0.  1.
         11    1    4    4    0    0  0.21250923004E+02 -0.22905639197E+02 -0.14402382795E+02  0.34404922115E+02  0.00000000000E+00 0. -1.
        -13    1    3    3    0    0 -0.32902436020E+02 -0.51149195691E+02  0.78731572893E+02  0.99486034628E+02  0.00000000000E+00 0.  1.
         13    1    3    3    0    0  0.23229218558E+02  0.24793606426E+02  0.29338662716E+02  0.44889605082E+02  0.00000000000E+00 0. -1.
         -4    1    1    2    0  502 -0.29995347939E+02 -0.75585797228E+01 -0.31074658336E+02  0.43846179036E+02  0.00000000000E+00 0.  1.
<scales pt_clust_5="13000.00000" pt_clust_6="13000.00000" pt_clust_7="13000.00000" pt_clust_8="13000.00000" pt_clust_9="30.93304"></scales>
<clustering>
<clus scale="   30.933">  2  9  1 -1</clus>
<clus scale="   90.563">  5  6 -1 -1</clus>
<clus scale="   91.526">  7  8 -1 -1</clus>
<clus scale="   96.918">  2  5  1 -1</clus>
<clus scale="   30.933">  2  5  1 -1</clus>
</clustering>
</event>
<event>
 9    1  0.1601012E-005  0.9730942E+02  0.7546771E-02  0.1286060E+00
         21   -1    0    0  501  502  0.00000000000E+00  0.00000000000E+00  0.26493578799E+02  0.26493578799E+02  0.00000000000E+00 0. -1.
          2   -1    0    0  502    0 -0.00000000000E+00 -0.00000000000E+00 -0.83857631974E+03  0.83857631974E+03  0.00000000000E+00 0. -1.
         23    2    1    2    0    0 -0.34498299202E+02 -0.10776935926E+02 -0.45507364495E+03  0.46555293001E+03  0.91330352652E+02 0.  0.
         23    2    1    2    0    0  0.28088974211E+02 -0.44238614267E+02 -0.30819913095E+03  0.32569147904E+03  0.91335588582E+02 0.  0.
        -11    1    3    3    0    0  0.28248158026E+02 -0.18035820683E+02 -0.12076220611E+03  0.12532661203E+03  0.00000000000E+00 0.  1.
         11    1    3    3    0    0 -0.62746457228E+02  0.72588847567E+01 -0.33431143884E+03  0.34022631798E+03  0.00000000000E+00 0. -1.
        -11    1    4    4    0    0  0.38422964085E+02  0.95425688074E+01 -0.62661153157E+02  0.74120205771E+02  0.00000000000E+00 0.  1.
         11    1    4    4    0    0 -0.10333989874E+02 -0.53781183075E+02 -0.24553797779E+03  0.25157127327E+03  0.00000000000E+00 0. -1.
          2    1    1    2  501    0  0.64093249902E+01  0.55015550193E+02 -0.48809965041E+02  0.73825489481E+02  0.00000000000E+00 0. -1.
<scales pt_clust_5="13000.00000" pt_clust_6="13000.00000" pt_clust_7="13000.00000" pt_clust_8="13000.00000" pt_clust_9="55.38764"></scales>
<clustering>
<clus scale="   55.388">  1  9  2 -1</clus>
<clus scale="   91.330">  5  6 -1 -1</clus>
<clus scale="   91.336">  7  8 -1 -1</clus>
<clus scale="   97.305">  2  5  1 -1</clus>
<clus scale="   55.388">  1  5  2 -1</clus>
</clustering>
</event>
<event>
 9    1  0.1601012E-005  0.1219326E+03  0.7546771E-02  0.1240520E+00
          1   -1    0    0  502    0 -0.00000000000E+00  0.00000000000E+00  0.43052153262E+03  0.43052153262E+03  0.00000000000E+00 0. -1.
         21   -1    0    0  501  502  0.00000000000E+00 -0.00000000000E+00 -0.43485093921E+02  0.43485093921E+02  0.00000000000E+00 0.  1.
         23    2    1    2    0    0 -0.70838037507E+02  0.59812993876E+02  0.21226538805E+03  0.24830943243E+03  0.89472663281E+02 0.  0.
         23    2    1    2    0    0  0.57580706867E+02 -0.37422145115E+02  0.15693151869E+03  0.19414793383E+03  0.91378136898E+02 0.  0.
        -11    1    4    4    0    0  0.38132803752E+02 -0.56179160335E+02  0.51255792475E+02  0.85072704437E+02  0.00000000000E+00 0.  1.
         11    1    4    4    0    0  0.19447903115E+02  0.18757015220E+02  0.10567572622E+03  0.10907522939E+03  0.00000000000E+00 0. -1.
        -13    1    3    3    0    0  0.68896519165E+01  0.48787231429E+02  0.66716923498E+02  0.82938586527E+02  0.00000000000E+00 0. -1.
         13    1    3    3    0    0 -0.77727689424E+02  0.11025762446E+02  0.14554846455E+03  0.16537084590E+03  0.00000000000E+00 0.  1.
          1    1    1    2  501    0  0.13257330640E+02 -0.22390848761E+02  0.17839531957E+02  0.31549260283E+02  0.00000000000E+00 0. -1.
<scales pt_clust_5="13000.00000" pt_clust_6="13000.00000" pt_clust_7="13000.00000" pt_clust_8="13000.00000" pt_clust_9="26.02128"></scales>
<clustering>
<clus scale="   26.021">  2  9  1 -1</clus>
<clus scale="   89.473">  7  8 -1 -1</clus>
<clus scale="   91.378">  5  6 -1 -1</clus>
<clus scale="  120.511">  1  7  2 -1</clus>
<clus scale="   26.021">  2  5  1 -1</clus>
</clustering>
</event>
<event>
 9    1  0.1601012E-005  0.9943840E+02  0.7546771E-02  0.1281523E+00
         21   -1    0    0  501  502  0.00000000000E+00  0.00000000000E+00  0.28066494566E+03  0.28066494566E+03  0.00000000000E+00 0. -1.
         -1   -1    0    0    0  501 -0.00000000000E+00 -0.00000000000E+00 -0.50607253913E+02  0.50607253913E+02  0.00000000000E+00 0.  1.
         23    2    1    2    0    0  0.10690388405E+02  0.42860893326E+02  0.49633937881E+02  0.11306916025E+03  0.91486428661E+02 0.  0.
         23    2    1    2    0    0 -0.24266001017E+02 -0.21299380706E+02  0.14704756950E+03  0.17621297184E+03  0.91572492187E+02 0.  0.
        -11    1    3    3    0    0 -0.35834493164E+01 -0.24981481359E+02 -0.38229070399E+01  0.25525088406E+02  0.00000000000E+00 0.  1.
         11    1    3    3    0    0  0.14273837721E+02  0.67842374685E+02  0.53456844921E+02  0.87544071845E+02  0.00000000000E+00 0. -1.
        -13    1    4    4    0    0  0.13385541237E+02 -0.48686840991E+02  0.79209591556E+02  0.93934767762E+02  0.00000000000E+00 0.  1.
         13    1    4    4    0    0 -0.37651542254E+02  0.27387460285E+02  0.67837977948E+02  0.82278204082E+02  0.00000000000E+00 0. -1.
         -1    1    1    2    0  502  0.13575612612E+02 -0.21561512619E+02  0.33376184360E+02  0.41990067476E+02  0.00000000000E+00 0.  1.
<scales pt_clust_5="13000.00000" pt_clust_6="13000.00000" pt_clust_7="13000.00000" pt_clust_8="13000.00000" pt_clust_9="25.47933"></scales>
<clustering>
<clus scale="   25.479">  1  9  2 -1</clus>
<clus scale="   91.486">  5  6 -1 -1</clus>
<clus scale="   91.572">  7  8 -1 -1</clus>
<clus scale="   99.359">  2  5  1 -1</clus>
<clus scale="   25.479">  1  5  2 -1</clus>
</clustering>
</event>
<event>
 9    1  0.1601012E-005  0.1012231E+03  0.7546771E-02  0.1277929E+00
         21   -1    0    0  501  502  0.00000000000E+00  0.00000000000E+00  0.36246674362E+03  0.36246674362E+03  0.00000000000E+00 0. -1.
          3   -1    0    0  502    0 -0.00000000000E+00 -0.00000000000E+00 -0.20740939931E+03  0.20740939931E+03  0.00000000000E+00 0. -1.
         23    2    1    2    0    0 -0.57902324388E+02 -0.74856542902E+01 -0.13655581422E+03  0.17418638941E+03  0.91020292608E+02 0.  0.
         23    2    1    2    0    0 -0.32111071596E+01 -0.55174919101E+02  0.17045937116E+02  0.10750863331E+03  0.90625379212E+02 0.  0.
        -11    1    3    3    0    0 -0.53687740540E+02  0.30209504336E+02 -0.11525248221E+03  0.13068329003E+03  0.00000000000E+00 0. -1.
         11    1    3    3    0    0 -0.42145838483E+01 -0.37695158626E+02 -0.21303332014E+02  0.43503099381E+02  0.00000000000E+00 0.  1.
        -13    1    4    4    0    0 -0.55592804738E+01 -0.78580495764E+02  0.25045692585E+02  0.82662486238E+02  0.00000000000E+00 0.  1.
         13    1    4    4    0    0  0.23481733142E+01  0.23405576663E+02 -0.79997554688E+01  0.24846147074E+02  0.00000000000E+00 0. -1.
          3    1    1    2  501    0  0.61113431548E+02  0.62660573392E+02  0.27456722141E+03  0.28818112021E+03  0.00000000000E+00 0. -1.
<scales pt_clust_5="13000.00000" pt_clust_6="13000.00000" pt_clust_7="13000.00000" pt_clust_8="13000.00000" pt_clust_9="87.52828"></scales>
<clustering>
<clus scale="   87.528">  1  9  2 -1</clus>
<clus scale="   90.625">  7  8 -1 -1</clus>
<clus scale="   91.020">  5  6 -1 -1</clus>
<clus scale="  100.868">  1  7  2 -1</clus>
<clus scale="   87.528">  1  5  2 -1</clus>
</clustering>
</event>
<event>
 9    1  0.1601012E-005  0.1119352E+03  0.7546771E-02  0.1257080E+00
         21   -1    0    0  501  502  0.00000000000E+00  0.00000000000E+00  0.89594639387E+02  0.89594639387E+02  0.00000000000E+00 0. -1.
          1   -1    0    0  502    0 -0.00000000000E+00 -0.00000000000E+00 -0.59926905360E+03  0.59926905360E+03  0.00000000000E+00 0. -1.
         23    2    1    2    0    0 -0.21345848380E+02 -0.59380811707E+02 -0.37198887995E+03  0.38844335107E+03  0.92362244126E+02 0.  0.
         23    2    1    2    0    0 -0.24423867392E+02  0.70110864412E+02 -0.19387034503E+03  0.22716234662E+03  0.92222353225E+02 0.  0.
        -11    1    3    3    0    0  0.35477873119E+02 -0.12914499804E+02 -0.10651907731E+03  0.11301228967E+03  0.00000000000E+00 0.  1.
         11    1    3    3    0    0 -0.56823721499E+02 -0.46466311902E+02 -0.26546980264E+03  0.27543106139E+03  0.00000000000E+00 0. -1.
        -13    1    4    4    0    0 -0.51530931515E+02  0.15998971142E+02 -0.62818528488E+02  0.82810455269E+02  0.00000000000E+00 0. -1.
         13    1    4    4    0    0  0.27107064123E+02  0.54111893270E+02 -0.13105181654E+03  0.14435189136E+03  0.00000000000E+00 0.  1.
          1    1    1    2  501    0  0.45769715772E+02 -0.10730052705E+02  0.56184810771E+02  0.73257995293E+02  0.00000000000E+00 0. -1.
<scales pt_clust_5="13000.00000" pt_clust_6="13000.00000" pt_clust_7="13000.00000" pt_clust_8="13000.00000" pt_clust_9="47.01065"></scales>
<clustering>
<clus scale="   47.011">  1  9  2 -1</clus>
<clus scale="   92.222">  7  8 -1 -1</clus>
<clus scale="   92.362">  5  6 -1 -1</clus>
<clus scale="  111.820">  1  7  2 -1</clus>
<clus scale="   47.011">  1  5  2 -1</clus>
</clustering>
</event>
<event>
 9    1  0.1601012E-005  0.1256511E+03  0.7546771E-02  0.1239774E+00
         -1   -1    0    0    0  501 -0.00000000000E+00  0.00000000000E+00  0.23721911273E+03  0.23721911273E+03  0.00000000000E+00 0.  1.
         21   -1    0    0  501  502  0.00000000000E+00 -0.00000000000E+00 -0.15388331938E+03  0.15388331938E+03  0.00000000000E+00 0.  1.
         23    2    1    2    0    0  0.16726239428E+02  0.44746233621E+02  0.10165316259E+03  0.15857177480E+03  0.11193591823E+03 0.  0.
         23    2    1    2    0    0 -0.78302685717E+02 -0.31496393229E+02  0.52032403149E+02  0.13810445606E+03  0.96136030858E+02 0.  0.
        -11    1    3    3    0    0  0.10580535492E+02  0.82633030541E+02  0.70680968143E+02  0.10925184083E+03  0.00000000000E+00 0.  1.
         11    1    3    3    0    0  0.61457039361E+01 -0.37886796920E+02  0.30972194443E+02  0.49319933966E+02  0.00000000000E+00 0. -1.
        -13    1    4    4    0    0 -0.77766622694E+02  0.16612279072E+02  0.36930668680E+02  0.87678330905E+02  0.00000000000E+00 0.  1.
         13    1    4    4    0    0 -0.53606302338E+00 -0.48108672301E+02  0.15101734469E+02  0.50426125154E+02  0.00000000000E+00 0. -1.
         -1    1    1    2    0  502  0.61576446289E+02 -0.13249840392E+02 -0.70349772385E+02  0.94426201251E+02  0.00000000000E+00 0.  1.
<scales pt_clust_5="13000.00000" pt_clust_6="13000.00000" pt_clust_7="13000.00000" pt_clust_8="13000.00000" pt_clust_9="62.98585"></scales>
<clustering>
<clus scale="   62.986">  2  9  1 -1</clus>
<clus scale="   96.136">  7  8 -1 -1</clus>
<clus scale="  111.806">  2  7  1 -1</clus>
<clus scale="  111.936">  5  6 -1 -1</clus>
<clus scale="   62.986">  2  5  1 -1</clus>
</clustering>
</event>
<event>
 9    1  0.1601012E-005  0.9219553E+02  0.7546771E-02  0.1302885E+00
          2   -1    0    0  502    0 -0.00000000000E+00  0.00000000000E+00  0.43759259989E+03  0.43759259989E+03  0.00000000000E+00 0. -1.
         21   -1    0    0  501  502  0.00000000000E+00 -0.00000000000E+00 -0.14346868101E+03  0.14346868101E+03  0.00000000000E+00 0. -1.
         23    2    1    2    0    0  0.21129249219E+02 -0.70808579651E+01  0.33407714288E+03  0.34716507185E+03  0.91757648145E+02 0.  0.
         23    2    1    2    0    0  0.53681380166E+02 -0.46823118962E+01  0.54279239385E+02  0.11300468913E+03  0.83187795468E+02 0.  0.
        -11    1    3    3    0    0 -0.26325648575E+02  0.21589500096E+02  0.18510880689E+03  0.18821375262E+03  0.00000000000E+00 0.  1.
         11    1    3    3    0    0  0.47454897794E+02 -0.28670358061E+02  0.14896833599E+03  0.15895131923E+03  0.00000000000E+00 0. -1.
        -13    1    4    4    0    0  0.73577076520E+02  0.59896321608E+01  0.52034072603E+02  0.90316148026E+02  0.00000000000E+00 0. -1.
         13    1    4    4    0    0 -0.19895696353E+02 -0.10671944057E+02  0.22451667823E+01  0.22688541099E+02  0.00000000000E+00 0.  1.
          2    1    1    2  501    0 -0.74810629385E+02  0.11763169861E+02 -0.94232463384E+02  0.12089151992E+03  0.00000000000E+00 0. -1.
<scales pt_clust_5="13000.00000" pt_clust_6="13000.00000" pt_clust_7="13000.00000" pt_clust_8="13000.00000" pt_clust_9="75.72980"></scales>
<clustering>
<clus scale="   75.730">  2  9  1 -1</clus>
<clus scale="   83.188">  7  8 -1 -1</clus>
<clus scale="   83.671">  2  7  1 -1</clus>
<clus scale="   91.758">  5  6 -1 -1</clus>
<clus scale="   75.730">  2  5  1 -1</clus>
</clustering>
</event>
<event>
 9    1  0.1601012E-005  0.9982913E+02  0.7546771E-02  0.1282169E+00
          1   -1    0    0  502    0 -0.00000000000E+00  0.00000000000E+00  0.47917868202E+02  0.47917868202E+02  0.00000000000E+00 0. -1.
         21   -1    0    0  501  502  0.00000000000E+00 -0.00000000000E+00 -0.31108883456E+03  0.31108883456E+03  0.00000000000E+00 0.  1.
         23    2    1    2    0    0  0.29896288849E+02  0.22573961908E+02 -0.46063816844E+02  0.10857282268E+03  0.90900004178E+02 0.  0.
         23    2    1    2    0    0 -0.56142725047E+01 -0.30813619154E+02 -0.17780548054E+03  0.20350702792E+03  0.93911247052E+02 0.  0.
        -11    1    3    3    0    0  0.10079620496E+02  0.27562281446E+02 -0.70709150755E+02  0.76557573814E+02  0.00000000000E+00 0.  1.
         11    1    3    3    0    0  0.19816668353E+02 -0.49883195385E+01  0.24645333911E+02  0.32015248867E+02  0.00000000000E+00 0. -1.
        -11    1    4    4    0    0  0.25386197529E+02  0.15441304528E+02 -0.11845580680E+03  0.12212563644E+03  0.00000000000E+00 0.  1.
         11    1    4    4    0    0 -0.31000470034E+02 -0.46254923682E+02 -0.59349673740E+02  0.81381391486E+02  0.00000000000E+00 0. -1.
          1    1    1    2  501    0 -0.24282016344E+02  0.82396572457E+01 -0.39301668974E+02  0.46926852158E+02  0.00000000000E+00 0. -1.
<scales pt_clust_5="13000.00000" pt_clust_6="13000.00000" pt_clust_7="13000.00000" pt_clust_8="13000.00000" pt_clust_9="25.64192"></scales>
<clustering>
<clus scale="   25.642">  2  9  1 -1</clus>
<clus scale="   90.900">  5  6 -1 -1</clus>
<clus scale="   93.911">  7  8 -1 -1</clus>
<clus scale="   97.002">  1  5  2 -1</clus>
<clus scale="   25.642">  2  5  1 -1</clus>
</clustering>
</event>
<event>
 9    1  0.1601012E-005  0.1227040E+03  0.7546771E-02  0.1239265E+00
         -3   -1    0    0    0  501 -0.00000000000E+00  0.00000000000E+00  0.33207009603E+03  0.33207009603E+03  0.00000000000E+00 0.  1.
         21   -1    0    0  501  502  0.00000000000E+00 -0.00000000000E+00 -0.21727788845E+03  0.21727788845E+03  0.00000000000E+00 0. -1.
         23    2    1    2    0    0  0.56421188626E+02  0.47636444391E+02  0.23807119324E+03  0.26515437906E+03  0.90423284198E+02 0.  0.
         23    2    1    2    0    0 -0.76311269790E+02 -0.10013075882E+03 -0.83924723582E+01  0.15632578572E+03  0.92291597298E+02 0.  0.
        -11    1    3    3    0    0  0.62796216419E+02  0.71546868184E+01  0.19798360197E+03  0.20782699774E+03  0.00000000000E+00 0.  1.
         11    1    3    3    0    0 -0.63750277923E+01  0.40481757572E+02  0.40087591265E+02  0.57327381319E+02  0.00000000000E+00 0. -1.
        -13    1    4    4    0    0 -0.36257174830E+01 -0.79143809619E+02  0.54541803370E+01  0.79414334420E+02  0.00000000000E+00 0.  1.
         13    1    4    4    0    0 -0.72685552307E+02 -0.20986949198E+02 -0.13846652695E+02  0.76911451304E+02  0.00000000000E+00 0. -1.
         -3    1    1    2    0  502  0.19890081164E+02  0.52494314426E+02 -0.11488651330E+03  0.12786781970E+03  0.00000000000E+00 0.  1.
<scales pt_clust_5="13000.00000" pt_clust_6="13000.00000" pt_clust_7="13000.00000" pt_clust_8="13000.00000" pt_clust_9="56.13616"></scales>
<clustering>
<clus scale="   56.136">  2  9  1 -1</clus>
<clus scale="   90.423">  5  6 -1 -1</clus>
<clus scale="   92.292">  7  8 -1 -1</clus>
<clus scale="  121.305">  1  5  2 -1</clus>
<clus scale="   56.136">  2  5  1 -1</clus>
</clustering>
</event>
<event>
 9    1  0.1601012E-005  0.1044023E+03  0.7546771E-02  0.1271421E+00
         21   -1    0    0  501  502  0.00000000000E+00  0.00000000000E+00  0.75936598511E+02  0.75936598511E+02  0.00000000000E+00 0. -1.
          3   -1    0    0  502    0 -0.00000000000E+00 -0.00000000000E+00 -0.36670269622E+03  0.36670269622E+03  0.00000000000E+00 0. -1.
         23    2    1    2    0    0  0.10568124993E+02  0.36973733282E+02 -0.20186900477E+03  0.22509458235E+03  0.91857137449E+02 0.  0.
         23    2    1    2    0    0  0.27139167262E+02 -0.81766333527E+02 -0.96072335413E+02  0.15855572163E+03  0.92129015683E+02 0.  0.
        -11    1    4    4    0    0  0.52890793355E+01 -0.59538695773E+02 -0.10939427411E+03  0.12465928711E+03  0.00000000000E+00 0. -1.
         11    1    4    4    0    0  0.21850087926E+02 -0.22227637754E+02  0.13321938695E+02  0.33896434519E+02  0.00000000000E+00 0.  1.
        -13    1    3    3    0    0 -0.26210093088E+02  0.35688144398E+02 -0.17226428502E+03  0.17786398321E+03  0.00000000000E+00 0. -1.
         13    1    3    3    0    0  0.36778218081E+02  0.12855888841E+01 -0.29604719747E+02  0.47230599142E+02  0.00000000000E+00 0.  1.
          3    1    1    2  501    0 -0.37707292254E+02  0.44792600245E+02  0.71752424672E+01  0.58988990755E+02  0.00000000000E+00 0. -1.
<scales pt_clust_5="13000.00000" pt_clust_6="13000.00000" pt_clust_7="13000.00000" pt_clust_8="13000.00000" pt_clust_9="58.55098"></scales>
<clustering>
<clus scale="   58.551">  1  9  2 -1</clus>
<clus scale="   91.857">  7  8 -1 -1</clus>
<clus scale="   92.129">  5  6 -1 -1</clus>
<clus scale="  104.162">  2  7  1 -1</clus>
<clus scale="   58.551">  1  5  2 -1</clus>
</clustering>
</event>
<event>
 9    1  0.1601012E-005  0.1209658E+03  0.7546771E-02  0.1244061E+00
         21   -1    0    0  501  502  0.00000000000E+00  0.00000000000E+00  0.12824981909E+03  0.12824981909E+03  0.00000000000E+00 0.  1.
          1   -1    0    0  502    0 -0.00000000000E+00 -0.00000000000E+00 -0.28930874441E+03  0.28930874441E+03  0.00000000000E+00 0. -1.
         23    2    1    2    0    0  0.58903744985E+02  0.18605744028E+01 -0.21589222765E+03  0.24478173815E+03  0.99174253018E+02 0.  0.
         23    2    1    2    0    0 -0.52436001487E+02  0.34252269482E+02  0.25640751655E+02  0.12589213474E+03  0.10615379988E+03 0.  0.
        -11    1    4    4    0    0 -0.20536370523E+02  0.61991382078E+02 -0.15267983637E+02  0.67065529824E+02  0.00000000000E+00 0. -1.
         11    1    4    4    0    0 -0.31899630964E+02 -0.27739112596E+02  0.40908735292E+02  0.58826604921E+02  0.00000000000E+00 0.  1.
        -13    1    3    3    0    0  0.19332496983E+02 -0.46650774750E+02 -0.72859190731E+02  0.88648191737E+02  0.00000000000E+00 0.  1.
         13    1    3    3    0    0  0.39571248002E+02  0.48511349153E+02 -0.14303303691E+03  0.15613354641E+03  0.00000000000E+00 0. -1.
          1    1    1    2  501    0 -0.64677434980E+01 -0.36112843884E+02  0.29192550666E+02  0.46884690612E+02  0.00000000000E+00 0. -1.
<scales pt_clust_5="13000.00000" pt_clust_6="13000.00000" pt_clust_7="13000.00000" pt_clust_8="13000.00000" pt_clust_9="36.68745"></scales>
<clustering>
<clus scale="   36.687">  1  9  2 -1</clus>
<clus scale="   99.174">  7  8 -1 -1</clus>
<clus scale="  106.154">  5  6 -1 -1</clus>
<clus scale="  114.890">  2  7  1 -1</clus>
<clus scale="   36.687">  1  5  2 -1</clus>
</clustering>
</event>
<event>
 9    1  0.1601012E-005  0.9306979E+02  0.7546771E-02  0.1295984E+00
          1   -1    0    0  502    0 -0.00000000000E+00  0.00000000000E+00  0.52674619480E+03  0.52674619480E+03  0.00000000000E+00 0. -1.
         21   -1    0    0  501  502  0.00000000000E+00 -0.00000000000E+00 -0.30307349829E+02  0.30307349829E+02  0.00000000000E+00 0. -1.
         23    2    1    2    0    0 -0.36117262374E+01 -0.63080242374E+01  0.23337603258E+03  0.25035170257E+03  0.90325891411E+02 0.  0.
         23    2    1    2    0    0  0.21513949896E+02  0.31818895606E+02  0.25710575730E+03  0.27497203470E+03  0.89615608419E+02 0.  0.
        -11    1    4    4    0    0  0.43411695070E+02  0.62961426953E+01  0.56309221663E+02  0.71378884314E+02  0.00000000000E+00 0. -1.
         11    1    4    4    0    0 -0.21897745174E+02  0.25522752911E+02  0.20079653563E+03  0.20359315038E+03  0.00000000000E+00 0.  1.
        -11    1    3    3    0    0  0.29628299037E+02 -0.25107225115E+02  0.18333973529E+03  0.18740775703E+03  0.00000000000E+00 0. -1.
         11    1    3    3    0    0 -0.33240025274E+02  0.18799200878E+02  0.50036297288E+02  0.62943945540E+02  0.00000000000E+00 0.  1.
          1    1    1    2  501    0 -0.17902223658E+02 -0.25510871368E+02  0.59570550917E+01  0.31729807362E+02  0.00000000000E+00 0. -1.
<scales pt_clust_5="13000.00000" pt_clust_6="13000.00000" pt_clust_7="13000.00000" pt_clust_8="13000.00000" pt_clust_9="31.16559"></scales>
<clustering>
<clus scale="   31.166">  2  9  1 -1</clus>
<clus scale="   89.616">  5  6 -1 -1</clus>
<clus scale="   90.326">  7  8 -1 -1</clus>
<clus scale="   92.381">  2  5  1 -1</clus>
<clus scale="   31.166">  2  5  1 -1</clus>
</clustering>
</event>
<event>
 9    1  0.1601012E-005  0.1320698E+03  0.7546771E-02  0.1225511E+00
          1   -1    0    0  502    0 -0.00000000000E+00  0.00000000000E+00  0.90126584559E+02  0.90126584559E+02  0.00000000000E+00 0. -1.
         21   -1    0    0  501  502  0.00000000000E+00 -0.00000000000E+00 -0.37335260830E+03  0.37335260830E+03  0.00000000000E+00 0. -1.
         23    2    1    2    0    0  0.17411413815E+02  0.76917218453E+02 -0.38237891762E+02  0.13812098053E+03  0.10675136098E+03 0.  0.
         23    2    1    2    0    0  0.11138215218E+02 -0.78491450704E+02 -0.69242413181E+02  0.14730171230E+03  0.10304520849E+03 0.  0.
        -11    1    3    3    0    0 -0.37763895542E+02  0.35382739138E+02 -0.45199613596E+02  0.68709934541E+02  0.00000000000E+00 0.  1.
         11    1    3    3    0    0  0.55175309357E+02  0.41534479316E+02  0.69617218343E+01  0.69411045991E+02  0.00000000000E+00 0. -1.
        -13    1    4    4    0    0  0.54121892075E+02 -0.20730384878E+02 -0.28719104507E+02  0.64681643630E+02  0.00000000000E+00 0. -1.
         13    1    4    4    0    0 -0.42983676857E+02 -0.57761065826E+02 -0.40523308674E+02  0.82620068672E+02  0.00000000000E+00 0.  1.
          1    1    1    2  501    0 -0.28549629033E+02  0.15742322506E+01 -0.17574571880E+03  0.17805650003E+03  0.00000000000E+00 0. -1.
<scales pt_clust_5="13000.00000" pt_clust_6="13000.00000" pt_clust_7="13000.00000" pt_clust_8="13000.00000" pt_clust_9="28.59300"></scales>
<clustering>
<clus scale="   28.593">  2  9  1 -1</clus>
<clus scale="  103.045">  7  8 -1 -1</clus>
<clus scale="  106.751">  5  6 -1 -1</clus>
<clus scale="  129.093">  2  7  1 -1</clus>
<clus scale="   28.593">  2  5  1 -1</clus>
</clustering>
</event>
<event>
 9    1  0.1601012E-005  0.1054994E+03  0.7546771E-02  0.1270153E+00
         21   -1    0    0  501  502  0.00000000000E+00  0.00000000000E+00  0.90402290798E+02  0.90402290798E+02  0.00000000000E+00 0.  1.
         -1   -1    0    0    0  501 -0.00000000000E+00 -0.00000000000E+00 -0.44318939674E+03  0.44318939674E+03  0.00000000000E+00 0.  1.
         23    2    1    2    0    0 -0.11401385394E+01 -0.33242619285E+02 -0.27867652740E+03  0.29722002277E+03  0.97840499565E+02 0.  0.
         23    2    1    2    0    0  0.23138361463E+02  0.31092586330E+02 -0.13452155706E+03  0.17204413738E+03  0.10000501587E+03 0.  0.
        -13    1    3    3    0    0 -0.31329956748E+02 -0.56859950469E+02 -0.16918070974E+03  0.18120908561E+03  0.00000000000E+00 0. -1.
         13    1    3    3    0    0  0.30189818209E+02  0.23617331184E+02 -0.10949581766E+03  0.11601093716E+03  0.00000000000E+00 0.  1.
        -13    1    4    4    0    0  0.23390814832E+02  0.64086806874E+02 -0.11498061554E+03  0.13369663789E+03  0.00000000000E+00 0.  1.
         13    1    4    4    0    0 -0.25245336940E+00 -0.32994220544E+02 -0.19540941517E+02  0.38347499493E+02  0.00000000000E+00 0. -1.
         -1    1    1    2    0  502 -0.21998222923E+02  0.21500329547E+01  0.60410978520E+02  0.64327527383E+02  0.00000000000E+00 0.  1.
<scales pt_clust_5="13000.00000" pt_clust_6="13000.00000" pt_clust_7="13000.00000" pt_clust_8="13000.00000" pt_clust_9="22.10304"></scales>
<clustering>
<clus scale="   22.103">  1  9  2 -1</clus>
<clus scale="   97.840">  5  6 -1 -1</clus>
<clus scale="  100.005">  7  8 -1 -1</clus>
<clus scale="  103.450">  2  5  1 -1</clus>
<clus scale="   22.103">  1  5  2 -1</clus>
</clustering>
</event>
<event>
 9    1  0.1601012E-005  0.1127910E+03  0.7546771E-02  0.1255584E+00
         21   -1    0    0  501  502  0.00000000000E+00  0.00000000000E+00  0.25746876787E+03  0.25746876787E+03  0.00000000000E+00 0. -1.
          1   -1    0    0  502    0 -0.00000000000E+00 -0.00000000000E+00 -0.21352851573E+03  0.21352851573E+03  0.00000000000E+00 0. -1.
         23    2    1    2    0    0  0.76878087185E+02 -0.31842942185E+02 -0.11265941546E+03  0.16831223045E+03  0.93341575789E+02 0.  0.
         23    2    1    2    0    0  0.26118286696E+02  0.70405948647E+02  0.10833682772E+02  0.12008417464E+03  0.93078879510E+02 0.  0.
        -11    1    3    3    0    0 -0.12219217119E+02  0.18664578009E+02 -0.15706610557E+02  0.27283206455E+02  0.00000000000E+00 0.  1.
         11    1    3    3    0    0  0.89097304304E+02 -0.50507520194E+02 -0.96952804901E+02  0.14102902399E+03  0.00000000000E+00 0. -1.
        -13    1    4    4    0    0  0.20618457362E+02 -0.18795253873E+02 -0.74181603548E+01  0.28868866538E+02  0.00000000000E+00 0. -1.
         13    1    4    4    0    0  0.54998293339E+01  0.89201202520E+02  0.18251843127E+02  0.91215308097E+02  0.00000000000E+00 0.  1.
          1    1    1    2  501    0 -0.10299637388E+03 -0.38563006462E+02  0.14576598483E+03  0.18260087851E+03  0.00000000000E+00 0. -1.
<scales pt_clust_5="13000.00000" pt_clust_6="13000.00000" pt_clust_7="13000.00000" pt_clust_8="13000.00000" pt_clust_9="109.97890"></scales>
<clustering>
<clus scale="   93.079">  7  8 -1 -1</clus>
<clus scale="   93.342">  5  6 -1 -1</clus>
<clus scale="  109.979">  1  9  2 -1</clus>
<clus scale="  112.574">  1  7  2 -1</clus>
<clus scale="  109.979">  1  5  2 -1</clus>
</clustering>
</event>
<event>
 9    1  0.1601012E-005  0.1723988E+03  0.7546771E-02  0.1175546E+00
         -3   -1    0    0    0  501 -0.00000000000E+00  0.00000000000E+00  0.13498230752E+03  0.13498230752E+03  0.00000000000E+00 0.  1.
         21   -1    0    0  501  502  0.00000000000E+00 -0.00000000000E+00 -0.35399572725E+03  0.35399572725E+03  0.00000000000E+00 0.  1.
         23    2    1    2    0    0 -0.10048291061E+03 -0.89162315611E+02 -0.14639002275E+02  0.16288971195E+03  0.90950668073E+02 0.  0.
         23    2    1    2    0    0  0.11857209055E+03  0.11891768318E+03 -0.97883875540E+02  0.21404888401E+03  0.89637690866E+02 0.  0.
        -13    1    3    3    0    0 -0.42227012608E+02 -0.94645422213E+02 -0.69132928924E+01  0.10386852342E+03  0.00000000000E+00 0. -1.
         13    1    3    3    0    0 -0.58255898001E+02  0.54831066021E+01 -0.77257093823E+01  0.59021188529E+02  0.00000000000E+00 0.  1.
        -13    1    4    4    0    0  0.38178315881E+02  0.79900572161E+02 -0.10690499259E+02  0.89196255581E+02  0.00000000000E+00 0.  1.
         13    1    4    4    0    0  0.80393774665E+02  0.39017111018E+02 -0.87193376282E+02  0.12485262842E+03  0.00000000000E+00 0. -1.
         -3    1    1    2    0  502 -0.18089179937E+02 -0.29755367569E+02 -0.10649054192E+03  0.11203943881E+03  0.00000000000E+00 0.  1.
<scales pt_clust_5="13000.00000" pt_clust_6="13000.00000" pt_clust_7="13000.00000" pt_clust_8="13000.00000" pt_clust_9="34.82241"></scales>
<clustering>
<clus scale="   34.822">  2  9  1 -1</clus>
<clus scale="   89.638">  7  8 -1 -1</clus>
<clus scale="   90.951">  5  6 -1 -1</clus>
<clus scale="  171.710">  2  7  1 -1</clus>
<clus scale="   34.822">  2  5  1 -1</clus>
</clustering>
</event>
<event>
 9    1  0.1601012E-005  0.1233685E+03  0.7546771E-02  0.1237802E+00
         21   -1    0    0  501  502  0.00000000000E+00  0.00000000000E+00  0.35720659893E+02  0.35720659893E+02  0.00000000000E+00 0. -1.
          1   -1    0    0  502    0 -0.00000000000E+00 -0.00000000000E+00 -0.56586101955E+03  0.56586101955E+03  0.00000000000E+00 0. -1.
         23    2    1    2    0    0 -0.32145983578E+02 -0.72072710915E+02 -0.27904148485E+03  0.30453659418E+03  0.93008316889E+02 0.  0.
         23    2    1    2    0    0  0.82613426502E+01  0.85799067901E+02 -0.22959916659E+03  0.26210046620E+03  0.92472413421E+02 0.  0.
        -13    1    3    3    0    0  0.30362542774E+02 -0.18620481986E+02 -0.12421457645E+03  0.12922022813E+03  0.00000000000E+00 0.  1.
         13    1    3    3    0    0 -0.62508526352E+02 -0.53452228929E+02 -0.15482690839E+03  0.17531636606E+03  0.00000000000E+00 0. -1.
        -13    1    4    4    0    0  0.40555665178E+02  0.51554293056E+02 -0.18858913419E+03  0.19967090085E+03  0.00000000000E+00 0.  1.
         13    1    4    4    0    0 -0.32294322528E+02  0.34244774845E+02 -0.41010032403E+02  0.62429565348E+02  0.00000000000E+00 0. -1.
          1    1    1    2  501    0  0.23884640928E+02 -0.13726356986E+02 -0.21499708213E+02  0.34944619065E+02  0.00000000000E+00 0. -1.
<scales pt_clust_5="13000.00000" pt_clust_6="13000.00000" pt_clust_7="13000.00000" pt_clust_8="13000.00000" pt_clust_9="27.54794"></scales>
<clustering>
<clus scale="   27.548">  1  9  2 -1</clus>
<clus scale="   92.472">  7  8 -1 -1</clus>
<clus scale="   93.008">  5  6 -1 -1</clus>
<clus scale="  122.965">  1  7  2 -1</clus>
<clus scale="   27.548">  1  5  2 -1</clus>
</clustering>
</event>
<event>
 9    1  0.1601012E-005  0.1708191E+03  0.7546771E-02  0.1193189E+00
          1   -1    0    0  502    0 -0.00000000000E+00  0.00000000000E+00  0.44167891677E+03  0.44167891677E+03  0.00000000000E+00 0. -1.
         21   -1    0    0  501  502  0.00000000000E+00 -0.00000000000E+00 -0.41999584061E+03  0.41999584061E+03  0.00000000000E+00 0. -1.
         23    2    1    2    0    0 -0.43795986016E+02  0.57293781620E+02  0.10662304485E+03  0.15983776889E+03  0.94757442280E+02 0.  0.
         23    2    1    2    0    0  0.14847769310E+03  0.43382408797E+02  0.26674132483E+03  0.32134561233E+03  0.90467726037E+02 0.  0.
        -13    1    4    4    0    0  0.99033189766E+02  0.64954889997E+02  0.22049927883E+03  0.25029311292E+03  0.00000000000E+00 0. -1.
         13    1    4    4    0    0  0.49444503335E+02 -0.21572481200E+02  0.46242045994E+02  0.71052499413E+02  0.00000000000E+00 0.  1.
        -13    1    3    3    0    0  0.52271018160E+00  0.72250016415E+02  0.67021420749E+02  0.98550540014E+02  0.00000000000E+00 0.  1.
         13    1    3    3    0    0 -0.44318696197E+02 -0.14956234795E+02  0.39601624101E+02  0.61287228876E+02  0.00000000000E+00 0. -1.
          1    1    1    2  501    0 -0.10468170708E+03 -0.10067619042E+03 -0.35168129351E+03  0.38049137615E+03  0.00000000000E+00 0. -1.
<scales pt_clust_5="13000.00000" pt_clust_6="13000.00000" pt_clust_7="13000.00000" pt_clust_8="13000.00000" pt_clust_9="144.89568"></scales>
<clustering>
<clus scale="   90.468">  5  6 -1 -1</clus>
<clus scale="   94.757">  7  8 -1 -1</clus>
<clus scale="  119.078">  1  7  2 -1</clus>
<clus scale="  144.896">  2  9  1 -1</clus>
<clus scale="  144.896">  2  5  1 -1</clus>
</clustering>
</event>
<event>
 9    1  0.1601012E-005  0.9402488E+02  0.7546771E-02  0.1294067E+00
         21   -1    0    0  501  502  0.00000000000E+00  0.00000000000E+00  0.11148041408E+03  0.11148041408E+03  0.00000000000E+00 0.  1.
          2   -1    0    0  502    0 -0.00000000000E+00 -0.00000000000E+00 -0.26302180833E+03  0.26302180833E+03  0.00000000000E+00 0. -1.
         23    2    1    2    0    0  0.99781388677E+01  0.11524049323E+02 -0.16736876471E+03  0.19094591815E+03  0.90640351333E+02 0.  0.
         23    2    1    2    0    0 -0.25265024762E+02 -0.73318141569E+02  0.18009151462E+01  0.11837240927E+03  0.89414275270E+02 0.  0.
        -11    1    3    3    0    0  0.49647055426E+02  0.85598037558E+01 -0.74711719588E+02  0.90110717434E+02  0.00000000000E+00 0. -1.
         11    1    3    3    0    0 -0.39668916558E+02  0.29642455670E+01 -0.92657045124E+02  0.10083520072E+03  0.00000000000E+00 0.  1.
        -13    1    4    4    0    0 -0.31466592647E+02 -0.33143035864E+02 -0.39511784077E+02  0.60413478297E+02  0.00000000000E+00 0. -1.
         13    1    4    4    0    0  0.62015678843E+01 -0.40175105705E+02  0.41312699223E+02  0.57958930975E+02  0.00000000000E+00 0.  1.
          2    1    1    2  501    0  0.15286885895E+02  0.61794092246E+02  0.14026455318E+02  0.65183894987E+02  0.00000000000E+00 0. -1.
<scales pt_clust_5="13000.00000" pt_clust_6="13000.00000" pt_clust_7="13000.00000" pt_clust_8="13000.00000" pt_clust_9="63.65688"></scales>
<clustering>
<clus scale="   63.657">  1  9  2 -1</clus>
<clus scale="   89.414">  7  8 -1 -1</clus>
<clus scale="   90.640">  5  6 -1 -1</clus>
<clus scale="   92.844">  1  7  2 -1</clus>
<clus scale="   63.657">  1  5  2 -1</clus>
</clustering>
</event>
<event>
 9    1  0.1601012E-005  0.9697323E+02  0.7546771E-02  0.1287975E+00
          2   -1    0    0  502    0 -0.00000000000E+00  0.00000000000E+00  0.29771263354E+03  0.29771263354E+03  0.00000000000E+00 0. -1.
         21   -1    0    0  501  502  0.00000000000E+00 -0.00000000000E+00 -0.13257435461E+03  0.13257435461E+03  0.00000000000E+00 0. -1.
         23    2    1    2    0    0  0.31697288454E+02  0.33013133400E+02  0.15242045294E+03  0.18351531721E+03  0.91385404219E+02 0.  0.
         23    2    1    2    0    0 -0.10247212232E+02 -0.15739138304E+02  0.11164518055E+03  0.14408224521E+03  0.89119701578E+02 0.  0.
        -13    1    3    3    0    0 -0.10183937531E+02  0.54127239094E+02  0.76217806743E+02  0.94035230953E+02  0.00000000000E+00 0. -1.
         13    1    3    3    0    0  0.41881225986E+02 -0.21114105694E+02  0.76202646195E+02  0.89480086256E+02  0.00000000000E+00 0.  1.
        -13    1    4    4    0    0  0.33223047481E+02 -0.12463464307E+02  0.15906982280E+02  0.38886256078E+02  0.00000000000E+00 0.  1.
         13    1    4    4    0    0 -0.43470259714E+02 -0.32756739974E+01  0.95738198274E+02  0.10519598913E+03  0.00000000000E+00 0. -1.
          2    1    1    2  501    0 -0.21450076222E+02 -0.17273995095E+02 -0.98927354569E+02  0.10268942574E+03  0.00000000000E+00 0. -1.
<scales pt_clust_5="13000.00000" pt_clust_6="13000.00000" pt_clust_7="13000.00000" pt_clust_8="13000.00000" pt_clust_9="27.54082"></scales>
<clustering>
<clus scale="   27.541">  2  9  1 -1</clus>
<clus scale="   89.120">  7  8 -1 -1</clus>
<clus scale="   91.385">  5  6 -1 -1</clus>
<clus scale="   94.841">  2  7  1 -1</clus>
<clus scale="   27.541">  2  5  1 -1</clus>
</clustering>
</event>
<event>
 9    1  0.1601012E-005  0.1198048E+03  0.7546771E-02  0.1244405E+00
          2   -1    0    0  502    0 -0.00000000000E+00  0.00000000000E+00  0.37400951341E+03  0.37400951341E+03  0.00000000000E+00 0. -1.
         21   -1    0    0  501  502  0.00000000000E+00 -0.00000000000E+00 -0.12780256954E+03  0.12780256954E+03  0.00000000000E+00 0. -1.
         23    2    1    2    0    0 -0.63613989046E+02 -0.47529013154E+02  0.31858372293E+03  0.34116797267E+03  0.92705179814E+02 0.  0.
         23    2    1    2    0    0  0.44371175260E+02  0.16310041256E+02 -0.71388145676E+02  0.12395777107E+03  0.89635054677E+02 0.  0.
        -11    1    4    4    0    0  0.31730986013E+02 -0.23647833596E+02 -0.71870631262E+02  0.82045494362E+02  0.00000000000E+00 0. -1.
         11    1    4    4    0    0  0.12640189247E+02  0.39957874852E+02  0.48248558509E+00  0.41912276713E+02  0.00000000000E+00 0.  1.
        -13    1    3    3    0    0  0.10958296636E+02 -0.36871243447E+02  0.17328284150E+03  0.17750074934E+03  0.00000000000E+00 0. -1.
         13    1    3    3    0    0 -0.74572285682E+02 -0.10657769707E+02  0.14530088143E+03  0.16366722333E+03  0.00000000000E+00 0.  1.
          2    1    1    2  501    0  0.19242813786E+02  0.31218971898E+02 -0.98863338568E+00  0.36686339211E+02  0.00000000000E+00 0. -1.
<scales pt_clust_5="13000.00000" pt_clust_6="13000.00000" pt_clust_7="13000.00000" pt_clust_8="13000.00000" pt_clust_9="36.67302"></scales>
<clustering>
<clus scale="   36.673">  2  9  1 -1</clus>
<clus scale="   89.635">  5  6 -1 -1</clus>
<clus scale="   92.705">  7  8 -1 -1</clus>
<clus scale="  117.445">  2  5  1 -1</clus>
<clus scale="   36.673">  2  5  1 -1</clus>
</clustering>
</event>
<event>
 9    1  0.1601012E-005  0.1132179E+03  0.7546771E-02  0.1260028E+00
         21   -1    0    0  501  502  0.00000000000E+00  0.00000000000E+00  0.42307647345E+02  0.42307647345E+02  0.00000000000E+00 0.  1.
          4   -1    0    0  502    0 -0.00000000000E+00 -0.00000000000E+00 -0.42340944129E+03  0.42340944129E+03  0.00000000000E+00 0. -1.
         23    2    1    2    0    0  0.45257889816E+02  0.18508759982E+02 -0.27845789874E+03  0.29708462023E+03  0.91266748724E+02 0.  0.
         23    2    1    2    0    0 -0.38961310515E+02  0.31185553444E+01 -0.90321876250E+02  0.14295719177E+03  0.10368706884E+03 0.  0.
        -11    1    4    4    0    0  0.35877898248E+02  0.13398352943E+01 -0.27359745694E+02  0.45139499618E+02  0.00000000000E+00 0. -1.
         11    1    4    4    0    0 -0.74839208763E+02  0.17787200501E+01 -0.62962130557E+02  0.97817692150E+02  0.00000000000E+00 0.  1.
        -13    1    3    3    0    0  0.13079783628E+02  0.49329135865E+02 -0.90303584289E+02  0.10372647550E+03  0.00000000000E+00 0.  1.
         13    1    3    3    0    0  0.32178106189E+02 -0.30820375883E+02 -0.18815431445E+03  0.19335814473E+03  0.00000000000E+00 0. -1.
          4    1    1    2  501    0 -0.62965793011E+01 -0.21627315326E+02 -0.12322018957E+02  0.25675276635E+02  0.00000000000E+00 0. -1.
<scales pt_clust_5="13000.00000" pt_clust_6="13000.00000" pt_clust_7="13000.00000" pt_clust_8="13000.00000" pt_clust_9="22.52527"></scales>
<clustering>
<clus scale="   22.525">  1  9  2 -1</clus>
<clus scale="   91.267">  7  8 -1 -1</clus>
<clus scale="  101.965">  2  7  1 -1</clus>
<clus scale="  103.687">  5  6 -1 -1</clus>
<clus scale="   22.525">  1  5  2 -1</clus>
</clustering>
</event>
<event>
 9    1  0.2360358E-005  0.1019507E+03  0.7546771E-02  0.1280959E+00
          2   -1    0    0  502    0 -0.00000000000E+00  0.00000000000E+00  0.42670893183E+03  0.42670893183E+03  0.00000000000E+00 0. -1.
         21   -1    0    0  501  502  0.00000000000E+00 -0.00000000000E+00 -0.87171030343E+02  0.87171030343E+02  0.00000000000E+00 0. -1.
         23    2    1    2    0    0  0.93382001479E+01  0.15404721159E+02  0.36837697041E+03  0.38000307204E+03  0.91521773459E+02 0.  0.
         23    2    1    2    0    0 -0.24792331561E+02  0.13867269186E+01 -0.93664666991E+01  0.10387747108E+03  0.10043015276E+03 0.  0.
        -11    1    3    3    0    0  0.45357402699E+02 -0.79308797787E+01  0.24716397107E+03  0.25141643031E+03  0.00000000000E+00 0. -1.
         11    1    3    3    0    0 -0.36019202552E+02  0.23335600937E+02  0.12121299934E+03  0.12858664174E+03  0.00000000000E+00 0.  1.
        -11    1    4    4    0    0 -0.44007728578E+02 -0.41871055904E+01 -0.44955998859E+02  0.63049614283E+02  0.00000000000E+00 0.  1.
         11    1    4    4    0    0  0.19215397016E+02  0.55738325090E+01  0.35589532160E+02  0.40827856798E+02  0.00000000000E+00 0. -1.
          2    1    1    2  501    0  0.15454131414E+02 -0.16791448077E+02 -0.19472602222E+02  0.29999419054E+02  0.00000000000E+00 0. -1.
<scales pt_clust_5="13000.00000" pt_clust_6="13000.00000" pt_clust_7="13000.00000" pt_clust_8="13000.00000" pt_clust_9="22.82067"></scales>
<clustering>
<clus scale="   22.821">  2  9  1 -1</clus>
<clus scale="   91.522">  5  6 -1 -1</clus>
<clus scale="   93.188">  1  5  2 -1</clus>
<clus scale="  100.430">  7  8 -1 -1</clus>
<clus scale="   22.821">  2  5  1 -1</clus>
</clustering>
</event>
<event>
 9    1  0.1601012E-005  0.1314943E+03  0.7546771E-02  0.1226885E+00
         -1   -1    0    0    0  501 -0.00000000000E+00  0.00000000000E+00  0.16694245998E+03  0.16694245998E+03  0.00000000000E+00 0.  1.
         21   -1    0    0  501  502  0.00000000000E+00 -0.00000000000E+00 -0.15446405433E+03  0.15446405433E+03  0.00000000000E+00 0.  1.
         23    2    1    2    0    0  0.71684787004E+01  0.96804725040E+02  0.54220465324E+02  0.14391099551E+03  0.91367247370E+02 0.  0.
         23    2    1    2    0    0  0.53625098590E+01 -0.77180465891E+02  0.58622331102E+01  0.12450206719E+03  0.97369492810E+02 0.  0.
        -11    1    4    4    0    0  0.22344506186E+02 -0.49503222915E-01  0.33979486451E+02  0.40667983805E+02  0.00000000000E+00 0.  1.
         11    1    4    4    0    0 -0.16981996327E+02 -0.77130962669E+02 -0.28117253341E+02  0.83834083384E+02  0.00000000000E+00 0. -1.
        -11    1    3    3    0    0  0.43591283316E+02  0.78157255657E+02  0.50664490799E+02  0.10283796585E+03  0.00000000000E+00 0.  1.
         11    1    3    3    0    0 -0.36422804615E+02  0.18647469384E+02  0.35559745247E+01  0.41073029658E+02  0.00000000000E+00 0. -1.
         -1    1    1    2    0  502 -0.12530988559E+02 -0.19624259149E+02 -0.47604292792E+02  0.52993451611E+02  0.00000000000E+00 0.  1.
<scales pt_clust_5="13000.00000" pt_clust_6="13000.00000" pt_clust_7="13000.00000" pt_clust_8="13000.00000" pt_clust_9="23.28384"></scales>
<clustering>
<clus scale="   23.284">  2  9  1 -1</clus>
<clus scale="   91.367">  7  8 -1 -1</clus>
<clus scale="   97.369">  5  6 -1 -1</clus>
<clus scale="  127.114">  1  7  2 -1</clus>
<clus scale="   23.284">  2  5  1 -1</clus>
</clustering>
</event>
<event>
 9    1  0.1601012E-005  0.1675840E+03  0.7546771E-02  0.1201295E+00
          4   -1    0    0  502    0 -0.00000000000E+00  0.00000000000E+00  0.86198050587E+02  0.86198050587E+02  0.00000000000E+00 0. -1.
         21   -1    0    0  501  502  0.00000000000E+00 -0.00000000000E+00 -0.94493037617E+03  0.94493037617E+03  0.00000000000E+00 0. -1.
         23    2    1    2    0    0 -0.52162297442E+02  0.40875682600E+00  0.49019801103E+00  0.10566474135E+03  0.91889743249E+02 0.  0.
         23    2    1    2    0    0  0.73977646656E+02  0.13441037150E+03 -0.29879573206E+03  0.34863589872E+03  0.93430510037E+02 0.  0.
        -11    1    3    3    0    0 -0.35083583649E+02 -0.10345433867E+02  0.44288477902E+02  0.57440013218E+02  0.00000000000E+00 0. -1.
         11    1    3    3    0    0 -0.17078713793E+02  0.10754190693E+02 -0.43798279891E+02  0.48224728135E+02  0.00000000000E+00 0.  1.
        -13    1    4    4    0    0  0.37408920698E+02  0.34295472758E+02 -0.18867663516E+03  0.19538290472E+03  0.00000000000E+00 0.  1.
         13    1    4    4    0    0  0.36568725958E+02  0.10011489874E+03 -0.11011909690E+03  0.15325299400E+03  0.00000000000E+00 0. -1.
          4    1    1    2  501    0 -0.21815349213E+02 -0.13481912833E+03 -0.56042679153E+03  0.57682778668E+03  0.00000000000E+00 0. -1.
<scales pt_clust_5="13000.00000" pt_clust_6="13000.00000" pt_clust_7="13000.00000" pt_clust_8="13000.00000" pt_clust_9="139.12270"></scales>
<clustering>
<clus scale="   91.890">  5  6 -1 -1</clus>
<clus scale="   93.431">  7  8 -1 -1</clus>
<clus scale="  105.664">  1  5  2 -1</clus>
<clus scale="  139.123">  2  9  1 -1</clus>
<clus scale="  139.123">  2  5  1 -1</clus>
</clustering>
</event>
<event>
 9    1  0.1601012E-005  0.1019606E+03  0.7546771E-02  0.1278194E+00
         -4   -1    0    0    0  501 -0.00000000000E+00  0.00000000000E+00  0.19061425615E+03  0.19061425615E+03  0.00000000000E+00 0.  1.
         21   -1    0    0  501  502  0.00000000000E+00 -0.00000000000E+00 -0.90916419956E+02  0.90916419956E+02  0.00000000000E+00 0. -1.
         23    2    1    2    0    0  0.49451935495E+02 -0.25155253489E+01  0.82882017607E+02  0.13097270017E+03  0.88501963561E+02 0.  0.
         23    2    1    2    0    0 -0.31032120121E+02 -0.23444595771E+02  0.43035154799E+02  0.10931878247E+03  0.92660294097E+02 0.  0.
        -13    1    4    4    0    0 -0.44994398611E+02 -0.46971178959E+02  0.48855306046E+02  0.81348807539E+02  0.00000000000E+00 0.  1.
         13    1    4    4    0    0  0.13962278490E+02  0.23526583188E+02 -0.58201512470E+01  0.27969974931E+02  0.00000000000E+00 0. -1.
        -13    1    3    3    0    0  0.73509399853E+01 -0.37159978334E+02  0.61862071412E+02  0.72538377345E+02  0.00000000000E+00 0.  1.
         13    1    3    3    0    0  0.42100995510E+02  0.34644452985E+02  0.21019946195E+02  0.58434322821E+02  0.00000000000E+00 0. -1.
         -4    1    1    2    0  502 -0.18419815374E+02  0.25960121120E+02 -0.26219336209E+02  0.41239193472E+02  0.00000000000E+00 0.  1.
<scales pt_clust_5="13000.00000" pt_clust_6="13000.00000" pt_clust_7="13000.00000" pt_clust_8="13000.00000" pt_clust_9="31.83108"></scales>
<clustering>
<clus scale="   31.831">  2  9  1 -1</clus>
<clus scale="   88.502">  7  8 -1 -1</clus>
<clus scale="   92.660">  5  6 -1 -1</clus>
<clus scale="   98.197">  1  7  2 -1</clus>
<clus scale="   31.831">  2  5  1 -1</clus>
</clustering>
</event>
<event>
 9    1  0.1601012E-005  0.9896001E+02  0.7546771E-02  0.1284178E+00
         21   -1    0    0  501  502  0.00000000000E+00  0.00000000000E+00  0.95615750875E+02  0.95615750875E+02  0.00000000000E+00 0. -1.
         -4   -1    0    0    0  501 -0.00000000000E+00 -0.00000000000E+00 -0.16664010822E+03  0.16664010822E+03  0.00000000000E+00 0.  1.
         23    2    1    2    0    0  0.30904069129E+02  0.41033699270E+01 -0.82725213000E+02  0.12589158624E+03  0.89628854093E+02 0.  0.
         23    2    1    2    0    0 -0.34735422244E+02 -0.25748227527E+02 -0.12974983401E+02  0.10331769723E+03  0.92933716100E+02 0.  0.
        -11    1    4    4    0    0 -0.57259969385E+02 -0.23668063921E+02  0.18405000337E+02  0.64634552533E+02  0.00000000000E+00 0. -1.
         11    1    4    4    0    0  0.22524547141E+02 -0.20801636068E+01 -0.31379983738E+02  0.38683144701E+02  0.00000000000E+00 0.  1.
        -13    1    3    3    0    0  0.24256488613E+02  0.44169365566E+02 -0.27705791624E+02  0.57505834346E+02  0.00000000000E+00 0.  1.
         13    1    3    3    0    0  0.66475805159E+01 -0.40065995639E+02 -0.55019421376E+02  0.68385751892E+02  0.00000000000E+00 0. -1.
         -4    1    1    2    0  502  0.38313531149E+01  0.21644857600E+02  0.24675839056E+02  0.33046575622E+02  0.00000000000E+00 0.  1.
<scales pt_clust_5="13000.00000" pt_clust_6="13000.00000" pt_clust_7="13000.00000" pt_clust_8="13000.00000" pt_clust_9="21.98134"></scales>
<clustering>
<clus scale="   21.981">  1  9  2 -1</clus>
<clus scale="   89.629">  7  8 -1 -1</clus>
<clus scale="   92.934">  5  6 -1 -1</clus>
<clus scale="   95.863">  2  7  1 -1</clus>
<clus scale="   21.981">  1  5  2 -1</clus>
</clustering>
</event>
<event>
 9    1  0.1601012E-005  0.9154326E+02  0.7546771E-02  0.1300183E+00
          1   -1    0    0  502    0 -0.00000000000E+00  0.00000000000E+00  0.53093958762E+03  0.53093958762E+03  0.00000000000E+00 0. -1.
         21   -1    0    0  501  502  0.00000000000E+00 -0.00000000000E+00 -0.60736788083E+02  0.60736788083E+02  0.00000000000E+00 0. -1.
         23    2    1    2    0    0 -0.88828915479E+01  0.11422288251E+02  0.33647288774E+03  0.34878656241E+03  0.90712113348E+02 0.  0.
         23    2    1    2    0    0 -0.11937372749E+02 -0.13662474303E+02  0.17469192877E+03  0.19688558878E+03  0.88980340622E+02 0.  0.
        -11    1    3    3    0    0 -0.48018317171E+02 -0.49442304670E+01  0.20647082535E+03  0.21203868968E+03  0.00000000000E+00 0.  1.
         11    1    3    3    0    0  0.39135425623E+02  0.16366518718E+02  0.13000206238E+03  0.13674787273E+03  0.00000000000E+00 0. -1.
        -13    1    4    4    0    0 -0.47982625744E+02 -0.22583582102E+02  0.11407582229E+03  0.12580001504E+03  0.00000000000E+00 0.  1.
         13    1    4    4    0    0  0.36045252995E+02  0.89211077989E+01  0.60616106489E+02  0.71085573738E+02  0.00000000000E+00 0. -1.
          1    1    1    2  501    0  0.20820264297E+02  0.22401860518E+01 -0.40962016970E+02  0.46004224515E+02  0.00000000000E+00 0. -1.
<scales pt_clust_5="13000.00000" pt_clust_6="13000.00000" pt_clust_7="13000.00000" pt_clust_8="13000.00000" pt_clust_9="20.94044"></scales>
<clustering>
<clus scale="   20.940">  2  9  1 -1</clus>
<clus scale="   88.980">  7  8 -1 -1</clus>
<clus scale="   89.828">  2  7  1 -1</clus>
<clus scale="   90.712">  5  6 -1 -1</clus>
<clus scale="   20.940">  2  5  1 -1</clus>
</clustering>
</event>
<event>
 9    1  0.1601012E-005  0.1548166E+03  0.7546771E-02  0.1194730E+00
          2   -1    0    0  502    0 -0.00000000000E+00  0.00000000000E+00  0.62916361860E+02  0.62916361860E+02  0.00000000000E+00 0. -1.
         21   -1    0    0  501  502  0.00000000000E+00 -0.00000000000E+00 -0.50877496913E+03  0.50877496913E+03  0.00000000000E+00 0.  1.
         23    2    1    2    0    0  0.18514211686E+02 -0.10887213440E+03 -0.16795710458E+03  0.22091588667E+03  0.91642360942E+02 0.  0.
         23    2    1    2    0    0  0.36030026195E+01  0.14505433318E+03 -0.22843773612E+03  0.28562188048E+03  0.91336291396E+02 0.  0.
        -13    1    3    3    0    0 -0.29748467049E+02 -0.20419022701E+02 -0.18191654658E+02  0.40408465438E+02  0.00000000000E+00 0.  1.
         13    1    3    3    0    0  0.48262678735E+02 -0.88453111701E+02 -0.14976544992E+03  0.18050742123E+03  0.00000000000E+00 0. -1.
        -13    1    4    4    0    0 -0.33221997195E+02  0.67503460657E+02 -0.15638801085E+03  0.17354431202E+03  0.00000000000E+00 0.  1.
         13    1    4    4    0    0  0.36824999815E+02  0.77550872527E+02 -0.72049725268E+02  0.11207756846E+03  0.00000000000E+00 0. -1.
          2    1    1    2  501    0 -0.22117214306E+02 -0.36182198781E+02 -0.49463766571E+02  0.65153563837E+02  0.00000000000E+00 0. -1.
<scales pt_clust_5="13000.00000" pt_clust_6="13000.00000" pt_clust_7="13000.00000" pt_clust_8="13000.00000" pt_clust_9="42.40666"></scales>
<clustering>
<clus scale="   42.407">  2  9  1 -1</clus>
<clus scale="   91.336">  7  8 -1 -1</clus>
<clus scale="   91.642">  5  6 -1 -1</clus>
<clus scale="  154.636">  2  7  1 -1</clus>
<clus scale="   42.407">  2  5  1 -1</clus>
</clustering>
</event>
<event>
 9    1  0.1601012E-005  0.1016852E+03  0.7546771E-02  0.1277637E+00
         21   -1    0    0  501  502  0.00000000000E+00  0.00000000000E+00  0.47758769656E+02  0.47758769656E+02  0.00000000000E+00 0. -1.
         -2   -1    0    0    0  501 -0.00000000000E+00 -0.00000000000E+00 -0.50067111691E+03  0.50067111691E+03  0.00000000000E+00 0.  1.
         23    2    1    2    0    0  0.35602633265E+02 -0.36862992117E+01 -0.34318762177E+03  0.35685538035E+03  0.91032315433E+02 0.  0.
         23    2    1    2    0    0 -0.59650438939E+02 -0.11544791188E+01 -0.12170225395E+03  0.16427631432E+03  0.92821124444E+02 0.  0.
        -11    1    3    3    0    0  0.43297200508E+02 -0.36212074289E+02 -0.27717129284E+03  0.28286019068E+03  0.00000000000E+00 0.  1.
         11    1    3    3    0    0 -0.76945672424E+01  0.32525775077E+02 -0.66016328927E+02  0.73995189671E+02  0.00000000000E+00 0. -1.
        -13    1    4    4    0    0  0.52774407258E+01 -0.34711020813E+02 -0.55446924106E+02  0.65628254124E+02  0.00000000000E+00 0.  1.
         13    1    4    4    0    0 -0.64927879665E+02  0.33556541694E+02 -0.66255329844E+02  0.98648060199E+02  0.00000000000E+00 0. -1.
         -2    1    1    2    0  502  0.24047805674E+02  0.48407783305E+01  0.11977528464E+02  0.27298191894E+02  0.00000000000E+00 0.  1.
<scales pt_clust_5="13000.00000" pt_clust_6="13000.00000" pt_clust_7="13000.00000" pt_clust_8="13000.00000" pt_clust_9="24.53019"></scales>
<clustering>
<clus scale="   24.530">  1  9  2 -1</clus>
<clus scale="   91.032">  5  6 -1 -1</clus>
<clus scale="   92.821">  7  8 -1 -1</clus>
<clus scale="  100.055">  2  5  1 -1</clus>
<clus scale="   24.530">  1  5  2 -1</clus>
</clustering>
</event>
<event>
 9    1  0.1601012E-005  0.1196105E+03  0.7546771E-02  0.1244007E+00
          1   -1    0    0  502    0 -0.00000000000E+00  0.00000000000E+00  0.34760078081E+03  0.34760078081E+03  0.00000000000E+00 0. -1.
         21   -1    0    0  501  502  0.00000000000E+00 -0.00000000000E+00 -0.11632607928E+03  0.11632607928E+03  0.00000000000E+00 0. -1.
         23    2    1    2    0    0  0.21937844695E+02  0.53209786730E+02  0.14248134557E+03  0.17957610549E+03  0.92919822381E+02 0.  0.
         23    2    1    2    0    0 -0.12970996793E+02 -0.10158884465E+03  0.15143195309E+03  0.20469818744E+03  0.92093275592E+02 0.  0.
        -11    1    3    3    0    0 -0.32782504402E+02  0.33029149841E+02  0.89058092343E+02  0.10048363621E+03  0.00000000000E+00 0.  1.
         11    1    3    3    0    0  0.54720349097E+02  0.20180636890E+02  0.53423253232E+02  0.79092469278E+02  0.00000000000E+00 0. -1.
        -11    1    4    4    0    0 -0.30275382320E+02 -0.14203864072E+01  0.13064455239E+02  0.33004488526E+02  0.00000000000E+00 0.  1.
         11    1    4    4    0    0  0.17304385527E+02 -0.10016845825E+03  0.13836749785E+03  0.17169369891E+03  0.00000000000E+00 0. -1.
          1    1    1    2  501    0 -0.89668479027E+01  0.48379057923E+02 -0.62638597125E+02  0.79652567169E+02  0.00000000000E+00 0. -1.
<scales pt_clust_5="13000.00000" pt_clust_6="13000.00000" pt_clust_7="13000.00000" pt_clust_8="13000.00000" pt_clust_9="49.20302"></scales>
<clustering>
<clus scale="   49.203">  2  9  1 -1</clus>
<clus scale="   92.093">  7  8 -1 -1</clus>
<clus scale="   92.920">  5  6 -1 -1</clus>
<clus scale="  118.969">  2  7  1 -1</clus>
<clus scale="   49.203">  2  5  1 -1</clus>
</clustering>
</event>
<event>
 9    1  0.1601012E-005  0.9878927E+02  0.7546771E-02  0.1284968E+00
          3   -1    0    0  502    0 -0.00000000000E+00  0.00000000000E+00  0.54438988915E+03  0.54438988915E+03  0.00000000000E+00 0. -1.
         21   -1    0    0  501  502  0.00000000000E+00 -0.00000000000E+00 -0.16663063089E+03  0.16663063089E+03  0.00000000000E+00 0. -1.
         23    2    1    2    0    0  0.50703550407E+01 -0.30337760833E+02  0.35376531800E+03  0.36650944557E+03  0.90736901181E+02 0.  0.
         23    2    1    2    0    0  0.56798141943E+02  0.12044468246E+02  0.15951739182E+03  0.19441456753E+03  0.94763535341E+02 0.  0.
        -11    1    3    3    0    0  0.36033667557E+02 -0.44506034525E+02  0.27153875426E+03  0.27751127431E+03  0.00000000000E+00 0. -1.
         11    1    3    3    0    0 -0.30963312517E+02  0.14168273692E+02  0.82226563748E+02  0.88998171258E+02  0.00000000000E+00 0.  1.
        -13    1    4    4    0    0  0.68133873749E+02 -0.20985568013E+02  0.13173946929E+03  0.14979287896E+03  0.00000000000E+00 0. -1.
         13    1    4    4    0    0 -0.11335731806E+02  0.33030036260E+02  0.27777922527E+02  0.44621688570E+02  0.00000000000E+00 0.  1.
          3    1    1    2  501    0 -0.61868496983E+02  0.18293292587E+02 -0.13552345157E+03  0.15009650695E+03  0.00000000000E+00 0. -1.
<scales pt_clust_5="13000.00000" pt_clust_6="13000.00000" pt_clust_7="13000.00000" pt_clust_8="13000.00000" pt_clust_9="64.51632"></scales>
<clustering>
<clus scale="   64.516">  2  9  1 -1</clus>
<clus scale="   90.737">  5  6 -1 -1</clus>
<clus scale="   94.764">  7  8 -1 -1</clus>
<clus scale="   94.934">  1  5  2 -1</clus>
<clus scale="   64.516">  2  5  1 -1</clus>
</clustering>
</event>
<event>
 9    1  0.1601012E-005  0.1623586E+03  0.7546771E-02  0.1186923E+00
          1   -1    0    0  502    0 -0.00000000000E+00  0.00000000000E+00  0.60623199636E+02  0.60623199636E+02  0.00000000000E+00 0. -1.
         21   -1    0    0  501  502  0.00000000000E+00 -0.00000000000E+00 -0.74790830862E+03  0.74790830862E+03  0.00000000000E+00 0.  1.
         23    2    1    2    0    0  0.25776202183E+02  0.12949040990E+03 -0.12708176288E+03  0.20503845803E+03  0.91971821544E+02 0.  0.
         23    2    1    2    0    0 -0.80111119725E+02 -0.10779461683E+03 -0.40447924447E+03  0.43714105436E+03  0.97218163304E+02 0.  0.
        -11    1    4    4    0    0 -0.46034018036E+02 -0.12083677235E+03 -0.31466712864E+03  0.34020002677E+03  0.00000000000E+00 0.  1.
         11    1    4    4    0    0 -0.34077101689E+02  0.13042155513E+02 -0.89812115833E+02  0.96941027590E+02  0.00000000000E+00 0. -1.
        -13    1    3    3    0    0 -0.16899020391E+02  0.10096212777E+03 -0.54018066554E+02  0.11574489037E+03  0.00000000000E+00 0. -1.
         13    1    3    3    0    0  0.42675222574E+02  0.28528282132E+02 -0.73063696326E+02  0.89293567652E+02  0.00000000000E+00 0.  1.
          1    1    1    2  501    0  0.54334917542E+02 -0.21695793066E+02 -0.15572410163E+03  0.16635199587E+03  0.00000000000E+00 0. -1.
<scales pt_clust_5="13000.00000" pt_clust_6="13000.00000" pt_clust_7="13000.00000" pt_clust_8="13000.00000" pt_clust_9="58.50633"></scales>
<clustering>
<clus scale="   58.506">  2  9  1 -1</clus>
<clus scale="   91.972">  7  8 -1 -1</clus>
<clus scale="   97.218">  5  6 -1 -1</clus>
<clus scale="  159.273">  1  7  2 -1</clus>
<clus scale="   58.506">  2  5  1 -1</clus>
</clustering>
</event>
<event>
 9    1  0.1601012E-005  0.9566351E+02  0.7546771E-02  0.1290163E+00
         -4   -1    0    0    0  501 -0.00000000000E+00  0.00000000000E+00  0.26646248465E+03  0.26646248465E+03  0.00000000000E+00 0.  1.
         21   -1    0    0  501  502  0.00000000000E+00 -0.00000000000E+00 -0.53410408045E+02  0.53410408045E+02  0.00000000000E+00 0. -1.
         23    2    1    2    0    0 -0.28954947504E+02  0.59956432839E+01  0.13914663216E+03  0.17022015928E+03  0.93481445553E+02 0.  0.
         23    2    1    2    0    0  0.60741873372E+01 -0.76295426139E+01  0.83222219435E+02  0.12489387421E+03  0.92614449925E+02 0.  0.
        -13    1    4    4    0    0 -0.19330184258E+02 -0.43211370527E+02  0.56270253690E+02  0.73533801864E+02  0.00000000000E+00 0.  1.
         13    1    4    4    0    0  0.25404371595E+02  0.35581827913E+02  0.26951965745E+02  0.51360072345E+02  0.00000000000E+00 0. -1.
        -13    1    3    3    0    0  0.24972509842E+02  0.23688301627E+02  0.85310953716E+02  0.91993047051E+02  0.00000000000E+00 0. -1.
         13    1    3    3    0    0 -0.53927457346E+02 -0.17692658343E+02  0.53835678439E+02  0.78227112231E+02  0.00000000000E+00 0.  1.
         -4    1    1    2    0  502  0.22880760166E+02  0.16338993301E+01 -0.93167749876E+01  0.24758859202E+02  0.00000000000E+00 0.  1.
<scales pt_clust_5="13000.00000" pt_clust_6="13000.00000" pt_clust_7="13000.00000" pt_clust_8="13000.00000" pt_clust_9="22.93902"></scales>
<clustering>
<clus scale="   22.939">  2  9  1 -1</clus>
<clus scale="   92.614">  5  6 -1 -1</clus>
<clus scale="   93.481">  7  8 -1 -1</clus>
<clus scale="   94.816">  2  5  1 -1</clus>
<clus scale="   22.939">  2  5  1 -1</clus>
</clustering>
</event>
<event>
 9    1  0.1601012E-005  0.1894150E+03  0.7546771E-02  0.1159007E+00
         21   -1    0    0  501  502  0.00000000000E+00  0.00000000000E+00  0.63206533574E+03  0.63206533574E+03  0.00000000000E+00 0.  1.
         -1   -1    0    0    0  501 -0.00000000000E+00 -0.00000000000E+00 -0.13825063975E+03  0.13825063975E+03  0.00000000000E+00 0.  1.
         23    2    1    2    0    0  0.19605139269E+02  0.15625017438E+03  0.31167231518E+02  0.18474971024E+03  0.91447146670E+02 0.  0.
         23    2    1    2    0    0 -0.33866640796E+02 -0.20273545982E+03  0.48304555686E+03  0.53283719964E+03  0.91289951732E+02 0.  0.
        -11    1    3    3    0    0 -0.21916998543E+02  0.24673143999E+02  0.33130306081E+02  0.46762549555E+02  0.00000000000E+00 0.  1.
         11    1    3    3    0    0  0.41522137812E+02  0.13157703038E+03 -0.19630745630E+01  0.13798716069E+03  0.00000000000E+00 0. -1.
        -13    1    4    4    0    0  0.51002467896E-01 -0.11526642910E+03  0.36065722669E+03  0.37862908953E+03  0.00000000000E+00 0.  1.
         13    1    4    4    0    0 -0.33917643264E+02 -0.87469030717E+02  0.12238833018E+03  0.15420811011E+03  0.00000000000E+00 0. -1.
         -1    1    1    2    0  502  0.14261501527E+02  0.46485285432E+02 -0.20398092386E+02  0.52729065614E+02  0.00000000000E+00 0.  1.
<scales pt_clust_5="13000.00000" pt_clust_6="13000.00000" pt_clust_7="13000.00000" pt_clust_8="13000.00000" pt_clust_9="48.62381"></scales>
<clustering>
<clus scale="   48.624">  1  9  2 -1</clus>
<clus scale="   91.290">  7  8 -1 -1</clus>
<clus scale="   91.447">  5  6 -1 -1</clus>
<clus scale="  189.339">  1  7  2 -1</clus>
<clus scale="   48.624">  1  5  2 -1</clus>
</clustering>
</event>
<event>
 9    1  0.1601012E-005  0.1588857E+03  0.7546771E-02  0.1189990E+00
          1   -1    0    0  502    0 -0.00000000000E+00  0.00000000000E+00  0.19205227589E+03  0.19205227589E+03  0.00000000000E+00 0. -1.
         21   -1    0    0  501  502  0.00000000000E+00 -0.00000000000E+00 -0.27237389502E+03  0.27237389502E+03  0.00000000000E+00 0. -1.
         23    2    1    2    0    0 -0.20028323954E+02  0.97019177604E+02  0.25948998077E+01  0.13489358341E+03  0.91518800018E+02 0.  0.
         23    2    1    2    0    0 -0.20314801702E+02 -0.19154762070E+03 -0.35199946997E+02  0.21621857433E+03  0.91696529133E+02 0.  0.
        -13    1    4    4    0    0 -0.94971607312E+01 -0.57678216587E+02 -0.55239253282E+02  0.80426039526E+02  0.00000000000E+00 0.  1.
         13    1    4    4    0    0 -0.10817640971E+02 -0.13386940411E+03  0.20039306285E+02  0.13579253481E+03  0.00000000000E+00 0. -1.
        -13    1    3    3    0    0  0.14745754744E+02  0.25227940174E+02 -0.35926342184E+02  0.46309699968E+02  0.00000000000E+00 0.  1.
         13    1    3    3    0    0 -0.34774078698E+02  0.71791237430E+02  0.38521241992E+02  0.88583883442E+02  0.00000000000E+00 0. -1.
          1    1    1    2  501    0  0.40343125656E+02  0.94528443095E+02 -0.47716571947E+02  0.11331401317E+03  0.00000000000E+00 0. -1.
<scales pt_clust_5="13000.00000" pt_clust_6="13000.00000" pt_clust_7="13000.00000" pt_clust_8="13000.00000" pt_clust_9="102.77740"></scales>
<clustering>
<clus scale="   91.519">  7  8 -1 -1</clus>
<clus scale="   91.697">  5  6 -1 -1</clus>
<clus scale="  102.777">  2  9  1 -1</clus>
<clus scale="  158.783">  1  7  2 -1</clus>
<clus scale="  102.777">  2  5  1 -1</clus>
</clustering>
</event>
<event>
 9    1  0.1601012E-005  0.3351121E+03  0.7546771E-02  0.1069041E+00
         21   -1    0    0  501  502  0.00000000000E+00  0.00000000000E+00  0.13089164561E+03  0.13089164561E+03  0.00000000000E+00 0.  1.
          2   -1    0    0  502    0 -0.00000000000E+00 -0.00000000000E+00 -0.13011494654E+04  0.13011494654E+04  0.00000000000E+00 0. -1.
         23    2    1    2    0    0  0.18991556019E+03 -0.25356781902E+03 -0.92159903444E+03  0.97899204970E+03  0.93360024921E+02 0.  0.
         23    2    1    2    0    0 -0.20414296193E+03  0.26868368546E+03 -0.25410921452E+03  0.43158710532E+03  0.88491043811E+02 0.  0.
        -13    1    3    3    0    0  0.18290874023E+03 -0.20590471798E+03 -0.70031693531E+03  0.75252652446E+03  0.00000000000E+00 0.  1.
         13    1    3    3    0    0  0.70068199662E+01 -0.47663101044E+02 -0.22128209913E+03  0.22646552524E+03  0.00000000000E+00 0. -1.
        -13    1    4    4    0    0 -0.17763282930E-01  0.45211499323E+02 -0.22687683874E+02  0.50584691223E+02  0.00000000000E+00 0.  1.
         13    1    4    4    0    0 -0.20412519865E+03  0.22347218614E+03 -0.23142153065E+03  0.38100241409E+03  0.00000000000E+00 0. -1.
          2    1    1    2  501    0  0.14227401738E+02 -0.15115866437E+02  0.54504291463E+01  0.21461956021E+02  0.00000000000E+00 0. -1.
<scales pt_clust_5="13000.00000" pt_clust_6="13000.00000" pt_clust_7="13000.00000" pt_clust_8="13000.00000" pt_clust_9="20.75833"></scales>
<clustering>
<clus scale="   20.758">  1  9  2 -1</clus>
<clus scale="   88.491">  7  8 -1 -1</clus>
<clus scale="   93.360">  5  6 -1 -1</clus>
<clus scale="  333.788">  1  7  2 -1</clus>
<clus scale="   20.758">  1  5  2 -1</clus>
</clustering>
</event>
<event>
 9    1  0.1601012E-005  0.1571581E+03  0.7546771E-02  0.1192592E+00
          1   -1    0    0  502    0 -0.00000000000E+00  0.00000000000E+00  0.52603659244E+03  0.52603659244E+03  0.00000000000E+00 0. -1.
         21   -1    0    0  501  502  0.00000000000E+00 -0.00000000000E+00 -0.61547092592E+02  0.61547092592E+02  0.00000000000E+00 0.  1.
         23    2    1    2    0    0  0.11693375108E+03 -0.17805397482E+02  0.27626768203E+03  0.31442413881E+03  0.92456328122E+02 0.  0.
         23    2    1    2    0    0 -0.13999405348E+03  0.23886965654E+02  0.18432739179E+03  0.24899491148E+03  0.88616908330E+02 0.  0.
        -11    1    4    4    0    0 -0.11553623905E+03  0.19923565489E+02  0.80414910225E+02  0.14216936654E+03  0.00000000000E+00 0.  1.
         11    1    4    4    0    0 -0.24457814431E+02  0.39634001656E+01  0.10391248157E+03  0.10682554494E+03  0.00000000000E+00 0. -1.
        -13    1    3    3    0    0  0.10263251080E+03 -0.50535427646E+02  0.20887843489E+03  0.23815428252E+03  0.00000000000E+00 0. -1.
         13    1    3    3    0    0  0.14301240279E+02  0.32730030164E+02  0.67389247141E+02  0.76269856288E+02  0.00000000000E+00 0.  1.
          1    1    1    2  501    0  0.23060302398E+02 -0.60815681725E+01  0.38944260272E+01  0.24164634742E+02  0.00000000000E+00 0. -1.
<scales pt_clust_5="13000.00000" pt_clust_6="13000.00000" pt_clust_7="13000.00000" pt_clust_8="13000.00000" pt_clust_9="23.84875"></scales>
<clustering>
<clus scale="   23.849">  2  9  1 -1</clus>
<clus scale="   88.617">  5  6 -1 -1</clus>
<clus scale="   92.456">  7  8 -1 -1</clus>
<clus scale="  154.931">  2  5  1 -1</clus>
<clus scale="   23.849">  2  5  1 -1</clus>
</clustering>
</event>
<event>
 9    1  0.1601012E-005  0.1012070E+03  0.7546771E-02  0.1278978E+00
         -1   -1    0    0    0  501 -0.00000000000E+00  0.00000000000E+00  0.32407230615E+03  0.32407230615E+03  0.00000000000E+00 0.  1.
         21   -1    0    0  501  502  0.00000000000E+00 -0.00000000000E+00 -0.35560335480E+03  0.35560335480E+03  0.00000000000E+00 0.  1.
         23    2    1    2    0    0  0.36484752365E+02 -0.23362131934E+02  0.27573267333E+03  0.29371688772E+03  0.91455872572E+02 0.  0.
         23    2    1    2    0    0 -0.59192284487E+02 -0.16364464634E+02 -0.40661570945E+02  0.11545823455E+03  0.88914106457E+02 0.  0.
        -11    1    3    3    0    0 -0.16209087654E+02  0.17123870125E+02  0.25156213429E+02  0.34478928706E+02  0.00000000000E+00 0. -1.
         11    1    3    3    0    0  0.52693840018E+02 -0.40486002058E+02  0.25057645990E+03  0.25923795901E+03  0.00000000000E+00 0.  1.
        -11    1    4    4    0    0 -0.13810087429E+02 -0.14545070184E+02  0.27202992255E+02  0.33797638513E+02  0.00000000000E+00 0.  1.
         11    1    4    4    0    0 -0.45382197058E+02 -0.18193944501E+01 -0.67864563200E+02  0.81660596032E+02  0.00000000000E+00 0. -1.
         -1    1    1    2    0  502  0.22707532122E+02  0.39726596568E+02 -0.26660215103E+03  0.27050053868E+03  0.00000000000E+00 0.  1.
<scales pt_clust_5="13000.00000" pt_clust_6="13000.00000" pt_clust_7="13000.00000" pt_clust_8="13000.00000" pt_clust_9="45.75844"></scales>
<clustering>
<clus scale="   45.758">  2  9  1 -1</clus>
<clus scale="   88.914">  7  8 -1 -1</clus>
<clus scale="   91.456">  5  6 -1 -1</clus>
<clus scale="   98.916">  2  7  1 -1</clus>
<clus scale="   45.758">  2  5  1 -1</clus>
</clustering>
</event>
<event>
 9    1  0.1601012E-005  0.1122422E+03  0.7546771E-02  0.1262524E+00
          3   -1    0    0  502    0 -0.00000000000E+00  0.00000000000E+00  0.63601721081E+02  0.63601721081E+02  0.00000000000E+00 0. -1.
         21   -1    0    0  501  502  0.00000000000E+00 -0.00000000000E+00 -0.26438209222E+03  0.26438209222E+03  0.00000000000E+00 0.  1.
         23    2    1    2    0    0  0.23865599965E+02  0.11941762125E+02 -0.38100050769E+02  0.10400376092E+03  0.93021480705E+02 0.  0.
         23    2    1    2    0    0 -0.47718355747E+02 -0.31338305409E+02 -0.14431145608E+03  0.18816671653E+03  0.10640388146E+03 0.  0.
        -13    1    3    3    0    0 -0.18201149034E+02 -0.27667178096E+02 -0.31746579109E+02  0.45875918030E+02  0.00000000000E+00 0.  1.
         13    1    3    3    0    0  0.42066748999E+02  0.39608940222E+02 -0.63534716594E+01  0.58127842890E+02  0.00000000000E+00 0. -1.
        -13    1    4    4    0    0 -0.28879421043E+02 -0.45801830100E+02 -0.15344664285E+03  0.16271970011E+03  0.00000000000E+00 0.  1.
         13    1    4    4    0    0 -0.18838934705E+02  0.14463524691E+02  0.91351867705E+01  0.25447016419E+02  0.00000000000E+00 0. -1.
          3    1    1    2  501    0  0.23852755782E+02  0.19396543284E+02 -0.18368864286E+02  0.35813335853E+02  0.00000000000E+00 0. -1.
<scales pt_clust_5="13000.00000" pt_clust_6="13000.00000" pt_clust_7="13000.00000" pt_clust_8="13000.00000" pt_clust_9="30.74379"></scales>
<clustering>
<clus scale="   30.744">  2  9  1 -1</clus>
<clus scale="   93.021">  5  6 -1 -1</clus>
<clus scale="   99.647">  1  5  2 -1</clus>
<clus scale="  106.404">  7  8 -1 -1</clus>
<clus scale="   30.744">  2  5  1 -1</clus>
</clustering>
</event>
<event>
 9    1  0.1601012E-005  0.1079384E+03  0.7546771E-02  0.1265096E+00
         21   -1    0    0  501  502  0.00000000000E+00  0.00000000000E+00  0.86329527510E+02  0.86329527510E+02  0.00000000000E+00 0.  1.
          1   -1    0    0  502    0 -0.00000000000E+00 -0.00000000000E+00 -0.21191608754E+03  0.21191608754E+03  0.00000000000E+00 0. -1.
         23    2    1    2    0    0 -0.49941428149E+02 -0.30424576770E+02 -0.81476558713E+02  0.13637170770E+03  0.92406774231E+02 0.  0.
         23    2    1    2    0    0  0.16389974289E+02  0.59746934554E+02 -0.40616258676E+02  0.11717819212E+03  0.90789431068E+02 0.  0.
        -11    1    4    4    0    0  0.34494736407E+01  0.44412944576E+02  0.23239548842E+02  0.50244254842E+02  0.00000000000E+00 0.  1.
         11    1    4    4    0    0  0.12940500649E+02  0.15333989979E+02 -0.63855807517E+02  0.66933937277E+02  0.00000000000E+00 0. -1.
        -13    1    3    3    0    0 -0.47500063650E+02  0.13435135571E+02 -0.69332301284E+01  0.49848055073E+02  0.00000000000E+00 0.  1.
         13    1    3    3    0    0 -0.24413644988E+01 -0.43859712341E+02 -0.74543328585E+02  0.86523652626E+02  0.00000000000E+00 0. -1.
          1    1    1    2  501    0  0.33551453860E+02 -0.29322357784E+02 -0.34937426370E+01  0.44695715228E+02  0.00000000000E+00 0. -1.
<scales pt_clust_5="13000.00000" pt_clust_6="13000.00000" pt_clust_7="13000.00000" pt_clust_8="13000.00000" pt_clust_9="44.55896"></scales>
<clustering>
<clus scale="   44.559">  1  9  2 -1</clus>
<clus scale="   90.789">  5  6 -1 -1</clus>
<clus scale="   92.407">  7  8 -1 -1</clus>
<clus scale="  106.557">  1  5  2 -1</clus>
<clus scale="   44.559">  1  5  2 -1</clus>
</clustering>
</event>
<event>
 9    1  0.1601012E-005  0.2212548E+03  0.7546771E-02  0.1133065E+00
         21   -1    0    0  501  502  0.00000000000E+00  0.00000000000E+00  0.22688317136E+03  0.22688317136E+03  0.00000000000E+00 0. -1.
          1   -1    0    0  502    0 -0.00000000000E+00 -0.00000000000E+00 -0.48339151848E+03  0.48339151848E+03  0.00000000000E+00 0. -1.
         23    2    1    2    0    0 -0.20229423063E+03  0.83657130921E+02 -0.26421878677E+03  0.35449323595E+03  0.89064110376E+02 0.  0.
         23    2    1    2    0    0  0.15356337440E+03 -0.94889312086E+02 -0.10850199282E+03  0.22926589082E+03  0.90578555626E+02 0.  0.
        -11    1    4    4    0    0  0.10867197793E+03 -0.10927397175E+03 -0.74712790858E+02  0.17126704530E+03  0.00000000000E+00 0. -1.
         11    1    4    4    0    0  0.44891396480E+02  0.14384659668E+02 -0.33789201960E+02  0.57998845512E+02  0.00000000000E+00 0.  1.
        -13    1    3    3    0    0 -0.65212116910E+00  0.24594051287E+02 -0.16293998310E+02  0.29509100319E+02  0.00000000000E+00 0.  1.
         13    1    3    3    0    0 -0.20164210946E+03  0.59063079634E+02 -0.24792478846E+03  0.32498413563E+03  0.00000000000E+00 0. -1.
          1    1    1    2  501    0  0.48730856220E+02  0.11232181165E+02  0.11621243246E+03  0.12651556308E+03  0.00000000000E+00 0. -1.
<scales pt_clust_5="13000.00000" pt_clust_6="13000.00000" pt_clust_7="13000.00000" pt_clust_8="13000.00000" pt_clust_9="50.00858"></scales>
<clustering>
<clus scale="   50.009">  1  9  2 -1</clus>
<clus scale="   89.064">  7  8 -1 -1</clus>
<clus scale="   90.579">  5  6 -1 -1</clus>
<clus scale="  220.639">  2  7  1 -1</clus>
<clus scale="   50.009">  1  5  2 -1</clus>
</clustering>
</event>
<event>
 9    1  0.1601012E-005  0.1090247E+03  0.7546771E-02  0.1263063E+00
         21   -1    0    0  501  502  0.00000000000E+00  0.00000000000E+00  0.18213759045E+03  0.18213759045E+03  0.00000000000E+00 0. -1.
         -1   -1    0    0    0  501 -0.00000000000E+00 -0.00000000000E+00 -0.12050476436E+03  0.12050476436E+03  0.00000000000E+00 0.  1.
         23    2    1    2    0    0 -0.60669947223E+02 -0.25954585580E+02 -0.35104909829E+02  0.11833112996E+03  0.91735590773E+02 0.  0.
         23    2    1    2    0    0  0.41163084506E+02 -0.21948317932E+02  0.73009221506E+02  0.12740561656E+03  0.93411543828E+02 0.  0.
        -11    1    3    3    0    0  0.10680827534E+02  0.18107196629E+02 -0.26800114326E+02  0.34061661358E+02  0.00000000000E+00 0.  1.
         11    1    3    3    0    0 -0.71350774757E+02 -0.44061782209E+02 -0.83047955026E+01  0.84269468601E+02  0.00000000000E+00 0. -1.
        -11    1    4    4    0    0  0.70376163551E+02 -0.12602920530E+02  0.38378630464E+02  0.81145285004E+02  0.00000000000E+00 0.  1.
         11    1    4    4    0    0 -0.29213079045E+02 -0.93453974014E+01  0.34630591042E+02  0.46260331558E+02  0.00000000000E+00 0. -1.
         -1    1    1    2    0  502  0.19506862717E+02  0.47902903512E+02  0.23728514413E+02  0.56905608284E+02  0.00000000000E+00 0.  1.
<scales pt_clust_5="13000.00000" pt_clust_6="13000.00000" pt_clust_7="13000.00000" pt_clust_8="13000.00000" pt_clust_9="51.72239"></scales>
<clustering>
<clus scale="   51.722">  1  9  2 -1</clus>
<clus scale="   91.736">  5  6 -1 -1</clus>
<clus scale="   93.412">  7  8 -1 -1</clus>
<clus scale="  107.592">  2  5  1 -1</clus>
<clus scale="   51.722">  1  5  2 -1</clus>
</clustering>
</event>
<event>
 9    1  0.1601012E-005  0.1135306E+03  0.7546771E-02  0.1254634E+00
         -3   -1    0    0    0  501 -0.00000000000E+00  0.00000000000E+00  0.13638784020E+03  0.13638784020E+03  0.00000000000E+00 0.  1.
         21   -1    0    0  501  502  0.00000000000E+00 -0.00000000000E+00 -0.16260116745E+03  0.16260116745E+03  0.00000000000E+00 0.  1.
         23    2    1    2    0    0  0.68779587732E+02  0.25825660129E+02  0.61831355540E+02  0.13224715552E+03  0.90931827241E+02 0.  0.
         23    2    1    2    0    0 -0.51203802759E+02 -0.47789207000E+01 -0.43005365478E+02  0.11401222515E+03  0.92220705501E+02 0.  0.
        -13    1    4    4    0    0 -0.75292962699E+02  0.11277729098E+02 -0.36058784829E+02  0.84240449720E+02  0.00000000000E+00 0.  1.
         13    1    4    4    0    0  0.24089159941E+02 -0.16056649798E+02 -0.69465806493E+01  0.29771775427E+02  0.00000000000E+00 0. -1.
        -13    1    3    3    0    0  0.89259711417E+02  0.77737582331E+01  0.46893308856E+02  0.10112719622E+03  0.00000000000E+00 0.  1.
         13    1    3    3    0    0 -0.20480123685E+02  0.18051901896E+02  0.14938046684E+02  0.31119959302E+02  0.00000000000E+00 0. -1.
         -3    1    1    2    0  502 -0.17575784973E+02 -0.21046739429E+02 -0.45039317308E+02  0.52729626982E+02  0.00000000000E+00 0.  1.
<scales pt_clust_5="13000.00000" pt_clust_6="13000.00000" pt_clust_7="13000.00000" pt_clust_8="13000.00000" pt_clust_9="27.42031"></scales>
<clustering>
<clus scale="   27.420">  2  9  1 -1</clus>
<clus scale="   90.932">  7  8 -1 -1</clus>
<clus scale="   92.221">  5  6 -1 -1</clus>
<clus scale="  112.486">  1  7  2 -1</clus>
<clus scale="   27.420">  2  5  1 -1</clus>
</clustering>
</event>
<event>
 9    1  0.1601012E-005  0.9713708E+02  0.7546771E-02  0.1291029E+00
         21   -1    0    0  501  502  0.00000000000E+00  0.00000000000E+00  0.24104097803E+03  0.24104097803E+03  0.00000000000E+00 0.  1.
          2   -1    0    0  502    0 -0.00000000000E+00 -0.00000000000E+00 -0.30684792747E+03  0.30684792747E+03  0.00000000000E+00 0. -1.
         23    2    1    2    0    0  0.19601030976E+02  0.25177443766E+02 -0.26874671185E+03  0.28315644351E+03  0.83274679698E+02 0.  0.
         23    2    1    2    0    0  0.55706774736E+01 -0.36672188520E+02  0.21331612352E+03  0.23517890159E+03  0.91812119788E+02 0.  0.
        -11    1    3    3    0    0 -0.13951439971E+01  0.50487941706E+02 -0.20837801036E+03  0.21441169252E+03  0.00000000000E+00 0. -1.
         11    1    3    3    0    0  0.20996174973E+02 -0.25310497940E+02 -0.60368701488E+02  0.68744750991E+02  0.00000000000E+00 0.  1.
        -13    1    4    4    0    0  0.36886918230E+02 -0.50150848854E+02  0.16218809135E+03  0.17372601807E+03  0.00000000000E+00 0.  1.
         13    1    4    4    0    0 -0.31316240756E+02  0.13478660334E+02  0.51128032169E+02  0.61452883520E+02  0.00000000000E+00 0. -1.
          2    1    1    2  501    0 -0.25171708450E+02  0.11494744754E+02 -0.10376361105E+02  0.29553560412E+02  0.00000000000E+00 0. -1.
<scales pt_clust_5="13000.00000" pt_clust_6="13000.00000" pt_clust_7="13000.00000" pt_clust_8="13000.00000" pt_clust_9="27.67209"></scales>
<clustering>
<clus scale="   27.672">  1  9  2 -1</clus>
<clus scale="   83.275">  5  6 -1 -1</clus>
<clus scale="   89.111">  2  5  1 -1</clus>
<clus scale="   91.812">  7  8 -1 -1</clus>
<clus scale="   27.672">  1  5  2 -1</clus>
</clustering>
</event>
<event>
 9    1  0.1601012E-005  0.1306715E+03  0.7546771E-02  0.1226884E+00
          1   -1    0    0  502    0 -0.00000000000E+00  0.00000000000E+00  0.21655849414E+03  0.21655849414E+03  0.00000000000E+00 0. -1.
         21   -1    0    0  501  502  0.00000000000E+00 -0.00000000000E+00 -0.18112080911E+03  0.18112080911E+03  0.00000000000E+00 0.  1.
         23    2    1    2    0    0  0.88717953646E+02 -0.11865736834E+00  0.13784747072E+03  0.18696426654E+03  0.89904518240E+02 0.  0.
         23    2    1    2    0    0 -0.11228878436E+03  0.12092052424E+02 -0.53106791110E+02  0.15477103323E+03  0.91535526655E+02 0.  0.
        -13    1    4    4    0    0 -0.10009540227E+03 -0.16755328527E+02 -0.10696469098E+02  0.10205020843E+03  0.00000000000E+00 0.  1.
         13    1    4    4    0    0 -0.12193382095E+02  0.28847380952E+02 -0.42410322012E+02  0.52720824802E+02  0.00000000000E+00 0. -1.
        -13    1    3    3    0    0 -0.90154777896E+00  0.23347391385E+02  0.32837387814E+01  0.23594414875E+02  0.00000000000E+00 0.  1.
         13    1    3    3    0    0  0.89619501425E+02 -0.23466048753E+02  0.13456373194E+03  0.16336985167E+03  0.00000000000E+00 0. -1.
          1    1    1    2  501    0  0.23570830715E+02 -0.11973395056E+02 -0.49302994589E+02  0.55944003479E+02  0.00000000000E+00 0. -1.
<scales pt_clust_5="13000.00000" pt_clust_6="13000.00000" pt_clust_7="13000.00000" pt_clust_8="13000.00000" pt_clust_9="26.43759"></scales>
<clustering>
<clus scale="   26.438">  2  9  1 -1</clus>
<clus scale="   89.905">  7  8 -1 -1</clus>
<clus scale="   91.536">  5  6 -1 -1</clus>
<clus scale="  129.534">  1  7  2 -1</clus>
<clus scale="   26.438">  2  5  1 -1</clus>
</clustering>
</event>
<event>
 9    1  0.1601012E-005  0.1720873E+03  0.7546771E-02  0.1175966E+00
          1   -1    0    0  502    0 -0.00000000000E+00  0.00000000000E+00  0.45739065463E+03  0.45739065463E+03  0.00000000000E+00 0. -1.
         21   -1    0    0  501  502  0.00000000000E+00 -0.00000000000E+00 -0.10151529510E+03  0.10151529510E+03  0.00000000000E+00 0.  1.
         23    2    1    2    0    0  0.12285860530E+02 -0.12668644400E+03  0.18830321597E+03  0.24450959431E+03  0.90146786420E+02 0.  0.
         23    2    1    2    0    0 -0.27440897493E+02  0.17568945935E+03  0.17241381523E+03  0.26287536511E+03  0.88074655377E+02 0.  0.
        -11    1    4    4    0    0  0.25320115459E+02  0.11505083363E+03  0.95925780326E+02  0.15191957707E+03  0.00000000000E+00 0.  1.
         11    1    4    4    0    0 -0.52761012952E+02  0.60638625714E+02  0.76488034901E+02  0.11095578804E+03  0.00000000000E+00 0. -1.
        -13    1    3    3    0    0  0.30378138461E+02 -0.86615484095E+02  0.61981784186E+02  0.11075565427E+03  0.00000000000E+00 0.  1.
         13    1    3    3    0    0 -0.18092277932E+02 -0.40070959909E+02  0.12632143179E+03  0.13375394005E+03  0.00000000000E+00 0. -1.
          1    1    1    2  501    0  0.15155036963E+02 -0.49003015342E+02 -0.48416716716E+01  0.51520990311E+02  0.00000000000E+00 0. -1.
<scales pt_clust_5="13000.00000" pt_clust_6="13000.00000" pt_clust_7="13000.00000" pt_clust_8="13000.00000" pt_clust_9="51.29299"></scales>
<clustering>
<clus scale="   51.293">  2  9  1 -1</clus>
<clus scale="   88.075">  5  6 -1 -1</clus>
<clus scale="   90.147">  7  8 -1 -1</clus>
<clus scale="  171.011">  2  5  1 -1</clus>
<clus scale="   51.293">  2  5  1 -1</clus>
</clustering>
</event>
<event>
 9    1  0.1601012E-005  0.9128773E+02  0.7546771E-02  0.1300166E+00
         -1   -1    0    0    0  501 -0.00000000000E+00  0.00000000000E+00  0.77623200676E+02  0.77623200676E+02  0.00000000000E+00 0.  1.
         21   -1    0    0  501  502  0.00000000000E+00 -0.00000000000E+00 -0.17095621322E+03  0.17095621322E+03  0.00000000000E+00 0.  1.
         23    2    1    2    0    0 -0.21274417303E+02  0.13220886419E+02  0.31396912747E+01  0.92917124166E+02  0.89422265866E+02 0.  0.
         23    2    1    2    0    0  0.11953998363E+02  0.12557355616E+02 -0.54609189485E+02  0.10562288722E+03  0.88732437533E+02 0.  0.
        -13    1    4    4    0    0  0.10659445579E+02  0.50548275531E+02 -0.24738255740E+02  0.57277685326E+02  0.00000000000E+00 0.  1.
         13    1    4    4    0    0  0.12945527841E+01 -0.37990919915E+02 -0.29870933746E+02  0.48345201890E+02  0.00000000000E+00 0. -1.
        -13    1    3    3    0    0 -0.49699945656E+02 -0.13795234307E+02 -0.78917874580E+01  0.52179242971E+02  0.00000000000E+00 0. -1.
         13    1    3    3    0    0  0.28425528352E+02  0.27016120726E+02  0.11031478733E+02  0.40737881195E+02  0.00000000000E+00 0.  1.
         -1    1    1    2    0  502  0.93204189404E+01 -0.25778242036E+02 -0.41863514335E+02  0.50039402516E+02  0.00000000000E+00 0.  1.
<scales pt_clust_5="13000.00000" pt_clust_6="13000.00000" pt_clust_7="13000.00000" pt_clust_8="13000.00000" pt_clust_9="27.41146"></scales>
<clustering>
<clus scale="   27.411">  2  9  1 -1</clus>
<clus scale="   88.732">  5  6 -1 -1</clus>
<clus scale="   89.422">  7  8 -1 -1</clus>
<clus scale="   90.612">  2  5  1 -1</clus>
<clus scale="   27.411">  2  5  1 -1</clus>
</clustering>
</event>
<event>
 9    1  0.1601012E-005  0.1378216E+03  0.7546771E-02  0.1216667E+00
          3   -1    0    0  502    0 -0.00000000000E+00  0.00000000000E+00  0.45952276679E+03  0.45952276679E+03  0.00000000000E+00 0. -1.
         21   -1    0    0  501  502  0.00000000000E+00 -0.00000000000E+00 -0.13810000118E+03  0.13810000118E+03  0.00000000000E+00 0. -1.
         23    2    1    2    0    0 -0.29998401402E+02  0.10743514828E+03  0.28423321130E+03  0.31916935946E+03  0.92942705161E+02 0.  0.
         23    2    1    2    0    0 -0.70554401526E+01 -0.90058389566E+02  0.12645763830E+03  0.18025091498E+03  0.91315745080E+02 0.  0.
        -11    1    3    3    0    0 -0.22844308570E+02  0.65106660445E+02  0.61789545887E+02  0.92621205181E+02  0.00000000000E+00 0.  1.
         11    1    3    3    0    0 -0.71540928321E+01  0.42328487832E+02  0.22244366541E+03  0.22654815428E+03  0.00000000000E+00 0. -1.
        -13    1    4    4    0    0  0.11116944832E+02 -0.77135511884E+02  0.33797709689E+02  0.84945622820E+02  0.00000000000E+00 0.  1.
         13    1    4    4    0    0 -0.18172384985E+02 -0.12922877682E+02  0.92659928610E+02  0.95305292159E+02  0.00000000000E+00 0. -1.
          3    1    1    2  501    0  0.37053841555E+02 -0.17376758710E+02 -0.89268083981E+02  0.98202493527E+02  0.00000000000E+00 0. -1.
<scales pt_clust_5="13000.00000" pt_clust_6="13000.00000" pt_clust_7="13000.00000" pt_clust_8="13000.00000" pt_clust_9="40.92602"></scales>
<clustering>
<clus scale="   40.926">  2  9  1 -1</clus>
<clus scale="   91.316">  7  8 -1 -1</clus>
<clus scale="   92.943">  5  6 -1 -1</clus>
<clus scale="  136.730">  2  7  1 -1</clus>
<clus scale="   40.926">  2  5  1 -1</clus>
</clustering>
</event>
<event>
 9    1  0.1601012E-005  0.1080384E+03  0.7546771E-02  0.1264332E+00
          1   -1    0    0  502    0 -0.00000000000E+00  0.00000000000E+00  0.81685267070E+03  0.81685267070E+03  0.00000000000E+00 0. -1.
         21   -1    0    0  501  502  0.00000000000E+00 -0.00000000000E+00 -0.20586611919E+02  0.20586611919E+02  0.00000000000E+00 0.  1.
         23    2    1    2    0    0  0.44524188975E+02 -0.18808034404E+02  0.39387634751E+03  0.40717182571E+03  0.91182086861E+02 0.  0.
         23    2    1    2    0    0 -0.71250038605E+02  0.76813285931E+01  0.36467595242E+03  0.38272376934E+03  0.91396731530E+02 0.  0.
        -11    1    3    3    0    0  0.41549731818E+02  0.30610116483E+02  0.16015642000E+03  0.16826597491E+03  0.00000000000E+00 0.  1.
         11    1    3    3    0    0  0.29744571576E+01 -0.49418150887E+02  0.23371992750E+03  0.23890585080E+03  0.00000000000E+00 0. -1.
        -13    1    4    4    0    0 -0.61835801330E+02  0.30619287286E+02  0.34274507873E+03  0.34962179005E+03  0.00000000000E+00 0.  1.
         13    1    4    4    0    0 -0.94142372749E+01 -0.22937958693E+02  0.21930873688E+02  0.33101979294E+02  0.00000000000E+00 0. -1.
          1    1    1    2  501    0  0.26725849630E+02  0.11126705811E+02  0.37713758850E+02  0.47543687565E+02  0.00000000000E+00 0. -1.
<scales pt_clust_5="13000.00000" pt_clust_6="13000.00000" pt_clust_7="13000.00000" pt_clust_8="13000.00000" pt_clust_9="28.94952"></scales>
<clustering>
<clus scale="   28.950">  2  9  1 -1</clus>
<clus scale="   91.182">  5  6 -1 -1</clus>
<clus scale="   91.397">  7  8 -1 -1</clus>
<clus scale="  107.857">  1  5  2 -1</clus>
<clus scale="   28.950">  2  5  1 -1</clus>
</clustering>
</event>
<event>
 9    1  0.1601012E-005  0.1725034E+03  0.7546771E-02  0.1191512E+00
         21   -1    0    0  501  502  0.00000000000E+00  0.00000000000E+00  0.49082307337E+03  0.49082307337E+03  0.00000000000E+00 0.  1.
         -4   -1    0    0    0  501 -0.00000000000E+00 -0.00000000000E+00 -0.11969160310E+03  0.11969160310E+03  0.00000000000E+00 0.  1.
         23    2    1    2    0    0  0.76875736907E+02 -0.15451962808E+02  0.76254131855E+01  0.12021473049E+03  0.90800839323E+02 0.  0.
         23    2    1    2    0    0  0.52849942019E+02 -0.10489496627E+03  0.12828096229E+03  0.19594814908E+03  0.90241905584E+02 0.  0.
        -11    1    3    3    0    0  0.85110859045E+01  0.31613195966E+02  0.16644536949E+02  0.36727011214E+02  0.00000000000E+00 0. -1.
         11    1    3    3    0    0  0.68364651002E+02 -0.47065158774E+02 -0.90191237631E+01  0.83487719280E+02  0.00000000000E+00 0.  1.
        -13    1    4    4    0    0 -0.18928018297E+02 -0.20056605065E+02  0.58640540290E+02  0.64801622271E+02  0.00000000000E+00 0. -1.
         13    1    4    4    0    0  0.71777960317E+02 -0.84838361202E+02  0.69640421999E+02  0.13114652681E+03  0.00000000000E+00 0.  1.
         -4    1    1    2    0  502 -0.12972567893E+03  0.12034692907E+03  0.23522509480E+03  0.29435179690E+03  0.00000000000E+00 0.  1.
<scales pt_clust_5="13000.00000" pt_clust_6="13000.00000" pt_clust_7="13000.00000" pt_clust_8="13000.00000" pt_clust_9="147.01651"></scales>
<clustering>
<clus scale="   90.242">  7  8 -1 -1</clus>
<clus scale="   90.801">  5  6 -1 -1</clus>
<clus scale="  119.973">  2  5  1 -1</clus>
<clus scale="  147.017">  1  9  2 -1</clus>
<clus scale="  147.017">  1  5  2 -1</clus>
</clustering>
</event>
<event>
 9    1  0.1601012E-005  0.1628919E+03  0.7546771E-02  0.1187144E+00
         21   -1    0    0  501  502  0.00000000000E+00  0.00000000000E+00  0.58213239661E+03  0.58213239661E+03  0.00000000000E+00 0.  1.
         -4   -1    0    0    0  501 -0.00000000000E+00 -0.00000000000E+00 -0.17934093983E+03  0.17934093983E+03  0.00000000000E+00 0.  1.
         23    2    1    2    0    0  0.12792216585E+03 -0.33922129534E+02 -0.12055088509E+03  0.20282804283E+03  0.95351495382E+02 0.  0.
         23    2    1    2    0    0 -0.11545157078E+03  0.67372480788E+02  0.39815299283E+03  0.42846536102E+03  0.84785868679E+02 0.  0.
        -11    1    4    4    0    0 -0.98307096604E+02  0.43353723999E+02  0.37738138777E+03  0.39237806063E+03  0.00000000000E+00 0.  1.
         11    1    4    4    0    0 -0.17144474179E+02  0.24018756789E+02  0.20771605062E+02  0.36087300390E+02  0.00000000000E+00 0. -1.
        -11    1    3    3    0    0  0.35180192859E+02  0.33108322360E+02 -0.42193304977E+02  0.64141109781E+02  0.00000000000E+00 0.  1.
         11    1    3    3    0    0  0.92741972996E+02 -0.67030451893E+02 -0.78357580112E+02  0.13868693304E+03  0.00000000000E+00 0. -1.
         -4    1    1    2    0  502 -0.12470595072E+02 -0.33450351254E+02  0.12518934903E+03  0.13017993260E+03  0.00000000000E+00 0.  1.
<scales pt_clust_5="13000.00000" pt_clust_6="13000.00000" pt_clust_7="13000.00000" pt_clust_8="13000.00000" pt_clust_9="35.69932"></scales>
<clustering>
<clus scale="   35.699">  1  9  2 -1</clus>
<clus scale="   84.786">  5  6 -1 -1</clus>
<clus scale="   95.351">  7  8 -1 -1</clus>
<clus scale="  156.941">  1  5  2 -1</clus>
<clus scale="   35.699">  1  5  2 -1</clus>
</clustering>
</event>
<event>
 9    1  0.1601012E-005  0.1016381E+03  0.7546771E-02  0.1277100E+00
         21   -1    0    0  501  502  0.00000000000E+00  0.00000000000E+00  0.10088061579E+03  0.10088061579E+03  0.00000000000E+00 0.  1.
         -1   -1    0    0    0  501 -0.00000000000E+00 -0.00000000000E+00 -0.38179580021E+03  0.38179580021E+03  0.00000000000E+00 0.  1.
         23    2    1    2    0    0 -0.22232628387E+02 -0.61835313987E+02 -0.25008188549E+03  0.27354020007E+03  0.89249065991E+02 0.  0.
         23    2    1    2    0    0  0.29084221762E+02  0.38702722937E+01 -0.86827542168E+02  0.12825206626E+03  0.89714544296E+02 0.  0.
        -11    1    3    3    0    0 -0.51770170906E+02 -0.59776279244E+02 -0.20372345666E+03  0.21853283723E+03  0.00000000000E+00 0.  1.
         11    1    3    3    0    0  0.29537542518E+02 -0.20590347428E+01 -0.46358428835E+02  0.55007362836E+02  0.00000000000E+00 0. -1.
        -13    1    4    4    0    0  0.35831000087E+02 -0.30865564840E+02 -0.78903329684E+02  0.91990646782E+02  0.00000000000E+00 0.  1.
         13    1    4    4    0    0 -0.67467783254E+01  0.34735837134E+02 -0.79242124845E+01  0.36261419480E+02  0.00000000000E+00 0. -1.
         -1    1    1    2    0  502 -0.68515933748E+01  0.57965041694E+02  0.55994243246E+02  0.80884149665E+02  0.00000000000E+00 0.  1.
<scales pt_clust_5="13000.00000" pt_clust_6="13000.00000" pt_clust_7="13000.00000" pt_clust_8="13000.00000" pt_clust_9="58.36857"></scales>
<clustering>
<clus scale="   58.369">  1  9  2 -1</clus>
<clus scale="   89.249">  5  6 -1 -1</clus>
<clus scale="   89.715">  7  8 -1 -1</clus>
<clus scale="  101.227">  2  5  1 -1</clus>
<clus scale="   58.369">  1  5  2 -1</clus>
</clustering>
</event>
<event>
 9    1  0.1601012E-005  0.1160275E+03  0.7546771E-02  0.1250505E+00
         21   -1    0    0  501  502  0.00000000000E+00  0.00000000000E+00  0.77682729948E+02  0.77682729948E+02  0.00000000000E+00 0.  1.
          1   -1    0    0  502    0 -0.00000000000E+00 -0.00000000000E+00 -0.41623615278E+03  0.41623615278E+03  0.00000000000E+00 0. -1.
         23    2    1    2    0    0  0.71272408746E+02 -0.16327454704E+02 -0.33938143117E+03  0.35860184775E+03  0.89828655576E+02 0.  0.
         23    2    1    2    0    0 -0.51132578637E+02  0.29035989817E+02  0.10531751389E+02  0.10960162616E+03  0.91891073380E+02 0.  0.
        -13    1    4    4    0    0  0.72140000259E+01  0.23699573933E+02  0.37626747174E+02  0.45049791386E+02  0.00000000000E+00 0. -1.
         13    1    4    4    0    0 -0.58346578663E+02  0.53364158834E+01 -0.27094995785E+02  0.64551834774E+02  0.00000000000E+00 0.  1.
        -13    1    3    3    0    0  0.22736208857E+02  0.36224272870E+02 -0.10004536068E+03  0.10880352628E+03  0.00000000000E+00 0.  1.
         13    1    3    3    0    0  0.48536199889E+02 -0.52551727575E+02 -0.23933607049E+03  0.24979832147E+03  0.00000000000E+00 0. -1.
          1    1    1    2  501    0 -0.20139830109E+02 -0.12708535112E+02 -0.97037430553E+01  0.25715408821E+02  0.00000000000E+00 0. -1.
<scales pt_clust_5="13000.00000" pt_clust_6="13000.00000" pt_clust_7="13000.00000" pt_clust_8="13000.00000" pt_clust_9="23.81427"></scales>
<clustering>
<clus scale="   23.814">  1  9  2 -1</clus>
<clus scale="   89.829">  7  8 -1 -1</clus>
<clus scale="   91.891">  5  6 -1 -1</clus>
<clus scale="  114.401">  2  7  1 -1</clus>
<clus scale="   23.814">  1  5  2 -1</clus>
</clustering>
</event>
<event>
 9    1  0.1601012E-005  0.1112985E+03  0.7546771E-02  0.1259570E+00
         -2   -1    0    0    0  501 -0.00000000000E+00  0.00000000000E+00  0.13874681042E+03  0.13874681042E+03  0.00000000000E+00 0.  1.
         21   -1    0    0  501  502  0.00000000000E+00 -0.00000000000E+00 -0.35111161723E+03  0.35111161723E+03  0.00000000000E+00 0.  1.
         23    2    1    2    0    0 -0.14469890059E+02  0.45970162993E+02  0.27562910495E+02  0.10610134961E+03  0.90416529189E+02 0.  0.
         23    2    1    2    0    0 -0.17954675047E+02 -0.78693262812E+02  0.14917506933E+02  0.12478170855E+03  0.93983736928E+02 0.  0.
        -11    1    4    4    0    0  0.32432515068E+02 -0.24901934930E+01  0.34974769512E+01  0.32715461823E+02  0.00000000000E+00 0. -1.
         11    1    4    4    0    0 -0.50387190114E+02 -0.76203069319E+02  0.11420029982E+02  0.92066246725E+02  0.00000000000E+00 0.  1.
        -13    1    3    3    0    0 -0.42054454364E+02 -0.65973064735E+01  0.16822405328E+02  0.45772206694E+02  0.00000000000E+00 0.  1.
         13    1    3    3    0    0  0.27584564306E+02  0.52567469467E+02  0.10740505167E+02  0.60329142919E+02  0.00000000000E+00 0. -1.
         -2    1    1    2    0  502  0.32424565105E+02  0.32723099819E+02 -0.25484522424E+03  0.25897536949E+03  0.00000000000E+00 0.  1.
<scales pt_clust_5="13000.00000" pt_clust_6="13000.00000" pt_clust_7="13000.00000" pt_clust_8="13000.00000" pt_clust_9="46.06684"></scales>
<clustering>
<clus scale="   46.067">  2  9  1 -1</clus>
<clus scale="   90.417">  7  8 -1 -1</clus>
<clus scale="   93.984">  5  6 -1 -1</clus>
<clus scale="  108.303">  1  7  2 -1</clus>
<clus scale="   46.067">  2  5  1 -1</clus>
</clustering>
</event>
<event>
 9    1  0.1601012E-005  0.9488907E+02  0.7546771E-02  0.1294672E+00
         -2   -1    0    0    0  501 -0.00000000000E+00  0.00000000000E+00  0.22115260059E+03  0.22115260059E+03  0.00000000000E+00 0.  1.
         21   -1    0    0  501  502  0.00000000000E+00 -0.00000000000E+00 -0.58396742569E+02  0.58396742569E+02  0.00000000000E+00 0. -1.
         23    2    1    2    0    0 -0.24320247216E+02 -0.19843352732E+02  0.83928814823E+02  0.12385944627E+03  0.85509551508E+02 0.  0.
         23    2    1    2    0    0  0.20909326191E+02  0.50850786862E+02  0.78678547882E+02  0.12449506712E+03  0.79282440646E+02 0.  0.
        -11    1    4    4    0    0 -0.24356676047E+02 -0.20173245151E+01  0.90936082915E+01  0.26077020114E+02  0.00000000000E+00 0. -1.
         11    1    4    4    0    0  0.45266002238E+02  0.52868111377E+02  0.69584939591E+02  0.98418047009E+02  0.00000000000E+00 0.  1.
        -11    1    3    3    0    0 -0.13407482323E+02 -0.41632420470E+02  0.84534328099E+01  0.44547497603E+02  0.00000000000E+00 0.  1.
         11    1    3    3    0    0 -0.10912764894E+02  0.21789067738E+02  0.75475382013E+02  0.79311948662E+02  0.00000000000E+00 0. -1.
         -2    1    1    2    0  502  0.34109210252E+01 -0.31007434130E+02  0.14849531596E+00  0.31194829771E+02  0.00000000000E+00 0.  1.
<scales pt_clust_5="13000.00000" pt_clust_6="13000.00000" pt_clust_7="13000.00000" pt_clust_8="13000.00000" pt_clust_9="31.19448"></scales>
<clustering>
<clus scale="   31.194">  2  9  1 -1</clus>
<clus scale="   79.282">  5  6 -1 -1</clus>
<clus scale="   85.510">  7  8 -1 -1</clus>
<clus scale="   89.318">  2  5  1 -1</clus>
<clus scale="   31.194">  2  5  1 -1</clus>
</clustering>
</event>
<event>
 9    1  0.1601012E-005  0.1072037E+03  0.7546771E-02  0.1266787E+00
          2   -1    0    0  502    0 -0.00000000000E+00  0.00000000000E+00  0.23210588169E+03  0.23210588169E+03  0.00000000000E+00 0. -1.
         21   -1    0    0  501  502  0.00000000000E+00 -0.00000000000E+00 -0.13831842263E+03  0.13831842263E+03  0.00000000000E+00 0. -1.
         23    2    1    2    0    0 -0.59033428457E+02 -0.18318926330E+02  0.12121916717E+03  0.16380191341E+03  0.91194581026E+02 0.  0.
         23    2    1    2    0    0  0.35014890194E+02  0.40545175276E+02  0.55344381293E+02  0.11761240665E+03  0.88880390878E+02 0.  0.
        -11    1    3    3    0    0 -0.23869397016E+02  0.15752035937E+02  0.10988367150E+03  0.11354424693E+03  0.00000000000E+00 0. -1.
         11    1    3    3    0    0 -0.35164031442E+02 -0.34070962267E+02  0.11335495674E+02  0.50257666472E+02  0.00000000000E+00 0.  1.
        -13    1    4    4    0    0  0.14937456227E+02  0.60766141565E+02  0.90150060502E+01  0.63221213950E+02  0.00000000000E+00 0. -1.
         13    1    4    4    0    0  0.20077433967E+02 -0.20220966289E+02  0.46329375243E+02  0.54391192695E+02  0.00000000000E+00 0.  1.
          2    1    1    2  501    0  0.24018538264E+02 -0.22226248946E+02 -0.82776089401E+02  0.89009984266E+02  0.00000000000E+00 0. -1.
<scales pt_clust_5="13000.00000" pt_clust_6="13000.00000" pt_clust_7="13000.00000" pt_clust_8="13000.00000" pt_clust_9="32.72455"></scales>
<clustering>
<clus scale="   32.725">  2  9  1 -1</clus>
<clus scale="   88.880">  7  8 -1 -1</clus>
<clus scale="   91.195">  5  6 -1 -1</clus>
<clus scale="  105.242">  2  7  1 -1</clus>
<clus scale="   32.725">  2  5  1 -1</clus>
</clustering>
</event>
<event>
 9    1  0.1601012E-005  0.1737959E+03  0.7546771E-02  0.1173964E+00
          1   -1    0    0  502    0 -0.00000000000E+00  0.00000000000E+00  0.28772069074E+03  0.28772069074E+03  0.00000000000E+00 0. -1.
         21   -1    0    0  501  502  0.00000000000E+00 -0.00000000000E+00 -0.20844415369E+03  0.20844415369E+03  0.00000000000E+00 0.  1.
         23    2    1    2    0    0  0.11485538831E+03  0.10411985429E+03  0.19929279626E+03  0.26881925215E+03  0.92268452899E+02 0.  0.
         23    2    1    2    0    0 -0.75817156046E+02 -0.87129346582E+02 -0.10830326016E+03  0.18318842665E+03  0.92133811984E+02 0.  0.
        -11    1    4    4    0    0 -0.23681871926E+02  0.14403729372E+02 -0.44507900854E+02  0.52433307317E+02  0.00000000000E+00 0. -1.
         11    1    4    4    0    0 -0.52135284120E+02 -0.10153307595E+03 -0.63795359303E+02  0.13075511933E+03  0.00000000000E+00 0.  1.
        -13    1    3    3    0    0  0.98234071992E+02  0.12147286781E+03  0.17637499499E+03  0.23561351695E+03  0.00000000000E+00 0. -1.
         13    1    3    3    0    0  0.16621316318E+02 -0.17353013520E+02  0.22917801277E+02  0.33205735193E+02  0.00000000000E+00 0.  1.
          1    1    1    2  501    0 -0.39038232264E+02 -0.16990507706E+02 -0.11712999054E+02  0.44157165639E+02  0.00000000000E+00 0. -1.
<scales pt_clust_5="13000.00000" pt_clust_6="13000.00000" pt_clust_7="13000.00000" pt_clust_8="13000.00000" pt_clust_9="42.57536"></scales>
<clustering>
<clus scale="   42.575">  2  9  1 -1</clus>
<clus scale="   92.134">  5  6 -1 -1</clus>
<clus scale="   92.268">  7  8 -1 -1</clus>
<clus scale="  173.724">  2  5  1 -1</clus>
<clus scale="   42.575">  2  5  1 -1</clus>
</clustering>
</event>
<event>
 9    1  0.1601012E-005  0.1743760E+03  0.7546771E-02  0.1173533E+00
         -3   -1    0    0    0  501 -0.00000000000E+00  0.00000000000E+00  0.65692524003E+02  0.65692524003E+02  0.00000000000E+00 0.  1.
         21   -1    0    0  501  502  0.00000000000E+00 -0.00000000000E+00 -0.62616191952E+03  0.62616191952E+03  0.00000000000E+00 0. -1.
         23    2    1    2    0    0  0.13791165699E+03  0.40479475423E+02 -0.16343237104E+03  0.23625573405E+03  0.91915281115E+02 0.  0.
         23    2    1    2    0    0 -0.15778463443E+03 -0.77443161612E+01 -0.29586281733E+03  0.34741947822E+03  0.90606411854E+02 0.  0.
        -11    1    3    3    0    0  0.65677737798E+02 -0.20941654710E+02 -0.37055193593E+02  0.78263692198E+02  0.00000000000E+00 0. -1.
         11    1    3    3    0    0  0.72233919196E+02  0.61421130133E+02 -0.12637717744E+03  0.15799204185E+03  0.00000000000E+00 0.  1.
        -13    1    4    4    0    0 -0.75070061227E+02 -0.69604678625E+01 -0.56635555117E+02  0.94295006808E+02  0.00000000000E+00 0.  1.
         13    1    4    4    0    0 -0.82714573200E+02 -0.78384829872E+00 -0.23922726222E+03  0.25312447141E+03  0.00000000000E+00 0. -1.
         -3    1    1    2    0  502  0.19872977434E+02 -0.32735159262E+02 -0.10117420714E+03  0.10817923126E+03  0.00000000000E+00 0.  1.
<scales pt_clust_5="13000.00000" pt_clust_6="13000.00000" pt_clust_7="13000.00000" pt_clust_8="13000.00000" pt_clust_9="38.29525"></scales>
<clustering>
<clus scale="   38.295">  2  9  1 -1</clus>
<clus scale="   90.606">  7  8 -1 -1</clus>
<clus scale="   91.915">  5  6 -1 -1</clus>
<clus scale="  173.690">  2  7  1 -1</clus>
<clus scale="   38.295">  2  5  1 -1</clus>
</clustering>
</event>
<event>
 9    1  0.1601012E-005  0.1349205E+03  0.7546771E-02  0.1224884E+00
         21   -1    0    0  501  502  0.00000000000E+00  0.00000000000E+00  0.91110185892E+02  0.91110185892E+02  0.00000000000E+00 0.  1.
          1   -1    0    0  502    0 -0.00000000000E+00 -0.00000000000E+00 -0.27519796091E+03  0.27519796091E+03  0.00000000000E+00 0. -1.
         23    2    1    2    0    0  0.41790690316E+02 -0.77001246786E+02 -0.14071037679E+03  0.18794678329E+03  0.88594183832E+02 0.  0.
         23    2    1    2    0    0 -0.54216054315E+01  0.83640834480E+02 -0.23258416952E+02  0.13627136627E+03  0.10489875266E+03 0.  0.
        -13    1    3    3    0    0  0.68863498717E+02 -0.52014922305E+02 -0.84806673552E+02  0.12099547709E+03  0.00000000000E+00 0.  1.
         13    1    3    3    0    0 -0.27072808401E+02 -0.24986324482E+02 -0.55903703234E+02  0.66951306194E+02  0.00000000000E+00 0. -1.
        -13    1    4    4    0    0  0.16225129064E+02  0.53748105591E+02  0.35830743273E+02  0.66602971640E+02  0.00000000000E+00 0.  1.
         13    1    4    4    0    0 -0.21646734495E+02  0.29892728888E+02 -0.59089160225E+02  0.69668394633E+02  0.00000000000E+00 0. -1.
          1    1    1    2  501    0 -0.36369084885E+02 -0.66395876935E+01 -0.20118981281E+02  0.42089997243E+02  0.00000000000E+00 0. -1.
<scales pt_clust_5="13000.00000" pt_clust_6="13000.00000" pt_clust_7="13000.00000" pt_clust_8="13000.00000" pt_clust_9="36.97018"></scales>
<clustering>
<clus scale="   36.970">  1  9  2 -1</clus>
<clus scale="   88.594">  5  6 -1 -1</clus>
<clus scale="  104.899">  7  8 -1 -1</clus>
<clus scale="  122.673">  2  5  1 -1</clus>
<clus scale="   36.970">  1  5  2 -1</clus>
</clustering>
</event>
<event>
 9    1  0.1601012E-005  0.1098070E+03  0.7546771E-02  0.1261347E+00
          1   -1    0    0  502    0 -0.00000000000E+00  0.00000000000E+00  0.34612685588E+03  0.34612685588E+03  0.00000000000E+00 0. -1.
         21   -1    0    0  501  502  0.00000000000E+00 -0.00000000000E+00 -0.72905330540E+02  0.72905330540E+02  0.00000000000E+00 0. -1.
         23    2    1    2    0    0  0.73254387947E+02  0.16470077911E+02  0.22370305054E+03  0.25336772347E+03  0.92275021840E+02 0.  0.
         23    2    1    2    0    0 -0.12332518344E+02 -0.22399434619E+02  0.16592474894E+02  0.96160844796E+02  0.91201821082E+02 0.  0.
        -13    1    4    4    0    0  0.29983960911E+01  0.24065897039E+02 -0.22844485769E+02  0.33317087350E+02  0.00000000000E+00 0. -1.
         13    1    4    4    0    0 -0.15330914435E+02 -0.46465331659E+02  0.39436960663E+02  0.62843757446E+02  0.00000000000E+00 0.  1.
        -13    1    3    3    0    0  0.15586795423E+02  0.49661420294E+02  0.10825524686E+03  0.12011828891E+03  0.00000000000E+00 0. -1.
         13    1    3    3    0    0  0.57667592524E+02 -0.33191342384E+02  0.11544780368E+03  0.13324943456E+03  0.00000000000E+00 0.  1.
          1    1    1    2  501    0 -0.60921869602E+02  0.59293567086E+01  0.32925999906E+02  0.69503618155E+02  0.00000000000E+00 0. -1.
<scales pt_clust_5="13000.00000" pt_clust_6="13000.00000" pt_clust_7="13000.00000" pt_clust_8="13000.00000" pt_clust_9="61.20973"></scales>
<clustering>
<clus scale="   61.210">  2  9  1 -1</clus>
<clus scale="   91.202">  5  6 -1 -1</clus>
<clus scale="   92.275">  7  8 -1 -1</clus>
<clus scale="  108.907">  2  5  1 -1</clus>
<clus scale="   61.210">  2  5  1 -1</clus>
</clustering>
</event>
<event>
 9    1  0.1601012E-005  0.1183696E+03  0.7546771E-02  0.1249240E+00
          4   -1    0    0  502    0 -0.00000000000E+00  0.00000000000E+00  0.42591774273E+03  0.42591774273E+03  0.00000000000E+00 0. -1.
         21   -1    0    0  501  502  0.00000000000E+00 -0.00000000000E+00 -0.54716980378E+02  0.54716980378E+02  0.00000000000E+00 0.  1.
         23    2    1    2    0    0  0.66025329729E+02 -0.22627188306E+02  0.23808768116E+03  0.26394556281E+03  0.90056551077E+02 0.  0.
         23    2    1    2    0    0 -0.57164465366E+02  0.84044309727E+00  0.14915480015E+03  0.18821963395E+03  0.99553974060E+02 0.  0.
        -13    1    3    3    0    0  0.99204824877E+01 -0.33740495883E+02  0.17620247668E+03  0.17967790577E+03  0.00000000000E+00 0. -1.
         13    1    3    3    0    0  0.56104847241E+02  0.11113307577E+02  0.61885204481E+02  0.84267657039E+02  0.00000000000E+00 0.  1.
        -13    1    4    4    0    0  0.22735407543E+02  0.20499651848E+02  0.56820347161E+02  0.64542128362E+02  0.00000000000E+00 0. -1.
         13    1    4    4    0    0 -0.79899872909E+02 -0.19659208750E+02  0.92334452987E+02  0.12367750559E+03  0.00000000000E+00 0.  1.
          4    1    1    2  501    0 -0.88608643630E+01  0.21786745209E+02 -0.16041718949E+02  0.28469526355E+02  0.00000000000E+00 0. -1.
<scales pt_clust_5="13000.00000" pt_clust_6="13000.00000" pt_clust_7="13000.00000" pt_clust_8="13000.00000" pt_clust_9="23.51972"></scales>
<clustering>
<clus scale="   23.520">  2  9  1 -1</clus>
<clus scale="   90.057">  5  6 -1 -1</clus>
<clus scale="   99.554">  7  8 -1 -1</clus>
<clus scale="  110.501">  1  5  2 -1</clus>
<clus scale="   23.520">  2  5  1 -1</clus>
</clustering>
</event>
<event>
 9    1  0.1601012E-005  0.1485895E+03  0.7546771E-02  0.1202281E+00
          2   -1    0    0  502    0 -0.00000000000E+00  0.00000000000E+00  0.25900573696E+03  0.25900573696E+03  0.00000000000E+00 0. -1.
         21   -1    0    0  501  502  0.00000000000E+00 -0.00000000000E+00 -0.16077808193E+03  0.16077808193E+03  0.00000000000E+00 0. -1.
         23    2    1    2    0    0 -0.11855224090E+03  0.55856347400E+02  0.14623498728E+03  0.21634601488E+03  0.90809477940E+02 0.  0.
         23    2    1    2    0    0  0.82850292134E+02 -0.44984820346E+02  0.13153714273E+02  0.13178940655E+03  0.91146160153E+02 0.  0.
        -11    1    4    4    0    0  0.14203547817E+02  0.23992164117E+02 -0.13374879216E+02  0.30923326206E+02  0.00000000000E+00 0.  1.
         11    1    4    4    0    0  0.68646744317E+02 -0.68976984463E+02  0.26528593489E+02  0.10086608034E+03  0.00000000000E+00 0. -1.
        -13    1    3    3    0    0 -0.19048043428E+02  0.56283089674E+02  0.46382750867E+02  0.75378867859E+02  0.00000000000E+00 0.  1.
         13    1    3    3    0    0 -0.99504197476E+02 -0.42674227377E+00  0.99852236408E+02  0.14096714702E+03  0.00000000000E+00 0. -1.
          2    1    1    2  501    0  0.35701948770E+02 -0.10871527053E+02 -0.61161046517E+02  0.71648397452E+02  0.00000000000E+00 0. -1.
<scales pt_clust_5="13000.00000" pt_clust_6="13000.00000" pt_clust_7="13000.00000" pt_clust_8="13000.00000" pt_clust_9="37.32049"></scales>
<clustering>
<clus scale="   37.320">  2  9  1 -1</clus>
<clus scale="   90.809">  7  8 -1 -1</clus>
<clus scale="   91.146">  5  6 -1 -1</clus>
<clus scale="  148.383">  1  7  2 -1</clus>
<clus scale="   37.320">  2  5  1 -1</clus>
</clustering>
</event>
<event>
 9    1  0.1601012E-005  0.9849710E+02  0.7546771E-02  0.1283546E+00
         -3   -1    0    0    0  501 -0.00000000000E+00  0.00000000000E+00  0.97769317800E+02  0.97769317800E+02  0.00000000000E+00 0.  1.
         21   -1    0    0  501  502  0.00000000000E+00 -0.00000000000E+00 -0.18242617775E+03  0.18242617775E+03  0.00000000000E+00 0. -1.
         23    2    1    2    0    0 -0.23463563729E+02 -0.21553030677E+02 -0.10384058433E+01  0.97736228026E+02  0.92391666441E+02 0.  0.
         23    2    1    2    0    0  0.39915290173E+02  0.46736360800E+01 -0.54302908733E+01  0.10079555383E+03  0.92277745684E+02 0.  0.
        -11    1    3    3    0    0  0.30334647203E+02  0.67216309246E+01 -0.16281628404E+02  0.35077949864E+02  0.00000000000E+00 0. -1.
         11    1    3    3    0    0 -0.53798210932E+02 -0.28274661601E+02  0.15243222560E+02  0.62658278161E+02  0.00000000000E+00 0.  1.
        -13    1    4    4    0    0 -0.29599993252E+02  0.72457497428E+00 -0.93720019835E+01  0.31056706692E+02  0.00000000000E+00 0.  1.
         13    1    4    4    0    0  0.69515283425E+02  0.39490611057E+01  0.39417111102E+01  0.69738847135E+02  0.00000000000E+00 0. -1.
         -3    1    1    2    0  502 -0.16451726444E+02  0.16879394597E+02 -0.78188163237E+02  0.81663713700E+02  0.00000000000E+00 0.  1.
<scales pt_clust_5="13000.00000" pt_clust_6="13000.00000" pt_clust_7="13000.00000" pt_clust_8="13000.00000" pt_clust_9="23.57060"></scales>
<clustering>
<clus scale="   23.571">  2  9  1 -1</clus>
<clus scale="   92.278">  7  8 -1 -1</clus>
<clus scale="   92.392">  5  6 -1 -1</clus>
<clus scale="   98.390">  2  7  1 -1</clus>
<clus scale="   23.571">  2  5  1 -1</clus>
</clustering>
</event>
<event>
 9    1  0.1601012E-005  0.1017003E+03  0.7546771E-02  0.1276958E+00
         21   -1    0    0  501  502  0.00000000000E+00  0.00000000000E+00  0.42913685104E+02  0.42913685104E+02  0.00000000000E+00 0.  1.
          1   -1    0    0  502    0 -0.00000000000E+00 -0.00000000000E+00 -0.37846128622E+03  0.37846128622E+03  0.00000000000E+00 0. -1.
         23    2    1    2    0    0  0.34892791134E+02 -0.24592081093E+02 -0.20152740226E+03  0.22530567050E+03  0.91252802551E+02 0.  0.
         23    2    1    2    0    0 -0.54394036606E+02 -0.55351270018E+01 -0.10705968920E+03  0.15118259540E+03  0.91679066594E+02 0.  0.
        -13    1    3    3    0    0  0.31618278597E+02 -0.56543622085E+02 -0.10304101480E+03  0.12171420407E+03  0.00000000000E+00 0.  1.
         13    1    3    3    0    0  0.32745125366E+01  0.31951540992E+02 -0.98486387453E+02  0.10359146643E+03  0.00000000000E+00 0. -1.
        -13    1    4    4    0    0  0.25881017194E+02 -0.51278096319E+00 -0.20483333342E+02  0.33009952137E+02  0.00000000000E+00 0.  1.
         13    1    4    4    0    0 -0.80275053800E+02 -0.50223460386E+01 -0.86576355858E+02  0.11817264326E+03  0.00000000000E+00 0. -1.
          1    1    1    2  501    0  0.19501245472E+02  0.30127208094E+02 -0.26960509659E+02  0.44886705422E+02  0.00000000000E+00 0. -1.
<scales pt_clust_5="13000.00000" pt_clust_6="13000.00000" pt_clust_7="13000.00000" pt_clust_8="13000.00000" pt_clust_9="35.88798"></scales>
<clustering>
<clus scale="   35.888">  1  9  2 -1</clus>
<clus scale="   91.253">  5  6 -1 -1</clus>
<clus scale="   91.679">  7  8 -1 -1</clus>
<clus scale="  101.316">  2  5  1 -1</clus>
<clus scale="   35.888">  1  5  2 -1</clus>
</clustering>
</event>
<event>
 9    1  0.1601012E-005  0.3120658E+03  0.7546771E-02  0.1079418E+00
         21   -1    0    0  501  502  0.00000000000E+00  0.00000000000E+00  0.17824615950E+03  0.17824615950E+03  0.00000000000E+00 0.  1.
          2   -1    0    0  502    0 -0.00000000000E+00 -0.00000000000E+00 -0.15090220133E+04  0.15090220133E+04  0.00000000000E+00 0. -1.
         23    2    1    2    0    0 -0.18577562903E+03  0.22888255759E+03 -0.11822933936E+04  0.12218270741E+04  0.90243674617E+02 0.  0.
         23    2    1    2    0    0  0.12904122285E+03 -0.30135973844E+03 -0.15305230634E+03  0.37328569692E+03  0.91912316360E+02 0.  0.
        -11    1    3    3    0    0 -0.36408288876E+02  0.44719597234E+02 -0.11670732554E+03  0.13017682479E+03  0.00000000000E+00 0.  1.
         11    1    3    3    0    0 -0.14936734015E+03  0.18416296035E+03 -0.10655860681E+04  0.10916502493E+04  0.00000000000E+00 0. -1.
        -11    1    4    4    0    0  0.83656370642E+02 -0.22387514735E+03 -0.15246581994E+03  0.28348597179E+03  0.00000000000E+00 0.  1.
         11    1    4    4    0    0  0.45384852209E+02 -0.77484591092E+02 -0.58648639305E+00  0.89799725128E+02  0.00000000000E+00 0. -1.
          2    1    1    2  501    0  0.56734406176E+02  0.72477180856E+02  0.45698461718E+01  0.92155401811E+02  0.00000000000E+00 0. -1.
<scales pt_clust_5="13000.00000" pt_clust_6="13000.00000" pt_clust_7="13000.00000" pt_clust_8="13000.00000" pt_clust_9="92.04203"></scales>
<clustering>
<clus scale="   90.244">  5  6 -1 -1</clus>
<clus scale="   91.912">  7  8 -1 -1</clus>
<clus scale="   92.042">  1  9  2 -1</clus>
<clus scale="  311.578">  2  5  1 -1</clus>
<clus scale="   92.042">  1  5  2 -1</clus>
</clustering>
</event>
<event>
 9    1  0.1601012E-005  0.1038490E+03  0.7546771E-02  0.1272875E+00
         21   -1    0    0  501  502  0.00000000000E+00  0.00000000000E+00  0.51679439892E+02  0.51679439892E+02  0.00000000000E+00 0.  1.
          1   -1    0    0  502    0 -0.00000000000E+00 -0.00000000000E+00 -0.31196774426E+03  0.31196774426E+03  0.00000000000E+00 0. -1.
         23    2    1    2    0    0  0.28336841204E+02  0.13121533728E+02 -0.11075455399E+03  0.14789089702E+03  0.92897766254E+02 0.  0.
         23    2    1    2    0    0 -0.60527724003E+02 -0.14017259693E+02 -0.14603405039E+03  0.18336333789E+03  0.91848140244E+02 0.  0.
        -11    1    3    3    0    0  0.13403882660E+02  0.53395457144E+02 -0.62434743181E+02  0.83239630406E+02  0.00000000000E+00 0.  1.
         11    1    3    3    0    0  0.14932958544E+02 -0.40273923416E+02 -0.48319810813E+02  0.64651266617E+02  0.00000000000E+00 0. -1.
        -11    1    4    4    0    0 -0.26425277084E+02 -0.44723726261E+02 -0.11962479642E+03  0.13041701913E+03  0.00000000000E+00 0.  1.
         11    1    4    4    0    0 -0.34102446919E+02  0.30706466568E+02 -0.26409253965E+02  0.52946318758E+02  0.00000000000E+00 0. -1.
          1    1    1    2  501    0  0.32190882799E+02  0.89572596483E+00 -0.34996999826E+01  0.32392949238E+02  0.00000000000E+00 0. -1.
<scales pt_clust_5="13000.00000" pt_clust_6="13000.00000" pt_clust_7="13000.00000" pt_clust_8="13000.00000" pt_clust_9="32.20334"></scales>
<clustering>
<clus scale="   32.203">  1  9  2 -1</clus>
<clus scale="   91.848">  7  8 -1 -1</clus>
<clus scale="   92.898">  5  6 -1 -1</clus>
<clus scale="  102.911">  1  7  2 -1</clus>
<clus scale="   32.203">  1  5  2 -1</clus>
</clustering>
</event>
<event>
 9    1  0.1601012E-005  0.1199187E+03  0.7546771E-02  0.1243266E+00
         21   -1    0    0  501  502  0.00000000000E+00  0.00000000000E+00  0.38314617692E+03  0.38314617692E+03  0.00000000000E+00 0.  1.
         -3   -1    0    0    0  501 -0.00000000000E+00 -0.00000000000E+00 -0.12619518512E+03  0.12619518512E+03  0.00000000000E+00 0.  1.
         23    2    1    2    0    0 -0.79996279002E+02 -0.49508381577E+02 -0.36697020407E+02  0.13643891751E+03  0.91751961310E+02 0.  0.
         23    2    1    2    0    0  0.47919261293E+02  0.21736084129E+02  0.35778345680E+02  0.11156549636E+03  0.91640913360E+02 0.  0.
        -11    1    4    4    0    0 -0.79810433072E+00 -0.23739824782E+02 -0.14725020400E+02  0.27947137187E+02  0.00000000000E+00 0.  1.
         11    1    4    4    0    0  0.48717365624E+02  0.45475908911E+02  0.50503366081E+02  0.83618359168E+02  0.00000000000E+00 0. -1.
        -11    1    3    3    0    0 -0.83251485996E+02 -0.69515289944E+02 -0.20242676560E+02  0.11033109902E+03  0.00000000000E+00 0.  1.
         11    1    3    3    0    0  0.32552069938E+01  0.20006908367E+02 -0.16454343847E+02  0.26107818492E+02  0.00000000000E+00 0. -1.
         -3    1    1    2    0  502  0.32077017709E+02  0.27772297448E+02  0.25786966652E+03  0.26133694817E+03  0.00000000000E+00 0.  1.
<scales pt_clust_5="13000.00000" pt_clust_6="13000.00000" pt_clust_7="13000.00000" pt_clust_8="13000.00000" pt_clust_9="42.42918"></scales>
<clustering>
<clus scale="   42.429">  1  9  2 -1</clus>
<clus scale="   91.641">  5  6 -1 -1</clus>
<clus scale="   91.752">  7  8 -1 -1</clus>
<clus scale="  119.834">  1  5  2 -1</clus>
<clus scale="   42.429">  1  5  2 -1</clus>
</clustering>
</event>
<event>
 9    1  0.1601012E-005  0.2846156E+03  0.7546771E-02  0.1093293E+00
         21   -1    0    0  501  502  0.00000000000E+00  0.00000000000E+00  0.83274234763E+03  0.83274234763E+03  0.00000000000E+00 0.  1.
          2   -1    0    0  502    0 -0.00000000000E+00 -0.00000000000E+00 -0.14190088795E+03  0.14190088795E+03  0.00000000000E+00 0. -1.
         23    2    1    2    0    0 -0.16677311306E+03  0.22083248571E+03  0.19208342824E+03  0.34963860480E+03  0.93652830041E+02 0.  0.
         23    2    1    2    0    0  0.19554294999E+03 -0.17453561854E+03  0.26077401049E+03  0.38085816317E+03  0.91379037389E+02 0.  0.
        -11    1    3    3    0    0 -0.82798895516E+01  0.29732634464E+02 -0.67100629335E+01  0.31584981680E+02  0.00000000000E+00 0.  1.
         11    1    3    3    0    0 -0.15849322351E+03  0.19109985125E+03  0.19879349117E+03  0.31805362312E+03  0.00000000000E+00 0. -1.
        -11    1    4    4    0    0  0.57538909051E+02 -0.40471628627E+01  0.44822993943E+02  0.73049342009E+02  0.00000000000E+00 0. -1.
         11    1    4    4    0    0  0.13800404094E+03 -0.17048845568E+03  0.21595101655E+03  0.30780882116E+03  0.00000000000E+00 0.  1.
          2    1    1    2  501    0 -0.28769836930E+02 -0.46296867173E+02  0.23798402095E+03  0.24414646762E+03  0.00000000000E+00 0. -1.
<scales pt_clust_5="13000.00000" pt_clust_6="13000.00000" pt_clust_7="13000.00000" pt_clust_8="13000.00000" pt_clust_9="54.50783"></scales>
<clustering>
<clus scale="   54.508">  1  9  2 -1</clus>
<clus scale="   91.379">  7  8 -1 -1</clus>
<clus scale="   93.653">  5  6 -1 -1</clus>
<clus scale="  283.876">  1  7  2 -1</clus>
<clus scale="   54.508">  1  5  2 -1</clus>
</clustering>
</event>
<event>
 9    1  0.1601012E-005  0.1254447E+03  0.7546771E-02  0.1234520E+00
         -3   -1    0    0    0  501 -0.00000000000E+00  0.00000000000E+00  0.87125036367E+03  0.87125036367E+03  0.00000000000E+00 0.  1.
         21   -1    0    0  501  502  0.00000000000E+00 -0.00000000000E+00 -0.36955716637E+02  0.36955716637E+02  0.00000000000E+00 0.  1.
         23    2    1    2    0    0  0.70455660566E+02 -0.29489742383E+02  0.53384677343E+03  0.54705733397E+03  0.91900512166E+02 0.  0.
         23    2    1    2    0    0 -0.88575959169E+02  0.69678364685E+02  0.27314824281E+03  0.30929568061E+03  0.91395188308E+02 0.  0.
        -11    1    3    3    0    0  0.74067039148E+02 -0.54427704987E+02  0.45807598472E+03  0.46720649517E+03  0.00000000000E+00 0. -1.
         11    1    3    3    0    0 -0.36113785826E+01  0.24937962604E+02  0.75770788716E+02  0.79850838798E+02  0.00000000000E+00 0.  1.
        -13    1    4    4    0    0 -0.71878872292E+02  0.91714909353E+02  0.23348507869E+03  0.26094727217E+03  0.00000000000E+00 0.  1.
         13    1    4    4    0    0 -0.16697086877E+02 -0.22036544668E+02  0.39663164115E+02  0.48348408440E+02  0.00000000000E+00 0. -1.
         -3    1    1    2    0  502  0.18120298603E+02 -0.40188622302E+02  0.27299630795E+02  0.51853065729E+02  0.00000000000E+00 0.  1.
<scales pt_clust_5="13000.00000" pt_clust_6="13000.00000" pt_clust_7="13000.00000" pt_clust_8="13000.00000" pt_clust_9="44.08481"></scales>
<clustering>
<clus scale="   44.085">  2  9  1 -1</clus>
<clus scale="   91.395">  7  8 -1 -1</clus>
<clus scale="   91.901">  5  6 -1 -1</clus>
<clus scale="  125.075">  2  7  1 -1</clus>
<clus scale="   44.085">  2  5  1 -1</clus>
</clustering>
</event>
<event>
 9    1  0.1601012E-005  0.1198894E+03  0.7546771E-02  0.1245100E+00
          2   -1    0    0  502    0 -0.00000000000E+00  0.00000000000E+00  0.50798503947E+03  0.50798503947E+03  0.00000000000E+00 0. -1.
         21   -1    0    0  501  502  0.00000000000E+00 -0.00000000000E+00 -0.54373175246E+02  0.54373175246E+02  0.00000000000E+00 0.  1.
         23    2    1    2    0    0  0.56378807525E+02 -0.59277632824E+02  0.37146117241E+03  0.39266222408E+03  0.97508009518E+02 0.  0.
         23    2    1    2    0    0 -0.14934213746E+02  0.38475081993E+02  0.65859680803E+02  0.12054522752E+03  0.92142778603E+02 0.  0.
        -11    1    3    3    0    0  0.70769044330E+02 -0.76828219310E+02  0.29813401882E+03  0.31590303274E+03  0.00000000000E+00 0. -1.
         11    1    3    3    0    0 -0.14390236804E+02  0.17550586486E+02  0.73327153585E+02  0.76759191334E+02  0.00000000000E+00 0.  1.
        -11    1    4    4    0    0 -0.22628392286E+02  0.64400806787E+02  0.27456524826E+02  0.73575599269E+02  0.00000000000E+00 0.  1.
         11    1    4    4    0    0  0.76941785401E+01 -0.25925724793E+02  0.38403155977E+02  0.46969628255E+02  0.00000000000E+00 0. -1.
          2    1    1    2  501    0 -0.41444593779E+02  0.20802550831E+02  0.16291011009E+02  0.49150763110E+02  0.00000000000E+00 0. -1.
<scales pt_clust_5="13000.00000" pt_clust_6="13000.00000" pt_clust_7="13000.00000" pt_clust_8="13000.00000" pt_clust_9="46.37241"></scales>
<clustering>
<clus scale="   46.372">  2  9  1 -1</clus>
<clus scale="   92.143">  7  8 -1 -1</clus>
<clus scale="   97.508">  5  6 -1 -1</clus>
<clus scale="  115.568">  2  7  1 -1</clus>
<clus scale="   46.372">  2  5  1 -1</clus>
</clustering>
</event>
<event>
 9    1  0.1601012E-005  0.2201349E+03  0.7546771E-02  0.1134305E+00
          1   -1    0    0  502    0 -0.00000000000E+00  0.00000000000E+00  0.58269409143E+03  0.58269409143E+03  0.00000000000E+00 0. -1.
         21   -1    0    0  501  502  0.00000000000E+00 -0.00000000000E+00 -0.10526615398E+03  0.10526615398E+03  0.00000000000E+00 0.  1.
         23    2    1    2    0    0 -0.16525626938E+03 -0.13295701994E+03  0.32671004932E+03  0.40130042484E+03  0.96516169274E+02 0.  0.
         23    2    1    2    0    0  0.15161824505E+03  0.94806619458E+02  0.14140528320E+03  0.24508851586E+03  0.89980771086E+02 0.  0.
        -11    1    3    3    0    0 -0.68450640787E+02 -0.27035977529E+02  0.48134012123E+02  0.87939282622E+02  0.00000000000E+00 0.  1.
         11    1    3    3    0    0 -0.96805628590E+02 -0.10592104241E+03  0.27857603720E+03  0.31336114222E+03  0.00000000000E+00 0. -1.
        -13    1    4    4    0    0  0.84167341510E+02  0.20811666698E+01  0.73929683057E+02  0.11204494932E+03  0.00000000000E+00 0.  1.
         13    1    4    4    0    0  0.67450903543E+02  0.92725452788E+02  0.67475600144E+02  0.13304356654E+03  0.00000000000E+00 0. -1.
          1    1    1    2  501    0  0.13638024324E+02  0.38150400484E+02  0.93126049221E+01  0.41571304706E+02  0.00000000000E+00 0. -1.
<scales pt_clust_5="13000.00000" pt_clust_6="13000.00000" pt_clust_7="13000.00000" pt_clust_8="13000.00000" pt_clust_9="40.51480"></scales>
<clustering>
<clus scale="   40.515">  2  9  1 -1</clus>
<clus scale="   89.981">  7  8 -1 -1</clus>
<clus scale="   96.516">  5  6 -1 -1</clus>
<clus scale="  217.349">  2  7  1 -1</clus>
<clus scale="   40.515">  2  5  1 -1</clus>
</clustering>
</event>
<event>
 9    1  0.1601012E-005  0.1120919E+03  0.7546771E-02  0.1257916E+00
         -1   -1    0    0    0  501 -0.00000000000E+00  0.00000000000E+00  0.97230393207E+02  0.97230393207E+02  0.00000000000E+00 0.  1.
         21   -1    0    0  501  502  0.00000000000E+00 -0.00000000000E+00 -0.51252445290E+03  0.51252445290E+03  0.00000000000E+00 0.  1.
         23    2    1    2    0    0 -0.47298543394E+02 -0.34150785832E+02  0.46772222450E+02  0.11846558031E+03  0.91885932251E+02 0.  0.
         23    2    1    2    0    0  0.37616804073E+02  0.64851250750E+02 -0.26106367327E+03  0.28772526260E+03  0.94925637032E+02 0.  0.
        -11    1    3    3    0    0 -0.72784463987E+02 -0.29081511014E+02  0.48917909049E+02  0.92391960183E+02  0.00000000000E+00 0.  1.
         11    1    3    3    0    0  0.25485920593E+02 -0.50692748183E+01 -0.21456865992E+01  0.26073620129E+02  0.00000000000E+00 0. -1.
        -13    1    4    4    0    0  0.54128154490E+02  0.39700170794E+00 -0.10717256337E+03  0.12006653596E+03  0.00000000000E+00 0. -1.
         13    1    4    4    0    0 -0.16511350417E+02  0.64454249042E+02 -0.15389110990E+03  0.16765872664E+03  0.00000000000E+00 0.  1.
         -1    1    1    2    0  502  0.96817393210E+01 -0.30700464918E+02 -0.20100260887E+03  0.20356400319E+03  0.00000000000E+00 0.  1.
<scales pt_clust_5="13000.00000" pt_clust_6="13000.00000" pt_clust_7="13000.00000" pt_clust_8="13000.00000" pt_clust_9="32.19091"></scales>
<clustering>
<clus scale="   32.191">  2  9  1 -1</clus>
<clus scale="   91.886">  5  6 -1 -1</clus>
<clus scale="   94.926">  7  8 -1 -1</clus>
<clus scale="  109.530">  1  5  2 -1</clus>
<clus scale="   32.191">  2  5  1 -1</clus>
</clustering>
</event>
<event>
 9    1  0.1601012E-005  0.1105837E+03  0.7546771E-02  0.1259600E+00
         21   -1    0    0  501  502  0.00000000000E+00  0.00000000000E+00  0.12083760544E+03  0.12083760544E+03  0.00000000000E+00 0. -1.
          1   -1    0    0  502    0 -0.00000000000E+00 -0.00000000000E+00 -0.20049458532E+03  0.20049458532E+03  0.00000000000E+00 0. -1.
         23    2    1    2    0    0 -0.40104668634E+02  0.43718893857E+02 -0.12070078189E+03  0.16230963253E+03  0.90862599228E+02 0.  0.
         23    2    1    2    0    0  0.67968829545E+02 -0.43816688758E+02  0.47557576549E+02  0.13040699802E+03  0.90579236268E+02 0.  0.
        -11    1    3    3    0    0  0.72571453253E+01  0.53031380996E+02 -0.35007405210E+02  0.63957110223E+02  0.00000000000E+00 0. -1.
         11    1    3    3    0    0 -0.47361813959E+02 -0.93124871388E+01 -0.85693376679E+02  0.98352522311E+02  0.00000000000E+00 0.  1.
        -13    1    4    4    0    0 -0.13272858921E+02 -0.37396800372E+02  0.19522947966E+02  0.44224822886E+02  0.00000000000E+00 0.  1.
         13    1    4    4    0    0  0.81241688466E+02 -0.64198883861E+01  0.28034628583E+02  0.86182175138E+02  0.00000000000E+00 0. -1.
          1    1    1    2  501    0 -0.27864160911E+02  0.97794901253E-01 -0.65137745327E+01  0.28615560204E+02  0.00000000000E+00 0. -1.
<scales pt_clust_5="13000.00000" pt_clust_6="13000.00000" pt_clust_7="13000.00000" pt_clust_8="13000.00000" pt_clust_9="27.86433"></scales>
<clustering>
<clus scale="   27.864">  1  9  2 -1</clus>
<clus scale="   90.579">  7  8 -1 -1</clus>
<clus scale="   90.863">  5  6 -1 -1</clus>
<clus scale="  110.351">  1  7  2 -1</clus>
<clus scale="   27.864">  1  5  2 -1</clus>
</clustering>
</event>
<event>
 9    1  0.1601012E-005  0.1033348E+03  0.7546771E-02  0.1274805E+00
          2   -1    0    0  502    0 -0.00000000000E+00  0.00000000000E+00  0.75043233036E+02  0.75043233036E+02  0.00000000000E+00 0. -1.
         21   -1    0    0  501  502  0.00000000000E+00 -0.00000000000E+00 -0.37993770283E+03  0.37993770283E+03  0.00000000000E+00 0. -1.
         23    2    1    2    0    0  0.54222563061E+01 -0.35042542328E+02 -0.56034707660E+02  0.11826996894E+03  0.97931182233E+02 0.  0.
         23    2    1    2    0    0 -0.77320690921E+02 -0.35394658512E+02 -0.12614437037E+03  0.17799785614E+03  0.92409758776E+02 0.  0.
        -11    1    4    4    0    0  0.19292518798E+02  0.63316605650E+01 -0.18809939896E+02  0.27678602674E+02  0.00000000000E+00 0.  1.
         11    1    4    4    0    0 -0.96613209719E+02 -0.41726319077E+02 -0.10733443048E+03  0.15031925346E+03  0.00000000000E+00 0. -1.
        -13    1    3    3    0    0 -0.32958134521E+02 -0.51665245799E+02 -0.41408878959E+02  0.73961013455E+02  0.00000000000E+00 0. -1.
         13    1    3    3    0    0  0.38380390827E+02  0.16622703471E+02 -0.14625828701E+02  0.44308955482E+02  0.00000000000E+00 0.  1.
          2    1    1    2  501    0  0.71898434614E+02  0.70437200840E+02 -0.12271539177E+03  0.15871311080E+03  0.00000000000E+00 0. -1.
<scales pt_clust_5="13000.00000" pt_clust_6="13000.00000" pt_clust_7="13000.00000" pt_clust_8="13000.00000" pt_clust_9="100.65180"></scales>
<clustering>
<clus scale="   92.410">  5  6 -1 -1</clus>
<clus scale="   97.931">  7  8 -1 -1</clus>
<clus scale="  100.652">  2  9  1 -1</clus>
<clus scale="  100.652">  2  5  1 -1</clus>
<clus scale="  100.652">  2  5  1 -1</clus>
</clustering>
</event>
<event>
 9    1  0.1601012E-005  0.2171923E+03  0.7546771E-02  0.1136169E+00
         -1   -1    0    0    0  501 -0.00000000000E+00  0.00000000000E+00  0.38656845673E+03  0.38656845673E+03  0.00000000000E+00 0.  1.
         21   -1    0    0  501  502  0.00000000000E+00 -0.00000000000E+00 -0.22997331448E+03  0.22997331448E+03  0.00000000000E+00 0. -1.
         23    2    1    2    0    0 -0.17997929582E+03 -0.68653690886E+02  0.25437423050E+03  0.33176245127E+03  0.90852620930E+02 0.  0.
         23    2    1    2    0    0  0.20668544202E+03  0.49173367772E+02 -0.71968570520E+02  0.24284026822E+03  0.93032406656E+02 0.  0.
        -13    1    3    3    0    0 -0.72181958042E+02 -0.22824331278E+02  0.17385281922E+03  0.18962064211E+03  0.00000000000E+00 0.  1.
         13    1    3    3    0    0 -0.10779733778E+03 -0.45829359608E+02  0.80521411285E+02  0.14214180915E+03  0.00000000000E+00 0. -1.
        -13    1    4    4    0    0  0.18208938234E+03  0.51393842169E+02 -0.26435557476E+02  0.19104111828E+03  0.00000000000E+00 0. -1.
         13    1    4    4    0    0  0.24596059677E+02 -0.22204743962E+01 -0.45533013044E+02  0.51799149945E+02  0.00000000000E+00 0.  1.
         -1    1    1    2    0  502 -0.26706146199E+02  0.19480323114E+02 -0.25810517733E+02  0.41939051719E+02  0.00000000000E+00 0.  1.
<scales pt_clust_5="13000.00000" pt_clust_6="13000.00000" pt_clust_7="13000.00000" pt_clust_8="13000.00000" pt_clust_9="33.05603"></scales>
<clustering>
<clus scale="   33.056">  2  9  1 -1</clus>
<clus scale="   90.853">  5  6 -1 -1</clus>
<clus scale="   93.032">  7  8 -1 -1</clus>
<clus scale="  216.268">  1  5  2 -1</clus>
<clus scale="   33.056">  2  5  1 -1</clus>
</clustering>
</event>
<event>
 9    1  0.1601012E-005  0.9680809E+02  0.7546771E-02  0.1288349E+00
          2   -1    0    0  502    0 -0.00000000000E+00  0.00000000000E+00  0.26062633207E+03  0.26062633207E+03  0.00000000000E+00 0. -1.
         21   -1    0    0  501  502  0.00000000000E+00 -0.00000000000E+00 -0.17881396513E+03  0.17881396513E+03  0.00000000000E+00 0.  1.
         23    2    1    2    0    0 -0.20015923044E+02 -0.16395847256E+02  0.22657091329E+03  0.24571857873E+03  0.91508361376E+02 0.  0.
         23    2    1    2    0    0 -0.27728871370E+01  0.14103558692E+02 -0.76852181734E+02  0.12205681204E+03  0.93728374877E+02 0.  0.
        -11    1    4    4    0    0  0.67713001850E+00  0.42675112346E+02 -0.82353847354E+02  0.92756562532E+02  0.00000000000E+00 0.  1.
         11    1    4    4    0    0 -0.34500171555E+01 -0.28571553654E+02  0.55016656203E+01  0.29300249507E+02  0.00000000000E+00 0. -1.
        -13    1    3    3    0    0 -0.22206340061E+02  0.26329541961E+02  0.17663798031E+03  0.17996483658E+03  0.00000000000E+00 0.  1.
         13    1    3    3    0    0  0.21904170169E+01 -0.42725389217E+02  0.49932932987E+02  0.65753742153E+02  0.00000000000E+00 0. -1.
          2    1    1    2  501    0  0.22788810181E+02  0.22922885635E+01 -0.67906364620E+02  0.71664906421E+02  0.00000000000E+00 0. -1.
<scales pt_clust_5="13000.00000" pt_clust_6="13000.00000" pt_clust_7="13000.00000" pt_clust_8="13000.00000" pt_clust_9="22.90381"></scales>
<clustering>
<clus scale="   22.904">  2  9  1 -1</clus>
<clus scale="   91.508">  7  8 -1 -1</clus>
<clus scale="   93.728">  5  6 -1 -1</clus>
<clus scale="   94.660">  1  7  2 -1</clus>
<clus scale="   22.904">  2  5  1 -1</clus>
</clustering>
</event>
<event>
 9    1  0.1601012E-005  0.1196172E+03  0.7546771E-02  0.1247290E+00
         21   -1    0    0  501  502  0.00000000000E+00  0.00000000000E+00  0.10487138857E+03  0.10487138857E+03  0.00000000000E+00 0.  1.
          3   -1    0    0  502    0 -0.00000000000E+00 -0.00000000000E+00 -0.25568617406E+03  0.25568617406E+03  0.00000000000E+00 0. -1.
         23    2    1    2    0    0  0.18651033580E+02 -0.77327973873E+02 -0.16596054796E+03  0.21021228727E+03  0.10158162059E+03 0.  0.
         23    2    1    2    0    0 -0.71027621537E+01  0.24157966949E+02  0.72901106301E+01  0.95371431807E+02  0.91697915432E+02 0.  0.
        -11    1    3    3    0    0 -0.40793315473E+01 -0.69976937823E+02 -0.37396511179E+02  0.79447541317E+02  0.00000000000E+00 0.  1.
         11    1    3    3    0    0  0.22730365127E+02 -0.73510360500E+01 -0.12856403678E+03  0.13076474595E+03  0.00000000000E+00 0. -1.
        -13    1    4    4    0    0 -0.46310590883E+02  0.20260680710E+02  0.19411985620E+02  0.54147864191E+02  0.00000000000E+00 0.  1.
         13    1    4    4    0    0  0.39207828729E+02  0.38972862397E+01 -0.12121874990E+02  0.41223567616E+02  0.00000000000E+00 0. -1.
          3    1    1    2  501    0 -0.11548271426E+02  0.53170006924E+02  0.78556518343E+01  0.54973843553E+02  0.00000000000E+00 0. -1.
<scales pt_clust_5="13000.00000" pt_clust_6="13000.00000" pt_clust_7="13000.00000" pt_clust_8="13000.00000" pt_clust_9="54.40967"></scales>
<clustering>
<clus scale="   54.410">  1  9  2 -1</clus>
<clus scale="   91.698">  7  8 -1 -1</clus>
<clus scale="  101.582">  5  6 -1 -1</clus>
<clus scale="  111.346">  1  7  2 -1</clus>
<clus scale="   54.410">  1  5  2 -1</clus>
</clustering>
</event>
<event>
 9    1  0.1601012E-005  0.1229695E+03  0.7546771E-02  0.1241206E+00
         -1   -1    0    0    0  501 -0.00000000000E+00  0.00000000000E+00  0.47454208154E+03  0.47454208154E+03  0.00000000000E+00 0.  1.
         21   -1    0    0  501  502  0.00000000000E+00 -0.00000000000E+00 -0.52609809749E+02  0.52609809749E+02  0.00000000000E+00 0.  1.
         23    2    1    2    0    0 -0.45999619985E+01 -0.77313860124E+02  0.21946207921E+03  0.24562783830E+03  0.78554682343E+02 0.  0.
         23    2    1    2    0    0 -0.10591042788E+02  0.10734805441E+03  0.94992522113E+02  0.16889959249E+03  0.88700158476E+02 0.  0.
        -13    1    4    4    0    0  0.27508043847E+02  0.79068842631E+02  0.31080204609E+02  0.89300355373E+02  0.00000000000E+00 0.  1.
         13    1    4    4    0    0 -0.38099086635E+02  0.28279211782E+02  0.63912317505E+02  0.79599237121E+02  0.00000000000E+00 0. -1.
        -13    1    3    3    0    0 -0.33931197642E+02 -0.82074259846E+01  0.61032633061E+02  0.70311238882E+02  0.00000000000E+00 0. -1.
         13    1    3    3    0    0  0.29331235643E+02 -0.69106434139E+02  0.15842944615E+03  0.17531659942E+03  0.00000000000E+00 0.  1.
         -1    1    1    2    0  502  0.15191004786E+02 -0.30034194289E+02  0.10747767046E+03  0.11262446049E+03  0.00000000000E+00 0.  1.
<scales pt_clust_5="13000.00000" pt_clust_6="13000.00000" pt_clust_7="13000.00000" pt_clust_8="13000.00000" pt_clust_9="33.65740"></scales>
<clustering>
<clus scale="   33.657">  2  9  1 -1</clus>
<clus scale="   78.555">  7  8 -1 -1</clus>
<clus scale="   88.700">  5  6 -1 -1</clus>
<clus scale="  115.865">  1  7  2 -1</clus>
<clus scale="   33.657">  2  5  1 -1</clus>
</clustering>
</event>
<event>
 9    1  0.1601012E-005  0.1559210E+03  0.7546771E-02  0.1203316E+00
          1   -1    0    0  502    0 -0.00000000000E+00  0.00000000000E+00  0.36194996040E+03  0.36194996040E+03  0.00000000000E+00 0. -1.
         21   -1    0    0  501  502  0.00000000000E+00 -0.00000000000E+00 -0.41738499144E+03  0.41738499144E+03  0.00000000000E+00 0. -1.
         23    2    1    2    0    0 -0.74199442225E+02  0.17922263245E+02  0.22019403131E+03  0.25348781702E+03  0.99719091475E+02 0.  0.
         23    2    1    2    0    0  0.32893214557E+01 -0.12486194105E+03  0.60236487597E+02  0.16630574977E+03  0.91803289750E+02 0.  0.
        -13    1    3    3    0    0 -0.57470594158E+02 -0.31651899239E+02  0.77721390506E+02  0.10171197796E+03  0.00000000000E+00 0. -1.
         13    1    3    3    0    0 -0.16728848067E+02  0.49574162483E+02  0.14247264081E+03  0.15177583906E+03  0.00000000000E+00 0.  1.
        -13    1    4    4    0    0 -0.13659756536E+02 -0.84351685486E+02  0.80991879221E+02  0.11773478795E+03  0.00000000000E+00 0. -1.
         13    1    4    4    0    0  0.16949077992E+02 -0.40510255567E+02 -0.20755391624E+02  0.48570961823E+02  0.00000000000E+00 0.  1.
          1    1    1    2  501    0  0.70910120769E+02  0.10693967781E+03 -0.33586554996E+03  0.35954138505E+03  0.00000000000E+00 0. -1.
<scales pt_clust_5="13000.00000" pt_clust_6="13000.00000" pt_clust_7="13000.00000" pt_clust_8="13000.00000" pt_clust_9="126.02982"></scales>
<clustering>
<clus scale="   91.803">  7  8 -1 -1</clus>
<clus scale="   99.719">  5  6 -1 -1</clus>
<clus scale="  125.581">  1  5  2 -1</clus>
<clus scale="  126.030">  2  9  1 -1</clus>
<clus scale="  126.030">  2  5  1 -1</clus>
</clustering>
</event>
<event>
 9    1  0.1601012E-005  0.1375672E+03  0.7546771E-02  0.1221377E+00
         21   -1    0    0  501  502  0.00000000000E+00  0.00000000000E+00  0.38844214747E+03  0.38844214747E+03  0.00000000000E+00 0.  1.
          1   -1    0    0  502    0 -0.00000000000E+00 -0.00000000000E+00 -0.12139748976E+03  0.12139748976E+03  0.00000000000E+00 0. -1.
         23    2    1    2    0    0  0.64633544230E+02 -0.46732948378E+02 -0.51138078051E+02  0.14497836632E+03  0.10973677674E+03 0.  0.
         23    2    1    2    0    0 -0.79617653191E+02  0.68582360300E+02  0.30405451113E+03  0.33483583080E+03  0.92862139800E+02 0.  0.
        -13    1    3    3    0    0 -0.28506931182E+02 -0.28166330791E+02 -0.89780945859E+01  0.41068156740E+02  0.00000000000E+00 0.  1.
         13    1    3    3    0    0  0.93140475412E+02 -0.18566617587E+02 -0.42159983465E+02  0.10391020958E+03  0.00000000000E+00 0. -1.
        -13    1    4    4    0    0 -0.10664791325E+02  0.68163375967E+02  0.18218938954E+03  0.19481518744E+03  0.00000000000E+00 0.  1.
         13    1    4    4    0    0 -0.68952861866E+02  0.41898433262E+00  0.12186512159E+03  0.14002064336E+03  0.00000000000E+00 0. -1.
          1    1    1    2  501    0  0.14984108961E+02 -0.21849411922E+02  0.14128224634E+02  0.30025440113E+02  0.00000000000E+00 0. -1.
<scales pt_clust_5="13000.00000" pt_clust_6="13000.00000" pt_clust_7="13000.00000" pt_clust_8="13000.00000" pt_clust_9="26.49379"></scales>
<clustering>
<clus scale="   26.494">  1  9  2 -1</clus>
<clus scale="   92.862">  7  8 -1 -1</clus>
<clus scale="  109.737">  5  6 -1 -1</clus>
<clus scale="  124.523">  1  7  2 -1</clus>
<clus scale="   26.494">  1  5  2 -1</clus>
</clustering>
</event>
<event>
 9    1  0.1601012E-005  0.1150921E+03  0.7546771E-02  0.1251547E+00
         21   -1    0    0  501  502  0.00000000000E+00  0.00000000000E+00  0.53111646571E+03  0.53111646571E+03  0.00000000000E+00 0. -1.
          1   -1    0    0  502    0 -0.00000000000E+00 -0.00000000000E+00 -0.16628899794E+03  0.16628899794E+03  0.00000000000E+00 0. -1.
         23    2    1    2    0    0  0.98067793373E+02  0.20395785736E+02 -0.89127770996E+02  0.16232169728E+03  0.91494774014E+02 0.  0.
         23    2    1    2    0    0 -0.15986267171E+02 -0.17444838242E+02  0.23741368359E+02  0.97099680679E+02  0.91130742876E+02 0.  0.
        -13    1    4    4    0    0  0.11142475490E+02 -0.46839828379E+02 -0.41650394986E+01  0.48326719696E+02  0.00000000000E+00 0. -1.
         13    1    4    4    0    0 -0.27128742661E+02  0.29394990137E+02  0.27906407858E+02  0.48772960983E+02  0.00000000000E+00 0.  1.
        -13    1    3    3    0    0  0.32057756285E+02 -0.24288403469E+02 -0.69388246511E+02  0.80201964034E+02  0.00000000000E+00 0.  1.
         13    1    3    3    0    0  0.66010037088E+02  0.44684189204E+02 -0.19739524485E+02  0.82119733244E+02  0.00000000000E+00 0. -1.
          1    1    1    2  501    0 -0.82081526202E+02 -0.29509474940E+01  0.43021387041E+03  0.43798408570E+03  0.00000000000E+00 0. -1.
<scales pt_clust_5="13000.00000" pt_clust_6="13000.00000" pt_clust_7="13000.00000" pt_clust_8="13000.00000" pt_clust_9="82.13455"></scales>
<clustering>
<clus scale="   82.135">  1  9  2 -1</clus>
<clus scale="   91.131">  5  6 -1 -1</clus>
<clus scale="   91.495">  7  8 -1 -1</clus>
<clus scale="  114.803">  1  5  2 -1</clus>
<clus scale="   82.135">  1  5  2 -1</clus>
</clustering>
</event>
<event>
 9    1  0.1601012E-005  0.1554741E+03  0.7546771E-02  0.1213901E+00
          2   -1    0    0  502    0 -0.00000000000E+00  0.00000000000E+00  0.41635450253E+03  0.41635450253E+03  0.00000000000E+00 0. -1.
         21   -1    0    0  501  502  0.00000000000E+00 -0.00000000000E+00 -0.13169606067E+03  0.13169606067E+03  0.00000000000E+00 0. -1.
         23    2    1    2    0    0 -0.25751567353E+02 -0.37681036794E+02  0.31636042934E+02  0.10582712798E+03  0.90086281135E+02 0.  0.
         23    2    1    2    0    0  0.72965575355E+02 -0.85393998513E+02  0.27365825100E+03  0.30879755595E+03  0.88605767580E+02 0.  0.
        -13    1    4    4    0    0 -0.12236819190E+02 -0.25864130090E+02  0.11946533226E+03  0.12284404170E+03  0.00000000000E+00 0.  1.
         13    1    4    4    0    0  0.85202394545E+02 -0.59529868423E+02  0.15419291875E+03  0.18595351425E+03  0.00000000000E+00 0. -1.
        -13    1    3    3    0    0 -0.24198134727E+02  0.16046513362E+02  0.42027544383E+02  0.51081844154E+02  0.00000000000E+00 0.  1.
         13    1    3    3    0    0 -0.15534326262E+01 -0.53727550155E+02 -0.10391501449E+02  0.54745283824E+02  0.00000000000E+00 0. -1.
          2    1    1    2  501    0 -0.47214008002E+02  0.12307503531E+03 -0.20635852076E+02  0.13342587927E+03  0.00000000000E+00 0. -1.
<scales pt_clust_5="13000.00000" pt_clust_6="13000.00000" pt_clust_7="13000.00000" pt_clust_8="13000.00000" pt_clust_9="127.75454"></scales>
<clustering>
<clus scale="   88.606">  5  6 -1 -1</clus>
<clus scale="   90.086">  7  8 -1 -1</clus>
<clus scale="  100.988">  1  7  2 -1</clus>
<clus scale="  127.755">  2  9  1 -1</clus>
<clus scale="  127.755">  2  5  1 -1</clus>
</clustering>
</event>
<event>
 9    1  0.1601012E-005  0.9716650E+02  0.7546771E-02  0.1288153E+00
          1   -1    0    0  502    0 -0.00000000000E+00  0.00000000000E+00  0.17335213882E+03  0.17335213882E+03  0.00000000000E+00 0. -1.
         21   -1    0    0  501  502  0.00000000000E+00 -0.00000000000E+00 -0.11513489355E+03  0.11513489355E+03  0.00000000000E+00 0. -1.
         23    2    1    2    0    0  0.27525932423E+02  0.43204749662E+02  0.76422633592E+02  0.12684886356E+03  0.87326330012E+02 0.  0.
         23    2    1    2    0    0 -0.24673381323E+02  0.87016513018E+01  0.20703886529E+02  0.96704793885E+02  0.90767129302E+02 0.  0.
        -11    1    3    3    0    0 -0.16680837345E+02 -0.14411077098E+02  0.39844851308E+02  0.45536157648E+02  0.00000000000E+00 0.  1.
         11    1    3    3    0    0  0.44206769768E+02  0.57615826760E+02  0.36577782284E+02  0.81312705916E+02  0.00000000000E+00 0. -1.
        -11    1    4    4    0    0 -0.15389781394E+02 -0.40302865757E+02  0.12211818887E+01  0.43158517639E+02  0.00000000000E+00 0.  1.
         11    1    4    4    0    0 -0.92835999285E+01  0.49004517059E+02  0.19482704640E+02  0.53546276247E+02  0.00000000000E+00 0. -1.
          1    1    1    2  501    0 -0.28525511006E+01 -0.51906400964E+02 -0.38909274849E+02  0.64933374917E+02  0.00000000000E+00 0. -1.
<scales pt_clust_5="13000.00000" pt_clust_6="13000.00000" pt_clust_7="13000.00000" pt_clust_8="13000.00000" pt_clust_9="51.98472"></scales>
<clustering>
<clus scale="   51.985">  2  9  1 -1</clus>
<clus scale="   87.326">  5  6 -1 -1</clus>
<clus scale="   90.767">  7  8 -1 -1</clus>
<clus scale="   93.960">  1  5  2 -1</clus>
<clus scale="   51.985">  2  5  1 -1</clus>
</clustering>
</event>
<event>
 9    1  0.1601012E-005  0.9707414E+02  0.7546771E-02  0.1289518E+00
         21   -1    0    0  501  502  0.00000000000E+00  0.00000000000E+00  0.31516571998E+03  0.31516571998E+03  0.00000000000E+00 0. -1.
          2   -1    0    0  502    0 -0.00000000000E+00 -0.00000000000E+00 -0.68151942050E+02  0.68151942050E+02  0.00000000000E+00 0. -1.
         23    2    1    2    0    0 -0.19492480624E+00  0.43228372000E+02  0.39599465933E+01  0.95123518833E+02  0.84640844258E+02 0.  0.
         23    2    1    2    0    0 -0.22811833042E+01 -0.20608604737E+02  0.76635443391E+02  0.12022728686E+03  0.90286715161E+02 0.  0.
        -11    1    4    4    0    0  0.27520915386E+02 -0.14550519742E+02  0.83444837102E+02  0.89062670336E+02  0.00000000000E+00 0.  1.
         11    1    4    4    0    0 -0.29802098690E+02 -0.60580849950E+01 -0.68093937113E+01  0.31164616520E+02  0.00000000000E+00 0. -1.
        -11    1    3    3    0    0 -0.12689182923E+02  0.64425370805E+02  0.16214519494E+02  0.67635452309E+02  0.00000000000E+00 0. -1.
         11    1    3    3    0    0  0.12494258117E+02 -0.21196998805E+02 -0.12254572901E+02  0.27488066524E+02  0.00000000000E+00 0.  1.
          2    1    1    2  501    0  0.24761081104E+01 -0.22619767263E+02  0.16641838795E+03  0.16796685634E+03  0.00000000000E+00 0. -1.
<scales pt_clust_5="13000.00000" pt_clust_6="13000.00000" pt_clust_7="13000.00000" pt_clust_8="13000.00000" pt_clust_9="22.75489"></scales>
<clustering>
<clus scale="   22.755">  1  9  2 -1</clus>
<clus scale="   84.641">  7  8 -1 -1</clus>
<clus scale="   90.287">  5  6 -1 -1</clus>
<clus scale="   91.846">  2  7  1 -1</clus>
<clus scale="   22.755">  1  5  2 -1</clus>
</clustering>
</event>
<event>
 9    1  0.1601012E-005  0.9748151E+02  0.7546771E-02  0.1286752E+00
         21   -1    0    0  501  502  0.00000000000E+00  0.00000000000E+00  0.31696192090E+03  0.31696192090E+03  0.00000000000E+00 0.  1.
          1   -1    0    0  502    0 -0.00000000000E+00 -0.00000000000E+00 -0.49704864934E+02  0.49704864934E+02  0.00000000000E+00 0. -1.
         23    2    1    2    0    0  0.11492075801E+02 -0.37843466827E+02  0.35326902971E+02  0.10604815995E+03  0.91836955353E+02 0.  0.
         23    2    1    2    0    0 -0.97799342204E+01  0.14255760626E+02  0.15310886104E+03  0.17832581102E+03  0.89771363593E+02 0.  0.
        -11    1    3    3    0    0 -0.24238161423E+02 -0.26469593019E+02  0.53465316175E+02  0.64394625998E+02  0.00000000000E+00 0.  1.
         11    1    3    3    0    0  0.35730237225E+02 -0.11373873808E+02 -0.18138413204E+02  0.41653533957E+02  0.00000000000E+00 0. -1.
        -11    1    4    4    0    0 -0.14007899321E+02  0.49425674658E+02  0.61661996912E+02  0.80257837137E+02  0.00000000000E+00 0.  1.
         11    1    4    4    0    0  0.42279651005E+01 -0.35169914032E+02  0.91446864130E+02  0.98067973881E+02  0.00000000000E+00 0. -1.
          1    1    1    2  501    0 -0.17121415809E+01  0.23587706202E+02  0.78821291956E+02  0.82292814864E+02  0.00000000000E+00 0. -1.
<scales pt_clust_5="13000.00000" pt_clust_6="13000.00000" pt_clust_7="13000.00000" pt_clust_8="13000.00000" pt_clust_9="23.64976"></scales>
<clustering>
<clus scale="   23.650">  1  9  2 -1</clus>
<clus scale="   89.771">  7  8 -1 -1</clus>
<clus scale="   91.837">  5  6 -1 -1</clus>
<clus scale="   95.538">  1  7  2 -1</clus>
<clus scale="   23.650">  1  5  2 -1</clus>
</clustering>
</event>
<event>
 9    1  0.1601012E-005  0.1045819E+03  0.7546771E-02  0.1271645E+00
          1   -1    0    0  502    0 -0.00000000000E+00  0.00000000000E+00  0.57770852329E+02  0.57770852329E+02  0.00000000000E+00 0. -1.
         21   -1    0    0  501  502  0.00000000000E+00 -0.00000000000E+00 -0.38518386426E+03  0.38518386426E+03  0.00000000000E+00 0. -1.
         23    2    1    2    0    0  0.88455524217E+01 -0.30041435082E+02 -0.72287525029E+02  0.12185564249E+03  0.92965475915E+02 0.  0.
         23    2    1    2    0    0  0.32221041979E+01  0.66751463669E+02 -0.72516853165E+02  0.13444654224E+03  0.91384018676E+02 0.  0.
        -11    1    3    3    0    0  0.10675566240E+01 -0.63051403242E+02 -0.55541391135E+02  0.84032524996E+02  0.00000000000E+00 0. -1.
         11    1    3    3    0    0  0.77779957977E+01  0.33009968159E+02 -0.16746133893E+02  0.37823117493E+02  0.00000000000E+00 0.  1.
        -11    1    4    4    0    0  0.24716797151E+02 -0.34227981664E+01 -0.52881369341E+02  0.58472855515E+02  0.00000000000E+00 0.  1.
         11    1    4    4    0    0 -0.21494692953E+02  0.70174261836E+02 -0.19635483824E+02  0.75973686723E+02  0.00000000000E+00 0. -1.
          1    1    1    2  501    0 -0.12067656620E+02 -0.36710028587E+02 -0.18260863373E+03  0.18665253186E+03  0.00000000000E+00 0. -1.
<scales pt_clust_5="13000.00000" pt_clust_6="13000.00000" pt_clust_7="13000.00000" pt_clust_8="13000.00000" pt_clust_9="38.64265"></scales>
<clustering>
<clus scale="   38.643">  2  9  1 -1</clus>
<clus scale="   91.384">  7  8 -1 -1</clus>
<clus scale="   92.965">  5  6 -1 -1</clus>
<clus scale="  103.179">  2  7  1 -1</clus>
<clus scale="   38.643">  2  5  1 -1</clus>
</clustering>
</event>
<event>
 9    1  0.1601012E-005  0.9892063E+02  0.7546771E-02  0.1284657E+00
         -1   -1    0    0    0  501 -0.00000000000E+00  0.00000000000E+00  0.81399564976E+02  0.81399564976E+02  0.00000000000E+00 0.  1.
         21   -1    0    0  501  502  0.00000000000E+00 -0.00000000000E+00 -0.21653385655E+03  0.21653385655E+03  0.00000000000E+00 0.  1.
         23    2    1    2    0    0 -0.49427356799E+02  0.18921720466E+02 -0.16954153650E+02  0.10874629930E+03  0.93473093345E+02 0.  0.
         23    2    1    2    0    0  0.93279162932E+01  0.17262959458E+02 -0.58300436725E+02  0.10854671793E+03  0.89433937959E+02 0.  0.
        -11    1    4    4    0    0 -0.38598622088E+02  0.86106413155E+01 -0.40735218118E+02  0.56774596133E+02  0.00000000000E+00 0.  1.
         11    1    4    4    0    0  0.47926538381E+02  0.86523181422E+01 -0.17565218608E+02  0.51772121795E+02  0.00000000000E+00 0. -1.
        -13    1    3    3    0    0  0.23439517033E+02 -0.93201290281E+00 -0.23165050919E+02  0.32968154193E+02  0.00000000000E+00 0. -1.
         13    1    3    3    0    0 -0.72866873832E+02  0.19853733369E+02  0.62108972697E+01  0.75778145105E+02  0.00000000000E+00 0.  1.
         -1    1    1    2    0  502  0.40099440506E+02 -0.36184679924E+02 -0.59879701199E+02  0.80640404301E+02  0.00000000000E+00 0.  1.
<scales pt_clust_5="13000.00000" pt_clust_6="13000.00000" pt_clust_7="13000.00000" pt_clust_8="13000.00000" pt_clust_9="54.01200"></scales>
<clustering>
<clus scale="   54.012">  2  9  1 -1</clus>
<clus scale="   89.434">  5  6 -1 -1</clus>
<clus scale="   93.473">  7  8 -1 -1</clus>
<clus scale="   95.113">  2  5  1 -1</clus>
<clus scale="   54.012">  2  5  1 -1</clus>
</clustering>
</event>
<event>
 9    1  0.1601012E-005  0.1285059E+03  0.7546771E-02  0.1229712E+00
         21   -1    0    0  501  502  0.00000000000E+00  0.00000000000E+00  0.85036105952E+02  0.85036105952E+02  0.00000000000E+00 0. -1.
          2   -1    0    0  502    0 -0.00000000000E+00 -0.00000000000E+00 -0.34132685086E+03  0.34132685086E+03  0.00000000000E+00 0. -1.
         23    2    1    2    0    0  0.46174744100E+02 -0.78115818014E+02 -0.17826233178E+03  0.22002953040E+03  0.91658863726E+02 0.  0.
         23    2    1    2    0    0 -0.65502616232E+02  0.63226604443E+02 -0.10753891253E+03  0.16804341601E+03  0.91573881178E+02 0.  0.
        -11    1    3    3    0    0 -0.18676125432E+02 -0.77476907475E+01 -0.31325559941E+01  0.20460627559E+02  0.00000000000E+00 0.  1.
         11    1    3    3    0    0  0.64850869531E+02 -0.70368127266E+02 -0.17512977579E+03  0.19956890284E+03  0.00000000000E+00 0. -1.
        -11    1    4    4    0    0 -0.88977958755E+02  0.48433532998E+02 -0.82039816368E+02  0.13035879615E+03  0.00000000000E+00 0. -1.
         11    1    4    4    0    0  0.23475342523E+02  0.14793071445E+02 -0.25499096161E+02  0.37684619865E+02  0.00000000000E+00 0.  1.
          2    1    1    2  501    0  0.19327872133E+02  0.14889213571E+02  0.29510499399E+02  0.38290010404E+02  0.00000000000E+00 0. -1.
<scales pt_clust_5="13000.00000" pt_clust_6="13000.00000" pt_clust_7="13000.00000" pt_clust_8="13000.00000" pt_clust_9="24.39785"></scales>
<clustering>
<clus scale="   24.398">  1  9  2 -1</clus>
<clus scale="   91.574">  7  8 -1 -1</clus>
<clus scale="   91.659">  5  6 -1 -1</clus>
<clus scale="  128.445">  1  7  2 -1</clus>
<clus scale="   24.398">  1  5  2 -1</clus>
</clustering>
</event>
<event>
 9    1  0.1601012E-005  0.2225765E+03  0.7546771E-02  0.1132190E+00
         21   -1    0    0  501  502  0.00000000000E+00  0.00000000000E+00  0.98382714475E+03  0.98382714475E+03  0.00000000000E+00 0. -1.
         -3   -1    0    0    0  501 -0.00000000000E+00 -0.00000000000E+00 -0.81034794207E+02  0.81034794207E+02  0.00000000000E+00 0.  1.
         23    2    1    2    0    0 -0.32711410825E+02  0.18929330924E+03  0.23946134986E+03  0.31936994565E+03  0.88053567710E+02 0.  0.
         23    2    1    2    0    0 -0.47737489389E+02 -0.22864814483E+03  0.48617760671E+03  0.54698719834E+03  0.90925727133E+02 0.  0.
        -11    1    3    3    0    0 -0.22293511122E+02  0.15917466165E+03  0.13419317641E+03  0.20938333779E+03  0.00000000000E+00 0.  1.
         11    1    3    3    0    0 -0.10417899703E+02  0.30118647591E+02  0.10526817345E+03  0.10998660786E+03  0.00000000000E+00 0. -1.
        -13    1    4    4    0    0 -0.24969244333E+02 -0.22544200501E+03  0.45311300097E+03  0.50671387630E+03  0.00000000000E+00 0. -1.
         13    1    4    4    0    0 -0.22768245056E+02 -0.32061398163E+01  0.33064605744E+02  0.40273322044E+02  0.00000000000E+00 0.  1.
         -3    1    1    2    0  502  0.80448900214E+02  0.39354835589E+02  0.17715339397E+03  0.19850479497E+03  0.00000000000E+00 0.  1.
<scales pt_clust_5="13000.00000" pt_clust_6="13000.00000" pt_clust_7="13000.00000" pt_clust_8="13000.00000" pt_clust_9="89.55908"></scales>
<clustering>
<clus scale="   88.054">  5  6 -1 -1</clus>
<clus scale="   89.559">  1  9  2 -1</clus>
<clus scale="   90.926">  7  8 -1 -1</clus>
<clus scale="  221.419">  2  5  1 -1</clus>
<clus scale="   89.559">  1  5  2 -1</clus>
</clustering>
</event>
<event>
 9    1  0.1601012E-005  0.9536953E+02  0.7546771E-02  0.1291038E+00
          2   -1    0    0  502    0 -0.00000000000E+00  0.00000000000E+00  0.37046643643E+03  0.37046643643E+03  0.00000000000E+00 0. -1.
         21   -1    0    0  501  502  0.00000000000E+00 -0.00000000000E+00 -0.40932059606E+02  0.40932059606E+02  0.00000000000E+00 0.  1.
         23    2    1    2    0    0 -0.27450231232E+02 -0.35624781483E+01  0.17228464193E+03  0.19612098978E+03  0.89527863477E+02 0.  0.
         23    2    1    2    0    0  0.32009592663E+02 -0.21412017719E+02  0.61561436497E+02  0.11627869986E+03  0.90817603202E+02 0.  0.
        -11    1    3    3    0    0  0.21353041467E+01 -0.37225773348E+02  0.32961962854E+02  0.49767546859E+02  0.00000000000E+00 0.  1.
         11    1    3    3    0    0 -0.29585535378E+02  0.33663295200E+02  0.13932267908E+03  0.14635344292E+03  0.00000000000E+00 0. -1.
        -13    1    4    4    0    0  0.30967710149E+02  0.63023816102E+01  0.77916473858E+02  0.84081484194E+02  0.00000000000E+00 0. -1.
         13    1    4    4    0    0  0.10418825143E+01 -0.27714399329E+02 -0.16355037361E+02  0.32197215662E+02  0.00000000000E+00 0.  1.
          2    1    1    2  501    0 -0.45593614316E+01  0.24974495867E+02  0.95688298393E+02  0.98998806406E+02  0.00000000000E+00 0. -1.
<scales pt_clust_5="13000.00000" pt_clust_6="13000.00000" pt_clust_7="13000.00000" pt_clust_8="13000.00000" pt_clust_9="25.38728"></scales>
<clustering>
<clus scale="   25.387">  2  9  1 -1</clus>
<clus scale="   89.528">  5  6 -1 -1</clus>
<clus scale="   90.818">  7  8 -1 -1</clus>
<clus scale="   94.142">  1  5  2 -1</clus>
<clus scale="   25.387">  2  5  1 -1</clus>
</clustering>
</event>
<event>
 9    1  0.1601012E-005  0.9747186E+02  0.7546771E-02  0.1286007E+00
         21   -1    0    0  501  502  0.00000000000E+00  0.00000000000E+00  0.15263164822E+03  0.15263164822E+03  0.00000000000E+00 0.  1.
         -1   -1    0    0    0  501 -0.00000000000E+00 -0.00000000000E+00 -0.54889986091E+03  0.54889986091E+03  0.00000000000E+00 0.  1.
         23    2    1    2    0    0  0.32233869300E+02 -0.18449622180E+02 -0.28832511733E+03  0.30503614251E+03  0.92391904749E+02 0.  0.
         23    2    1    2    0    0 -0.29655286719E+02 -0.19243992209E+02 -0.23987256105E+03  0.25926256598E+03  0.91806673542E+02 0.  0.
        -13    1    3    3    0    0 -0.32332700672E+02 -0.93440174694E+01 -0.11613398818E+03  0.12091243694E+03  0.00000000000E+00 0. -1.
         13    1    3    3    0    0  0.64566569972E+02 -0.91056047105E+01 -0.17219112915E+03  0.18412370557E+03  0.00000000000E+00 0.  1.
        -13    1    4    4    0    0 -0.16835773273E+02 -0.55894305126E+02 -0.16306401924E+03  0.17319783768E+03  0.00000000000E+00 0.  1.
         13    1    4    4    0    0 -0.12819513445E+02  0.36650312917E+02 -0.76808541820E+02  0.86064728306E+02  0.00000000000E+00 0. -1.
         -1    1    1    2    0  502 -0.25785825817E+01  0.37693614389E+02  0.13192946569E+03  0.13723280064E+03  0.00000000000E+00 0.  1.
<scales pt_clust_5="13000.00000" pt_clust_6="13000.00000" pt_clust_7="13000.00000" pt_clust_8="13000.00000" pt_clust_9="37.78171"></scales>
<clustering>
<clus scale="   37.782">  1  9  2 -1</clus>
<clus scale="   91.807">  7  8 -1 -1</clus>
<clus scale="   92.392">  5  6 -1 -1</clus>
<clus scale="   96.917">  1  7  2 -1</clus>
<clus scale="   37.782">  1  5  2 -1</clus>
</clustering>
</event>
<event>
 9    1  0.3051782E-005  0.1536796E+03  0.7546771E-02  0.1196502E+00
         21   -1    0    0  501  502  0.00000000000E+00  0.00000000000E+00  0.18748934523E+03  0.18748934523E+03  0.00000000000E+00 0. -1.
          2   -1    0    0  502    0 -0.00000000000E+00 -0.00000000000E+00 -0.49877048135E+03  0.49877048135E+03  0.00000000000E+00 0. -1.
         23    2    1    2    0    0 -0.74447600320E+02 -0.95550877400E+02 -0.42317849331E+03  0.44974649005E+03  0.92300881601E+02 0.  0.
         23    2    1    2    0    0  0.84217700231E+02  0.11781482121E+03  0.12270761478E+03  0.20990507249E+03  0.89610421284E+02 0.  0.
        -11    1    4    4    0    0  0.51083791454E+02  0.44390197223E+02  0.57896238342E+01  0.67923214757E+02  0.00000000000E+00 0.  1.
         11    1    4    4    0    0  0.33133908777E+02  0.73424623989E+02  0.11691799094E+03  0.14198185773E+03  0.00000000000E+00 0. -1.
        -13    1    3    3    0    0  0.20111533186E+02 -0.33516641135E+02 -0.11630235795E+03  0.12269505884E+03  0.00000000000E+00 0.  1.
         13    1    3    3    0    0 -0.94559133506E+02 -0.62034236265E+02 -0.30687613536E+03  0.32705143120E+03  0.00000000000E+00 0. -1.
          2    1    1    2  501    0 -0.97700999106E+01 -0.22263943812E+02 -0.10810257582E+02  0.26608264042E+02  0.00000000000E+00 0. -1.
<scales pt_clust_5="13000.00000" pt_clust_6="13000.00000" pt_clust_7="13000.00000" pt_clust_8="13000.00000" pt_clust_9="24.31333"></scales>
<clustering>
<clus scale="   24.313">  1  9  2 -1</clus>
<clus scale="   89.610">  5  6 -1 -1</clus>
<clus scale="   92.301">  7  8 -1 -1</clus>
<clus scale="  152.079">  1  5  2 -1</clus>
<clus scale="   24.313">  1  5  2 -1</clus>
</clustering>
</event>
<event>
 9    1  0.1601012E-005  0.9403253E+02  0.7546771E-02  0.1294590E+00
          3   -1    0    0  502    0 -0.00000000000E+00  0.00000000000E+00  0.40388031941E+03  0.40388031941E+03  0.00000000000E+00 0. -1.
         21   -1    0    0  501  502  0.00000000000E+00 -0.00000000000E+00 -0.46900047833E+02  0.46900047833E+02  0.00000000000E+00 0.  1.
         23    2    1    2    0    0 -0.23570103481E+02 -0.72157992411E+01  0.31653347597E+03  0.32985898678E+03  0.89475651541E+02 0.  0.
         23    2    1    2    0    0  0.34747904959E+01 -0.14087588475E+01  0.28739507198E+02  0.96116840384E+02  0.91642942778E+02 0.  0.
        -11    1    3    3    0    0  0.21753743839E+02 -0.31708773402E+02  0.96603937345E+02  0.10397592218E+03  0.00000000000E+00 0.  1.
         11    1    3    3    0    0 -0.45323847321E+02  0.24492974161E+02  0.21992953862E+03  0.22588306461E+03  0.00000000000E+00 0. -1.
        -11    1    4    4    0    0 -0.32287734792E+02 -0.28800949659E+02  0.27072531446E+02  0.51038362808E+02  0.00000000000E+00 0. -1.
         11    1    4    4    0    0  0.35762525288E+02  0.27392190812E+02  0.16669757519E+01  0.45078477576E+02  0.00000000000E+00 0.  1.
          3    1    1    2  501    0  0.20095312985E+02  0.86245580887E+01  0.11707288408E+02  0.24804540070E+02  0.00000000000E+00 0. -1.
<scales pt_clust_5="13000.00000" pt_clust_6="13000.00000" pt_clust_7="13000.00000" pt_clust_8="13000.00000" pt_clust_9="21.86789"></scales>
<clustering>
<clus scale="   21.868">  2  9  1 -1</clus>
<clus scale="   89.476">  5  6 -1 -1</clus>
<clus scale="   91.643">  7  8 -1 -1</clus>
<clus scale="   91.922">  1  5  2 -1</clus>
<clus scale="   21.868">  2  5  1 -1</clus>
</clustering>
</event>
<event>
 9    1  0.1601012E-005  0.9377790E+02  0.7546771E-02  0.1296550E+00
          1   -1    0    0  502    0 -0.00000000000E+00  0.00000000000E+00  0.11448876628E+03  0.11448876628E+03  0.00000000000E+00 0. -1.
         21   -1    0    0  501  502  0.00000000000E+00 -0.00000000000E+00 -0.15308242884E+03  0.15308242884E+03  0.00000000000E+00 0. -1.
         23    2    1    2    0    0 -0.13474407184E+02  0.63900816205E+01  0.39362234308E+02  0.96884720319E+02  0.87263226788E+02 0.  0.
         23    2    1    2    0    0  0.30198860587E+02  0.18648852460E+02 -0.13218971389E+02  0.99289520512E+02  0.91781897998E+02 0.  0.
        -11    1    4    4    0    0 -0.26698024590E+02  0.24001976045E+02 -0.21034767969E+02  0.41609383973E+02  0.00000000000E+00 0.  1.
         11    1    4    4    0    0  0.56896885177E+02 -0.53531235857E+01  0.78157965799E+01  0.57680136539E+02  0.00000000000E+00 0. -1.
        -13    1    3    3    0    0  0.26242855302E+02  0.13738908249E+02  0.47214270860E+02  0.55737172759E+02  0.00000000000E+00 0. -1.
         13    1    3    3    0    0 -0.39717262486E+02 -0.73488266288E+01 -0.78520365524E+01  0.41147547560E+02  0.00000000000E+00 0.  1.
          1    1    1    2  501    0 -0.16724453403E+02 -0.25038934080E+02 -0.64736925479E+02  0.71396954291E+02  0.00000000000E+00 0. -1.
<scales pt_clust_5="13000.00000" pt_clust_6="13000.00000" pt_clust_7="13000.00000" pt_clust_8="13000.00000" pt_clust_9="30.11072"></scales>
<clustering>
<clus scale="   30.111">  2  9  1 -1</clus>
<clus scale="   87.263">  7  8 -1 -1</clus>
<clus scale="   89.360">  1  7  2 -1</clus>
<clus scale="   91.782">  5  6 -1 -1</clus>
<clus scale="   30.111">  2  5  1 -1</clus>
</clustering>
</event>
<event>
 9    1  0.1601012E-005  0.1013462E+03  0.7546771E-02  0.1278028E+00
         21   -1    0    0  501  502  0.00000000000E+00  0.00000000000E+00  0.70145566476E+02  0.70145566476E+02  0.00000000000E+00 0. -1.
         -1   -1    0    0    0  501 -0.00000000000E+00 -0.00000000000E+00 -0.38839077100E+03  0.38839077100E+03  0.00000000000E+00 0.  1.
         23    2    1    2    0    0  0.20681310421E+02  0.43013349795E+02 -0.28276009498E+03  0.30124409834E+03  0.92286892954E+02 0.  0.
         23    2    1    2    0    0  0.17068451281E+02 -0.50348206888E+01 -0.40035446297E+01  0.95175396726E+02  0.93411168090E+02 0.  0.
        -11    1    4    4    0    0 -0.34262621950E+02  0.10948747591E+02  0.13824259456E+02  0.38534562229E+02  0.00000000000E+00 0. -1.
         11    1    4    4    0    0  0.51331073231E+02 -0.15983568280E+02 -0.17827804085E+02  0.56640834497E+02  0.00000000000E+00 0.  1.
        -11    1    3    3    0    0 -0.24129067395E+02 -0.13540851492E+02 -0.45476576626E+02  0.53232373366E+02  0.00000000000E+00 0.  1.
         11    1    3    3    0    0  0.44810377816E+02  0.56554201287E+02 -0.23728351835E+03  0.24801172498E+03  0.00000000000E+00 0. -1.
         -1    1    1    2    0  502 -0.37749761702E+02 -0.37978529106E+02 -0.31481564919E+02  0.62116842413E+02  0.00000000000E+00 0.  1.
<scales pt_clust_5="13000.00000" pt_clust_6="13000.00000" pt_clust_7="13000.00000" pt_clust_8="13000.00000" pt_clust_9="53.54823"></scales>
<clustering>
<clus scale="   53.548">  1  9  2 -1</clus>
<clus scale="   92.287">  7  8 -1 -1</clus>
<clus scale="   93.411">  5  6 -1 -1</clus>
<clus scale="  100.311">  2  7  1 -1</clus>
<clus scale="   53.548">  1  5  2 -1</clus>
</clustering>
</event>
<event>
 9    1  0.1601012E-005  0.1068316E+03  0.7546771E-02  0.1266967E+00
         -1   -1    0    0    0  501 -0.00000000000E+00  0.00000000000E+00  0.94312486567E+02  0.94312486567E+02  0.00000000000E+00 0.  1.
         21   -1    0    0  501  502  0.00000000000E+00 -0.00000000000E+00 -0.19309697662E+03  0.19309697662E+03  0.00000000000E+00 0. -1.
         23    2    1    2    0    0 -0.51591242346E+02  0.26800030205E+02  0.24171496526E+02  0.11063255204E+03  0.90969238865E+02 0.  0.
         23    2    1    2    0    0  0.29908300968E+02 -0.36101687470E+02 -0.96183719525E+02  0.14109182943E+03  0.91966070505E+02 0.  0.
        -11    1    3    3    0    0 -0.50573492426E+02 -0.12812319177E+02  0.42196818085E+02  0.67099963601E+02  0.00000000000E+00 0. -1.
         11    1    3    3    0    0 -0.10177499202E+01  0.39612349382E+02 -0.18025321558E+02  0.43532588434E+02  0.00000000000E+00 0.  1.
        -11    1    4    4    0    0  0.51462197819E+02  0.98920426850E+01 -0.50485257618E+02  0.72766555158E+02  0.00000000000E+00 0.  1.
         11    1    4    4    0    0 -0.21553896851E+02 -0.45993730155E+02 -0.45698461907E+02  0.68325274267E+02  0.00000000000E+00 0. -1.
         -1    1    1    2    0  502  0.21682941378E+02  0.93016572652E+01 -0.26772267058E+02  0.35685081730E+02  0.00000000000E+00 0.  1.
<scales pt_clust_5="13000.00000" pt_clust_6="13000.00000" pt_clust_7="13000.00000" pt_clust_8="13000.00000" pt_clust_9="23.59387"></scales>
<clustering>
<clus scale="   23.594">  2  9  1 -1</clus>
<clus scale="   90.969">  5  6 -1 -1</clus>
<clus scale="   91.966">  7  8 -1 -1</clus>
<clus scale="  105.975">  1  5  2 -1</clus>
<clus scale="   23.594">  2  5  1 -1</clus>
</clustering>
</event>
<event>
 9    1  0.1601012E-005  0.1324106E+03  0.7546771E-02  0.1224064E+00
         21   -1    0    0  501  502  0.00000000000E+00  0.00000000000E+00  0.86942166221E+02  0.86942166221E+02  0.00000000000E+00 0.  1.
          1   -1    0    0  502    0 -0.00000000000E+00 -0.00000000000E+00 -0.28452997435E+03  0.28452997435E+03  0.00000000000E+00 0. -1.
         23    2    1    2    0    0 -0.78783810147E+02 -0.42054520475E+02 -0.11751224495E+03  0.17190112639E+03  0.88121496296E+02 0.  0.
         23    2    1    2    0    0  0.10888374709E+03  0.34226971834E+02 -0.86459851204E+02  0.16782143378E+03  0.87530404911E+02 0.  0.
        -13    1    3    3    0    0 -0.46937519022E+02 -0.60660180685E+02 -0.41016337878E+02  0.86977745347E+02  0.00000000000E+00 0.  1.
         13    1    3    3    0    0 -0.31846291125E+02  0.18605660211E+02 -0.76495907067E+02  0.84923381046E+02  0.00000000000E+00 0. -1.
        -13    1    4    4    0    0  0.10109490723E+03  0.10890097813E+02 -0.97484698204E+02  0.14086177935E+03  0.00000000000E+00 0. -1.
         13    1    4    4    0    0  0.77888398635E+01  0.23336874022E+02  0.11024847000E+02  0.26959654428E+02  0.00000000000E+00 0.  1.
          1    1    1    2  501    0 -0.30099936948E+02  0.78275486403E+01  0.63842880180E+01  0.31749580398E+02  0.00000000000E+00 0. -1.
<scales pt_clust_5="13000.00000" pt_clust_6="13000.00000" pt_clust_7="13000.00000" pt_clust_8="13000.00000" pt_clust_9="31.10107"></scales>
<clustering>
<clus scale="   31.101">  1  9  2 -1</clus>
<clus scale="   87.530">  7  8 -1 -1</clus>
<clus scale="   88.121">  5  6 -1 -1</clus>
<clus scale="  132.018">  1  7  2 -1</clus>
<clus scale="   31.101">  1  5  2 -1</clus>
</clustering>
</event>
<event>
 9    1  0.1601012E-005  0.1778022E+03  0.7546771E-02  0.1169989E+00
          2   -1    0    0  502    0 -0.00000000000E+00  0.00000000000E+00  0.42661647352E+03  0.42661647352E+03  0.00000000000E+00 0. -1.
         21   -1    0    0  501  502  0.00000000000E+00 -0.00000000000E+00 -0.12841506378E+03  0.12841506378E+03  0.00000000000E+00 0.  1.
         23    2    1    2    0    0 -0.12640528223E+03 -0.84240846374E+02  0.25675378285E+03  0.31178959258E+03  0.90639006284E+02 0.  0.
         23    2    1    2    0    0  0.15478268802E+03  0.42943516446E+02  0.52514096207E+02  0.19192709929E+03  0.90975024192E+02 0.  0.
        -11    1    3    3    0    0 -0.91233778103E+00 -0.44164113179E+02  0.50941870526E+02  0.67426815332E+02  0.00000000000E+00 0.  1.
         11    1    3    3    0    0 -0.12549294445E+03 -0.40076733195E+02  0.20581191232E+03  0.24436277725E+03  0.00000000000E+00 0. -1.
        -11    1    4    4    0    0  0.13962352113E+03  0.83817062237E+01  0.18448339257E+02  0.14108622142E+03  0.00000000000E+00 0. -1.
         11    1    4    4    0    0  0.15159166889E+02  0.34561810222E+02  0.34065756950E+02  0.50840877876E+02  0.00000000000E+00 0.  1.
          2    1    1    2  501    0 -0.28377405785E+02  0.41297329928E+02 -0.11066469323E+02  0.51314845431E+02  0.00000000000E+00 0. -1.
<scales pt_clust_5="13000.00000" pt_clust_6="13000.00000" pt_clust_7="13000.00000" pt_clust_8="13000.00000" pt_clust_9="50.10735"></scales>
<clustering>
<clus scale="   50.107">  2  9  1 -1</clus>
<clus scale="   90.639">  5  6 -1 -1</clus>
<clus scale="   90.975">  7  8 -1 -1</clus>
<clus scale="  177.630">  1  5  2 -1</clus>
<clus scale="   50.107">  2  5  1 -1</clus>
</clustering>
</event>
<event>
 9    1  0.1601012E-005  0.9483335E+02  0.7546771E-02  0.1298456E+00
         -1   -1    0    0    0  501 -0.00000000000E+00  0.00000000000E+00  0.16972876559E+03  0.16972876559E+03  0.00000000000E+00 0.  1.
         21   -1    0    0  501  502  0.00000000000E+00 -0.00000000000E+00 -0.17709236831E+03  0.17709236831E+03  0.00000000000E+00 0. -1.
         23    2    1    2    0    0  0.35163292404E+00 -0.27659308698E+02  0.68145431062E+02  0.11898800360E+03  0.93537074056E+02 0.  0.
         23    2    1    2    0    0  0.12351809428E+02  0.21856761726E+01  0.51556595134E+02  0.97618087176E+02  0.81938172213E+02 0.  0.
        -11    1    4    4    0    0  0.21513241593E+01 -0.25313980099E+02 -0.11641450315E+02  0.27945467423E+02  0.00000000000E+00 0. -1.
         11    1    4    4    0    0  0.10200485268E+02  0.27499656271E+02  0.63198045449E+02  0.69672619753E+02  0.00000000000E+00 0.  1.
        -13    1    3    3    0    0 -0.39090664587E+01  0.34270763126E+02  0.32569707229E+02  0.47439981395E+02  0.00000000000E+00 0.  1.
         13    1    3    3    0    0  0.42606993827E+01 -0.61930071824E+02  0.35575723833E+02  0.71548022206E+02  0.00000000000E+00 0. -1.
         -1    1    1    2    0  502 -0.12703442352E+02  0.25473632525E+02 -0.12706562892E+03  0.13021504312E+03  0.00000000000E+00 0.  1.
<scales pt_clust_5="13000.00000" pt_clust_6="13000.00000" pt_clust_7="13000.00000" pt_clust_8="13000.00000" pt_clust_9="28.46548"></scales>
<clustering>
<clus scale="   28.465">  2  9  1 -1</clus>
<clus scale="   81.938">  5  6 -1 -1</clus>
<clus scale="   83.415">  2  5  1 -1</clus>
<clus scale="   93.537">  7  8 -1 -1</clus>
<clus scale="   28.465">  2  5  1 -1</clus>
</clustering>
</event>
<event>
 9    1  0.1601012E-005  0.1837542E+03  0.7546771E-02  0.1164355E+00
         21   -1    0    0  501  502  0.00000000000E+00  0.00000000000E+00  0.83367731495E+02  0.83367731495E+02  0.00000000000E+00 0. -1.
         -4   -1    0    0    0  501 -0.00000000000E+00 -0.00000000000E+00 -0.61289556987E+03  0.61289556987E+03  0.00000000000E+00 0. -1.
         23    2    1    2    0    0 -0.16824899926E+03 -0.85725174777E+01 -0.43423156128E+03  0.47499387533E+03  0.93171449408E+02 0.  0.
         23    2    1    2    0    0  0.13339318211E+03 -0.53955150197E+01 -0.77422338014E+02  0.17968202867E+03  0.92024781382E+02 0.  0.
        -11    1    3    3    0    0 -0.56083127384E+02  0.34611629342E+02 -0.99579262129E+02  0.11941235911E+03  0.00000000000E+00 0.  1.
         11    1    3    3    0    0 -0.11216587187E+03 -0.43184146820E+02 -0.33465229915E+03  0.35558151622E+03  0.00000000000E+00 0. -1.
        -13    1    4    4    0    0  0.24512649332E+02  0.36767528073E+02 -0.11767400983E+02  0.45729561814E+02  0.00000000000E+00 0.  1.
         13    1    4    4    0    0  0.10888053278E+03 -0.42163043092E+02 -0.65654937030E+02  0.13395246686E+03  0.00000000000E+00 0. -1.
         -4    1    1    2    0  502  0.34855817151E+02  0.13968032497E+02 -0.17873939081E+02  0.41587397362E+02  0.00000000000E+00 0. -1.
<scales pt_clust_5="13000.00000" pt_clust_6="13000.00000" pt_clust_7="13000.00000" pt_clust_8="13000.00000" pt_clust_9="37.55042"></scales>
<clustering>
<clus scale="   37.550">  1  9  2 -1</clus>
<clus scale="   92.025">  7  8 -1 -1</clus>
<clus scale="   93.171">  5  6 -1 -1</clus>
<clus scale="  183.175">  1  7  2 -1</clus>
<clus scale="   37.550">  1  5  2 -1</clus>
</clustering>
</event>
<event>
 9    1  0.1601012E-005  0.1102113E+03  0.7546771E-02  0.1263723E+00
         21   -1    0    0  501  502  0.00000000000E+00  0.00000000000E+00  0.19495334320E+03  0.19495334320E+03  0.00000000000E+00 0.  1.
          1   -1    0    0  502    0 -0.00000000000E+00 -0.00000000000E+00 -0.16026299903E+03  0.16026299903E+03  0.00000000000E+00 0. -1.
         23    2    1    2    0    0  0.39805040495E+02  0.18658598693E+02 -0.88566023110E+02  0.13908625606E+03  0.97818513693E+02 0.  0.
         23    2    1    2    0    0 -0.88987631414E+02 -0.55749924789E+01  0.94123864925E+02  0.15748871260E+03  0.89406451464E+02 0.  0.
        -11    1    3    3    0    0 -0.21592418645E+02 -0.23315669095E+02 -0.35952698736E+02  0.47983846394E+02  0.00000000000E+00 0.  1.
         11    1    3    3    0    0  0.61397459140E+02  0.41974267788E+02 -0.52613324374E+02  0.91102409666E+02  0.00000000000E+00 0. -1.
        -11    1    4    4    0    0 -0.49745089367E+02 -0.47455853134E+02  0.47824366404E+02  0.83748444372E+02  0.00000000000E+00 0.  1.
         11    1    4    4    0    0 -0.39242542047E+02  0.41880860655E+02  0.46299498521E+02  0.73740268232E+02  0.00000000000E+00 0. -1.
          1    1    1    2  501    0  0.49182590919E+02 -0.13083606214E+02  0.29132502352E+02  0.58641373571E+02  0.00000000000E+00 0. -1.
<scales pt_clust_5="13000.00000" pt_clust_6="13000.00000" pt_clust_7="13000.00000" pt_clust_8="13000.00000" pt_clust_9="50.89310"></scales>
<clustering>
<clus scale="   50.893">  1  9  2 -1</clus>
<clus scale="   89.406">  7  8 -1 -1</clus>
<clus scale="   97.819">  5  6 -1 -1</clus>
<clus scale="  102.818">  1  7  2 -1</clus>
<clus scale="   50.893">  1  5  2 -1</clus>
</clustering>
</event>
<event>
 9    1  0.1601012E-005  0.9804719E+02  0.7546771E-02  0.1284807E+00
         21   -1    0    0  501  502  0.00000000000E+00  0.00000000000E+00  0.16426755115E+03  0.16426755115E+03  0.00000000000E+00 0. -1.
          2   -1    0    0  502    0 -0.00000000000E+00 -0.00000000000E+00 -0.23735901816E+03  0.23735901816E+03  0.00000000000E+00 0. -1.
         23    2    1    2    0    0 -0.35605504929E+01  0.29785502977E+02 -0.17823005859E+03  0.20281163997E+03  0.92014965158E+02 0.  0.
         23    2    1    2    0    0  0.28812789645E+02 -0.68900570644E+02  0.94250354409E+02  0.15100051929E+03  0.91326677572E+02 0.  0.
        -11    1    3    3    0    0 -0.40026525880E+02 -0.80028421901E+01 -0.52098260781E+02  0.66184567941E+02  0.00000000000E+00 0.  1.
         11    1    3    3    0    0  0.36465975387E+02  0.37788345167E+02 -0.12613179781E+03  0.13662707203E+03  0.00000000000E+00 0. -1.
        -13    1    4    4    0    0 -0.13086845198E+02 -0.29993476553E+02  0.87507563181E+02  0.93426162112E+02  0.00000000000E+00 0.  1.
         13    1    4    4    0    0  0.41899634843E+02 -0.38907094091E+02  0.67427912275E+01  0.57574357175E+02  0.00000000000E+00 0. -1.
          2    1    1    2  501    0 -0.25252239152E+02  0.39115067668E+02  0.10888237177E+02  0.47814410063E+02  0.00000000000E+00 0. -1.
<scales pt_clust_5="13000.00000" pt_clust_6="13000.00000" pt_clust_7="13000.00000" pt_clust_8="13000.00000" pt_clust_9="46.55818"></scales>
<clustering>
<clus scale="   46.558">  1  9  2 -1</clus>
<clus scale="   91.327">  7  8 -1 -1</clus>
<clus scale="   92.015">  5  6 -1 -1</clus>
<clus scale="   97.402">  1  7  2 -1</clus>
<clus scale="   46.558">  1  5  2 -1</clus>
</clustering>
</event>
<event>
 9    1  0.1601012E-005  0.2153690E+03  0.7546771E-02  0.1137459E+00
          1   -1    0    0  502    0 -0.00000000000E+00  0.00000000000E+00  0.15073338939E+04  0.15073338939E+04  0.00000000000E+00 0. -1.
         21   -1    0    0  501  502  0.00000000000E+00 -0.00000000000E+00 -0.12370633157E+03  0.12370633157E+03  0.00000000000E+00 0. -1.
         23    2    1    2    0    0  0.12170216558E+03  0.14692189322E+03  0.72449146754E+03  0.75475269643E+03  0.91467406270E+02 0.  0.
         23    2    1    2    0    0 -0.15190396104E+03 -0.13127400892E+03  0.74873270878E+03  0.78045142945E+03  0.90532235836E+02 0.  0.
        -11    1    3    3    0    0  0.69041413125E+02  0.19181895684E+02  0.29527561023E+03  0.30384592781E+03  0.00000000000E+00 0. -1.
         11    1    3    3    0    0  0.52660752458E+02  0.12773999754E+03  0.42921585731E+03  0.45090676862E+03  0.00000000000E+00 0.  1.
        -13    1    4    4    0    0 -0.94475079543E+02 -0.97953367886E+02  0.62888330355E+03  0.64343967271E+03  0.00000000000E+00 0. -1.
         13    1    4    4    0    0 -0.57428881497E+02 -0.33320641036E+02  0.11984940524E+03  0.13701175674E+03  0.00000000000E+00 0.  1.
          1    1    1    2  501    0  0.30201795457E+02 -0.15647884302E+02 -0.89596614029E+02  0.95836099553E+02  0.00000000000E+00 0. -1.
<scales pt_clust_5="13000.00000" pt_clust_6="13000.00000" pt_clust_7="13000.00000" pt_clust_8="13000.00000" pt_clust_9="34.01477"></scales>
<clustering>
<clus scale="   34.015">  2  9  1 -1</clus>
<clus scale="   90.532">  7  8 -1 -1</clus>
<clus scale="   91.467">  5  6 -1 -1</clus>
<clus scale="  214.973">  2  7  1 -1</clus>
<clus scale="   34.015">  2  5  1 -1</clus>
</clustering>
</event>
<event>
 9    1  0.1601012E-005  0.1052597E+03  0.7546771E-02  0.1273459E+00
         -1   -1    0    0    0  501 -0.00000000000E+00  0.00000000000E+00  0.12408208041E+03  0.12408208041E+03  0.00000000000E+00 0.  1.
         21   -1    0    0  501  502  0.00000000000E+00 -0.00000000000E+00 -0.16602166565E+03  0.16602166565E+03  0.00000000000E+00 0.  1.
         23    2    1    2    0    0 -0.47450254358E+02  0.14555610194E+01  0.45024494377E+02  0.11047262268E+03  0.89013201111E+02 0.  0.
         23    2    1    2    0    0  0.27869411389E+02  0.56398423739E+01 -0.12211263056E+02  0.10203126677E+03  0.97225266986E+02 0.  0.
        -13    1    4    4    0    0 -0.22640112947E+02  0.34709423409E+02  0.37437069430E+01  0.41609303399E+02  0.00000000000E+00 0.  1.
         13    1    4    4    0    0  0.50509524337E+02 -0.29069581035E+02 -0.15954969999E+02  0.60421963374E+02  0.00000000000E+00 0. -1.
        -13    1    3    3    0    0 -0.19236504020E+02  0.33734685567E+02  0.54155114678E+02  0.66639691948E+02  0.00000000000E+00 0.  1.
         13    1    3    3    0    0 -0.28213750338E+02 -0.32279124548E+02 -0.91306203007E+01  0.43832930734E+02  0.00000000000E+00 0. -1.
         -1    1    1    2    0  502  0.19580842969E+02 -0.70954033933E+01 -0.74752816567E+02  0.77599856606E+02  0.00000000000E+00 0.  1.
<scales pt_clust_5="13000.00000" pt_clust_6="13000.00000" pt_clust_7="13000.00000" pt_clust_8="13000.00000" pt_clust_9="20.82677"></scales>
<clustering>
<clus scale="   20.827">  2  9  1 -1</clus>
<clus scale="   89.013">  7  8 -1 -1</clus>
<clus scale="   97.225">  5  6 -1 -1</clus>
<clus scale="   97.725">  1  7  2 -1</clus>
<clus scale="   20.827">  2  5  1 -1</clus>
</clustering>
</event>
<event>
 9    1  0.1601012E-005  0.2622218E+03  0.7546771E-02  0.1106695E+00
         21   -1    0    0  501  502  0.00000000000E+00  0.00000000000E+00  0.81134600388E+02  0.81134600388E+02  0.00000000000E+00 0.  1.
          1   -1    0    0  502    0 -0.00000000000E+00 -0.00000000000E+00 -0.20673400774E+04  0.20673400774E+04  0.00000000000E+00 0. -1.
         23    2    1    2    0    0 -0.13593544736E+03 -0.17276090745E+03 -0.11014369857E+04  0.11281477295E+04  0.10596739672E+03 0.  0.
         23    2    1    2    0    0  0.22758993435E+03  0.24157605444E+03 -0.42656626263E+03  0.54800782753E+03  0.90540788211E+02 0.  0.
        -11    1    3    3    0    0 -0.60583294012E+02 -0.15512189458E+03 -0.76789590361E+03  0.78574630542E+03  0.00000000000E+00 0. -1.
         11    1    3    3    0    0 -0.75352153346E+02 -0.17639012865E+02 -0.33354108209E+03  0.34240142411E+03  0.00000000000E+00 0.  1.
        -13    1    4    4    0    0  0.11858012817E+03  0.18206424931E+03 -0.23847869472E+03  0.32261544524E+03  0.00000000000E+00 0.  1.
         13    1    4    4    0    0  0.10900980617E+03  0.59511805127E+02 -0.18808756791E+03  0.22539238229E+03  0.00000000000E+00 0. -1.
          1    1    1    2  501    0 -0.91654486988E+02 -0.68815146991E+02 -0.45820222865E+03  0.47231912070E+03  0.00000000000E+00 0. -1.
<scales pt_clust_5="13000.00000" pt_clust_6="13000.00000" pt_clust_7="13000.00000" pt_clust_8="13000.00000" pt_clust_9="114.61275"></scales>
<clustering>
<clus scale="   90.541">  7  8 -1 -1</clus>
<clus scale="  105.967">  5  6 -1 -1</clus>
<clus scale="  114.613">  1  9  2 -1</clus>
<clus scale="  256.376">  1  7  2 -1</clus>
<clus scale="  114.613">  1  5  2 -1</clus>
</clustering>
</event>
<event>
 9    1  0.1601012E-005  0.9911864E+02  0.7546771E-02  0.1284416E+00
         21   -1    0    0  501  502  0.00000000000E+00  0.00000000000E+00  0.75399434192E+02  0.75399434192E+02  0.00000000000E+00 0.  1.
         -1   -1    0    0    0  501 -0.00000000000E+00 -0.00000000000E+00 -0.27942625575E+03  0.27942625575E+03  0.00000000000E+00 0.  1.
         23    2    1    2    0    0  0.17045629667E+02  0.21295120701E+02 -0.17889670856E+03  0.20261428226E+03  0.91128916303E+02 0.  0.
         23    2    1    2    0    0  0.15693336845E+02 -0.37003543010E+02 -0.42522379650E+02  0.11194870286E+03  0.95440118846E+02 0.  0.
        -11    1    4    4    0    0  0.20018287161E+01  0.32419203448E+02 -0.17496258977E+02  0.36893510928E+02  0.00000000000E+00 0.  1.
         11    1    4    4    0    0  0.13691508129E+02 -0.69422746458E+02 -0.25026120673E+02  0.75055191936E+02  0.00000000000E+00 0. -1.
        -13    1    3    3    0    0  0.15209524491E+02 -0.33463753054E+02 -0.46112589935E+02  0.58970529540E+02  0.00000000000E+00 0. -1.
         13    1    3    3    0    0  0.18361051764E+01  0.54758873755E+02 -0.13278411862E+03  0.14364375272E+03  0.00000000000E+00 0.  1.
         -1    1    1    2    0  502 -0.32738966513E+02  0.15708422309E+02  0.17392266652E+02  0.40262704816E+02  0.00000000000E+00 0.  1.
<scales pt_clust_5="13000.00000" pt_clust_6="13000.00000" pt_clust_7="13000.00000" pt_clust_8="13000.00000" pt_clust_9="36.31246"></scales>
<clustering>
<clus scale="   36.312">  1  9  2 -1</clus>
<clus scale="   91.129">  7  8 -1 -1</clus>
<clus scale="   94.975">  2  7  1 -1</clus>
<clus scale="   95.440">  5  6 -1 -1</clus>
<clus scale="   36.312">  1  5  2 -1</clus>
</clustering>
</event>
<event>
 9    1  0.1601012E-005  0.9616345E+02  0.7546771E-02  0.1291791E+00
          2   -1    0    0  502    0 -0.00000000000E+00  0.00000000000E+00  0.22358123505E+03  0.22358123505E+03  0.00000000000E+00 0. -1.
         21   -1    0    0  501  502  0.00000000000E+00 -0.00000000000E+00 -0.12934875043E+03  0.12934875043E+03  0.00000000000E+00 0.  1.
         23    2    1    2    0    0  0.15329669919E+02  0.15019112893E+01  0.15085202782E+03  0.17792540297E+03  0.93079859301E+02 0.  0.
         23    2    1    2    0    0 -0.67047414173E+02 -0.40602585609E+01 -0.20872535770E+02  0.11208305398E+03  0.87264579256E+02 0.  0.
        -13    1    3    3    0    0  0.49722453378E+01  0.47105636900E+02  0.69928144868E+02  0.84460699121E+02  0.00000000000E+00 0. -1.
         13    1    3    3    0    0  0.10357424582E+02 -0.45603725610E+02  0.80923882953E+02  0.93464703850E+02  0.00000000000E+00 0.  1.
        -13    1    4    4    0    0 -0.71048389232E+02 -0.24991022709E+02 -0.38355219460E+02  0.84519510696E+02  0.00000000000E+00 0.  1.
         13    1    4    4    0    0  0.40009750589E+01  0.20930764148E+02  0.17482683690E+02  0.27563543282E+02  0.00000000000E+00 0. -1.
          2    1    1    2  501    0  0.51717744254E+02  0.25583472716E+01 -0.35747007438E+02  0.62921528527E+02  0.00000000000E+00 0. -1.
<scales pt_clust_5="13000.00000" pt_clust_6="13000.00000" pt_clust_7="13000.00000" pt_clust_8="13000.00000" pt_clust_9="51.78098"></scales>
<clustering>
<clus scale="   51.781">  2  9  1 -1</clus>
<clus scale="   87.265">  7  8 -1 -1</clus>
<clus scale="   90.546">  2  7  1 -1</clus>
<clus scale="   93.080">  5  6 -1 -1</clus>
<clus scale="   51.781">  2  5  1 -1</clus>
</clustering>
</event>
<event>
 9    1  0.1601012E-005  0.2245032E+03  0.7546771E-02  0.1130605E+00
         21   -1    0    0  501  502  0.00000000000E+00  0.00000000000E+00  0.53603115924E+02  0.53603115924E+02  0.00000000000E+00 0. -1.
          2   -1    0    0  502    0 -0.00000000000E+00 -0.00000000000E+00 -0.15031282009E+04  0.15031282009E+04  0.00000000000E+00 0. -1.
         23    2    1    2    0    0  0.15301133100E+03 -0.15363095882E+03 -0.97626074677E+03  0.10041399632E+04  0.90537733300E+02 0.  0.
         23    2    1    2    0    0 -0.16678137970E+03  0.82559787714E+02 -0.29539255532E+03  0.36055204316E+03  0.90049247247E+02 0.  0.
        -11    1    4    4    0    0 -0.29119487021E+02  0.48667464109E+02 -0.43394745228E+02  0.71411277125E+02  0.00000000000E+00 0.  1.
         11    1    4    4    0    0 -0.13766189268E+03  0.33892323605E+02 -0.25199781009E+03  0.28914076604E+03  0.00000000000E+00 0. -1.
        -13    1    3    3    0    0  0.74488094882E+02 -0.16900829735E+02 -0.27833184445E+03  0.28862212313E+03  0.00000000000E+00 0.  1.
         13    1    3    3    0    0  0.78523236120E+02 -0.13673012908E+03 -0.69792890232E+03  0.71551784010E+03  0.00000000000E+00 0. -1.
          2    1    1    2  501    0  0.13770048699E+02  0.71071171103E+02 -0.17787178291E+03  0.19203931045E+03  0.00000000000E+00 0. -1.
<scales pt_clust_5="13000.00000" pt_clust_6="13000.00000" pt_clust_7="13000.00000" pt_clust_8="13000.00000" pt_clust_9="72.39286"></scales>
<clustering>
<clus scale="   72.393">  1  9  2 -1</clus>
<clus scale="   90.049">  5  6 -1 -1</clus>
<clus scale="   90.538">  7  8 -1 -1</clus>
<clus scale="  224.307">  1  5  2 -1</clus>
<clus scale="   72.393">  1  5  2 -1</clus>
</clustering>
</event>
<event>
 9    1  0.1601012E-005  0.1171786E+03  0.7546771E-02  0.1250515E+00
         -2   -1    0    0    0  501 -0.00000000000E+00  0.00000000000E+00  0.72211449196E+02  0.72211449196E+02  0.00000000000E+00 0.  1.
         21   -1    0    0  501  502  0.00000000000E+00 -0.00000000000E+00 -0.25656937265E+03  0.25656937265E+03  0.00000000000E+00 0. -1.
         23    2    1    2    0    0 -0.17746236850E+02  0.65944217190E+02 -0.24457856387E+02  0.11361392378E+03  0.87443514536E+02 0.  0.
         23    2    1    2    0    0  0.40306579819E+02 -0.58981212685E+02 -0.12113480443E+03  0.16977749298E+03  0.95117571733E+02 0.  0.
        -13    1    4    4    0    0  0.21399290694E+02 -0.96737159773E+01 -0.11411296025E+03  0.11650441245E+03  0.00000000000E+00 0. -1.
         13    1    4    4    0    0  0.18907289125E+02 -0.49307496708E+02 -0.70218441778E+01  0.53273080532E+02  0.00000000000E+00 0.  1.
        -13    1    3    3    0    0 -0.49026797044E+02  0.17257041483E+02 -0.19571986088E+02  0.55538229613E+02  0.00000000000E+00 0.  1.
         13    1    3    3    0    0  0.31280560193E+02  0.48687175707E+02 -0.48858702988E+01  0.58075694167E+02  0.00000000000E+00 0. -1.
         -2    1    1    2    0  502 -0.22560342969E+02 -0.69630045046E+01 -0.38765262641E+02  0.45389405087E+02  0.00000000000E+00 0.  1.
<scales pt_clust_5="13000.00000" pt_clust_6="13000.00000" pt_clust_7="13000.00000" pt_clust_8="13000.00000" pt_clust_9="23.61043"></scales>
<clustering>
<clus scale="   23.610">  2  9  1 -1</clus>
<clus scale="   87.444">  7  8 -1 -1</clus>
<clus scale="   95.118">  5  6 -1 -1</clus>
<clus scale="  111.040">  1  7  2 -1</clus>
<clus scale="   23.610">  2  5  1 -1</clus>
</clustering>
</event>
<event>
 9    1  0.1601012E-005  0.9886071E+02  0.7546771E-02  0.1282719E+00
          3   -1    0    0  502    0 -0.00000000000E+00  0.00000000000E+00  0.28414079377E+03  0.28414079377E+03  0.00000000000E+00 0. -1.
         21   -1    0    0  501  502  0.00000000000E+00 -0.00000000000E+00 -0.59066050101E+02  0.59066050101E+02  0.00000000000E+00 0.  1.
         23    2    1    2    0    0  0.25316300109E+02 -0.13773591154E+02  0.11098757565E+03  0.14635740630E+03  0.90948455554E+02 0.  0.
         23    2    1    2    0    0 -0.15361563671E+02  0.56455216734E+02  0.10756563508E+03  0.15253975091E+03  0.90966150972E+02 0.  0.
        -11    1    3    3    0    0  0.46125335412E+02 -0.84140444604E+01  0.16887468197E+02  0.49835020750E+02  0.00000000000E+00 0.  1.
         11    1    3    3    0    0 -0.20809035303E+02 -0.53595466937E+01  0.94100107448E+02  0.96522385553E+02  0.00000000000E+00 0. -1.
        -13    1    4    4    0    0  0.57343349250E+01  0.75810043233E+02  0.93891068930E+02  0.12081216030E+03  0.00000000000E+00 0.  1.
         13    1    4    4    0    0 -0.21095898596E+02 -0.19354826499E+02  0.13674566151E+02  0.31727590608E+02  0.00000000000E+00 0. -1.
          3    1    1    2  501    0 -0.99547364385E+01 -0.42681625580E+02  0.65215329423E+01  0.44309686657E+02  0.00000000000E+00 0. -1.
<scales pt_clust_5="13000.00000" pt_clust_6="13000.00000" pt_clust_7="13000.00000" pt_clust_8="13000.00000" pt_clust_9="43.82714"></scales>
<clustering>
<clus scale="   43.827">  2  9  1 -1</clus>
<clus scale="   90.948">  5  6 -1 -1</clus>
<clus scale="   90.966">  7  8 -1 -1</clus>
<clus scale="   98.844">  1  5  2 -1</clus>
<clus scale="   43.827">  2  5  1 -1</clus>
</clustering>
</event>
<event>
 9    1  0.1601012E-005  0.9247727E+02  0.7546771E-02  0.1297706E+00
         -1   -1    0    0    0  501 -0.00000000000E+00  0.00000000000E+00  0.16447070924E+03  0.16447070924E+03  0.00000000000E+00 0.  1.
         21   -1    0    0  501  502  0.00000000000E+00 -0.00000000000E+00 -0.69980904186E+02  0.69980904186E+02  0.00000000000E+00 0. -1.
         23    2    1    2    0    0  0.11953029486E+02  0.11226947329E+02  0.66064543447E+02  0.11425415007E+03  0.91763651015E+02 0.  0.
         23    2    1    2    0    0  0.11818010901E+02 -0.11359956232E+02  0.28983523744E+02  0.96419496475E+02  0.90487350854E+02 0.  0.
        -13    1    3    3    0    0  0.37816872806E+02 -0.12774050906E+02  0.68072889267E+02  0.78912676412E+02  0.00000000000E+00 0.  1.
         13    1    3    3    0    0 -0.25863843320E+02  0.24000998234E+02 -0.20083458198E+01  0.35341473660E+02  0.00000000000E+00 0. -1.
        -13    1    4    4    0    0 -0.32903964048E+02  0.72445366793E+01 -0.89906367028E+01  0.34870986652E+02  0.00000000000E+00 0.  1.
         13    1    4    4    0    0  0.44721974948E+02 -0.18604492911E+02  0.37974160447E+02  0.61548509823E+02  0.00000000000E+00 0. -1.
         -1    1    1    2    0  502 -0.23771040386E+02  0.13300890306E+00 -0.55826213512E+00  0.23777966882E+02  0.00000000000E+00 0.  1.
<scales pt_clust_5="13000.00000" pt_clust_6="13000.00000" pt_clust_7="13000.00000" pt_clust_8="13000.00000" pt_clust_9="23.77141"></scales>
<clustering>
<clus scale="   23.771">  2  9  1 -1</clus>
<clus scale="   90.487">  7  8 -1 -1</clus>
<clus scale="   91.211">  2  7  1 -1</clus>
<clus scale="   91.764">  5  6 -1 -1</clus>
<clus scale="   23.771">  2  5  1 -1</clus>
</clustering>
</event>
<event>
 9    1  0.1601012E-005  0.1366767E+03  0.7546771E-02  0.1223040E+00
         21   -1    0    0  501  502  0.00000000000E+00  0.00000000000E+00  0.42371636485E+02  0.42371636485E+02  0.00000000000E+00 0.  1.
          2   -1    0    0  502    0 -0.00000000000E+00 -0.00000000000E+00 -0.10980709781E+04  0.10980709781E+04  0.00000000000E+00 0. -1.
         23    2    1    2    0    0 -0.10251183841E+03 -0.18008628753E+02 -0.62994909449E+03  0.64231052389E+03  0.69956841884E+02 0.  0.
         23    2    1    2    0    0  0.96797529659E+02 -0.48621449432E+01 -0.44685885744E+03  0.46648878101E+03  0.92387997767E+02 0.  0.
        -11    1    3    3    0    0 -0.63842852326E+02  0.23488373850E+02 -0.37597639817E+03  0.38208096718E+03  0.00000000000E+00 0. -1.
         11    1    3    3    0    0 -0.38668986087E+02 -0.41497002603E+02 -0.25397269633E+03  0.26022955672E+03  0.00000000000E+00 0.  1.
        -13    1    4    4    0    0  0.91479350563E+02 -0.34347534091E+02 -0.27061434608E+03  0.28771574337E+03  0.00000000000E+00 0.  1.
         13    1    4    4    0    0  0.53181790959E+01  0.29485389148E+02 -0.17624451136E+03  0.17877303764E+03  0.00000000000E+00 0. -1.
          2    1    1    2  501    0  0.57143087533E+01  0.22870773696E+02  0.21108610359E+02  0.31643309645E+02  0.00000000000E+00 0. -1.
<scales pt_clust_5="13000.00000" pt_clust_6="13000.00000" pt_clust_7="13000.00000" pt_clust_8="13000.00000" pt_clust_9="23.57383"></scales>
<clustering>
<clus scale="   23.574">  1  9  2 -1</clus>
<clus scale="   69.957">  5  6 -1 -1</clus>
<clus scale="   92.388">  7  8 -1 -1</clus>
<clus scale="  122.633">  2  5  1 -1</clus>
<clus scale="   23.574">  1  5  2 -1</clus>
</clustering>
</event>
<event>
 9    1  0.1601012E-005  0.1167959E+03  0.7546771E-02  0.1249261E+00
          1   -1    0    0  502    0 -0.00000000000E+00  0.00000000000E+00  0.37513433602E+03  0.37513433602E+03  0.00000000000E+00 0. -1.
         21   -1    0    0  501  502  0.00000000000E+00 -0.00000000000E+00 -0.70841602790E+02  0.70841602790E+02  0.00000000000E+00 0.  1.
         23    2    1    2    0    0  0.59910450963E+02  0.44063185071E+02  0.28577020794E+03  0.30885350471E+03  0.90526511093E+02 0.  0.
         23    2    1    2    0    0 -0.44854863490E+02 -0.58518412971E+02  0.17085856151E+02  0.11620143159E+03  0.88173027551E+02 0.  0.
        -11    1    3    3    0    0  0.60808164778E+02  0.68186672217E+02  0.24489508005E+03  0.26138220177E+03  0.00000000000E+00 0.  1.
         11    1    3    3    0    0 -0.89771381437E+00 -0.24123487146E+02  0.40875127896E+02  0.47471302938E+02  0.00000000000E+00 0. -1.
        -13    1    4    4    0    0 -0.40307794286E+02 -0.57162381141E+01 -0.25651842352E+02  0.48118714389E+02  0.00000000000E+00 0.  1.
         13    1    4    4    0    0 -0.45470692045E+01 -0.52802174857E+02  0.42737698503E+02  0.68082717199E+02  0.00000000000E+00 0. -1.
          1    1    1    2  501    0 -0.15055587473E+02  0.14455227900E+02  0.14366691349E+01  0.20921002509E+02  0.00000000000E+00 0. -1.
<scales pt_clust_5="13000.00000" pt_clust_6="13000.00000" pt_clust_7="13000.00000" pt_clust_8="13000.00000" pt_clust_9="20.87162"></scales>
<clustering>
<clus scale="   20.872">  2  9  1 -1</clus>
<clus scale="   88.173">  7  8 -1 -1</clus>
<clus scale="   90.527">  5  6 -1 -1</clus>
<clus scale="  114.981">  2  7  1 -1</clus>
<clus scale="   20.872">  2  5  1 -1</clus>
</clustering>
</event>
<event>
 9    1  0.1601012E-005  0.1360506E+03  0.7546771E-02  0.1218788E+00
         21   -1    0    0  501  502  0.00000000000E+00  0.00000000000E+00  0.93726803008E+02  0.93726803008E+02  0.00000000000E+00 0. -1.
          2   -1    0    0  502    0 -0.00000000000E+00 -0.00000000000E+00 -0.38566775593E+03  0.38566775593E+03  0.00000000000E+00 0.  1.
         23    2    1    2    0    0  0.91499834117E+02  0.20884869170E+02 -0.21071367569E+03  0.24852084269E+03  0.92487613903E+02 0.  0.
         23    2    1    2    0    0 -0.11846448381E+03  0.26971974280E+02 -0.86996932595E+02  0.17564094770E+03  0.92303601818E+02 0.  0.
        -11    1    4    4    0    0 -0.77303418658E+02  0.29999247413E+02 -0.10224439548E+03  0.13164227964E+03  0.00000000000E+00 0.  1.
         11    1    4    4    0    0 -0.41161065152E+02 -0.30272731333E+01  0.15247462885E+02  0.43998668065E+02  0.00000000000E+00 0. -1.
        -13    1    3    3    0    0  0.31613051505E+02  0.11532130422E+02 -0.49469477378E+01  0.34012458739E+02  0.00000000000E+00 0. -1.
         13    1    3    3    0    0  0.59886782612E+02  0.93527387486E+01 -0.20576672795E+03  0.21450838395E+03  0.00000000000E+00 0.  1.
          2    1    1    2  501    0  0.26964649693E+02 -0.47856843450E+02  0.57696553621E+01  0.55232768544E+02  0.00000000000E+00 0.  1.
<scales pt_clust_5="13000.00000" pt_clust_6="13000.00000" pt_clust_7="13000.00000" pt_clust_8="13000.00000" pt_clust_9="54.93059"></scales>
<clustering>
<clus scale="   54.931">  1  9  2 -1</clus>
<clus scale="   92.304">  5  6 -1 -1</clus>
<clus scale="   92.488">  7  8 -1 -1</clus>
<clus scale="  135.926">  1  5  2 -1</clus>
<clus scale="   54.931">  1  5  2 -1</clus>
</clustering>
</event>
<event>
 9    1  0.1601012E-005  0.1151293E+03  0.7546771E-02  0.1252244E+00
          3   -1    0    0  502    0 -0.00000000000E+00  0.00000000000E+00  0.82947400416E+02  0.82947400416E+02  0.00000000000E+00 0. -1.
         21   -1    0    0  501  502  0.00000000000E+00 -0.00000000000E+00 -0.19626688634E+03  0.19626688634E+03  0.00000000000E+00 0.  1.
         23    2    1    2    0    0  0.42215329823E+02  0.50724602849E+02 -0.53782378869E+02  0.12537415191E+03  0.92038113220E+02 0.  0.
         23    2    1    2    0    0 -0.29389579435E+02 -0.68027432876E+02 -0.62759183251E+02  0.13206240367E+03  0.89500192051E+02 0.  0.
        -11    1    3    3    0    0  0.25460397607E+02 -0.10826144672E+02  0.15077091256E+02  0.31508029698E+02  0.00000000000E+00 0. -1.
         11    1    3    3    0    0  0.16754932217E+02  0.61550747520E+02 -0.68859470125E+02  0.93866122215E+02  0.00000000000E+00 0.  1.
        -13    1    4    4    0    0 -0.81225189623E+01 -0.82621522829E+02 -0.66011652326E+02  0.10606521386E+03  0.00000000000E+00 0.  1.
         13    1    4    4    0    0 -0.21267060473E+02  0.14594089953E+02  0.32524690750E+01  0.25997189806E+02  0.00000000000E+00 0. -1.
          3    1    1    2  501    0 -0.12825750388E+02  0.17302830027E+02  0.32220761978E+01  0.21777731172E+02  0.00000000000E+00 0. -1.
<scales pt_clust_5="13000.00000" pt_clust_6="13000.00000" pt_clust_7="13000.00000" pt_clust_8="13000.00000" pt_clust_9="21.53807"></scales>
<clustering>
<clus scale="   21.538">  2  9  1 -1</clus>
<clus scale="   89.500">  7  8 -1 -1</clus>
<clus scale="   92.038">  5  6 -1 -1</clus>
<clus scale="  113.111">  2  7  1 -1</clus>
<clus scale="   21.538">  2  5  1 -1</clus>
</clustering>
</event>
<event>
 9    1  0.1601012E-005  0.9465921E+02  0.7546771E-02  0.1293973E+00
         21   -1    0    0  501  502  0.00000000000E+00  0.00000000000E+00  0.21650735828E+03  0.21650735828E+03  0.00000000000E+00 0. -1.
          1   -1    0    0  502    0 -0.00000000000E+00 -0.00000000000E+00 -0.33207758357E+03  0.33207758357E+03  0.00000000000E+00 0. -1.
         23    2    1    2    0    0  0.30382858405E+01  0.49261645198E+01 -0.17455148836E+03  0.19849068220E+03  0.94323011780E+02 0.  0.
         23    2    1    2    0    0  0.88899198295E+00  0.24193829000E+02 -0.12912923765E+03  0.15970266841E+03  0.90798957109E+02 0.  0.
        -11    1    3    3    0    0  0.22380044519E+02  0.43065468155E+02 -0.66850147440E+02  0.82610187948E+02  0.00000000000E+00 0. -1.
         11    1    3    3    0    0 -0.19341758679E+02 -0.38139303635E+02 -0.10770134092E+03  0.11588049425E+03  0.00000000000E+00 0.  1.
        -13    1    4    4    0    0  0.13999779577E+02 -0.24951124549E+02 -0.10236012718E+02  0.30386319304E+02  0.00000000000E+00 0.  1.
         13    1    4    4    0    0 -0.13110787594E+02  0.49144953549E+02 -0.11889322494E+03  0.12931634911E+03  0.00000000000E+00 0. -1.
          1    1    1    2  501    0 -0.39272778234E+01 -0.29119993520E+02  0.18811050072E+03  0.19039159124E+03  0.00000000000E+00 0. -1.
<scales pt_clust_5="13000.00000" pt_clust_6="13000.00000" pt_clust_7="13000.00000" pt_clust_8="13000.00000" pt_clust_9="29.38363"></scales>
<clustering>
<clus scale="   29.384">  1  9  2 -1</clus>
<clus scale="   90.799">  7  8 -1 -1</clus>
<clus scale="   91.148">  1  7  2 -1</clus>
<clus scale="   94.323">  5  6 -1 -1</clus>
<clus scale="   29.384">  1  5  2 -1</clus>
</clustering>
</event>
<event>
 9    1  0.1601012E-005  0.9337258E+02  0.7546771E-02  0.1298575E+00
         21   -1    0    0  501  502  0.00000000000E+00  0.00000000000E+00  0.56437330737E+03  0.56437330737E+03  0.00000000000E+00 0. -1.
         -2   -1    0    0    0  501 -0.00000000000E+00 -0.00000000000E+00 -0.30968059647E+02  0.30968059647E+02  0.00000000000E+00 0.  1.
         23    2    1    2    0    0  0.79543971422E+01  0.70533084994E+01  0.74227723671E+02  0.11371982722E+03  0.85495160956E+02 0.  0.
         23    2    1    2    0    0 -0.21669828734E+02 -0.40843165259E+02  0.39126883100E+03  0.40454068565E+03  0.91783019180E+02 0.  0.
        -11    1    4    4    0    0  0.65261973786E+01  0.27803434074E+02  0.10907291456E+03  0.11274982434E+03  0.00000000000E+00 0.  1.
         11    1    4    4    0    0 -0.28196026112E+02 -0.68646599333E+02  0.28219591644E+03  0.29179086131E+03  0.00000000000E+00 0. -1.
        -13    1    3    3    0    0  0.44248061176E+02 -0.51006695535E+01  0.55340956466E+02  0.71038927429E+02  0.00000000000E+00 0.  1.
         13    1    3    3    0    0 -0.36293664034E+02  0.12153978053E+02  0.18886767205E+02  0.42680899791E+02  0.00000000000E+00 0. -1.
         -2    1    1    2    0  502  0.13715431591E+02  0.33789856759E+02  0.67908693047E+02  0.77080854140E+02  0.00000000000E+00 0.  1.
<scales pt_clust_5="13000.00000" pt_clust_6="13000.00000" pt_clust_7="13000.00000" pt_clust_8="13000.00000" pt_clust_9="36.46737"></scales>
<clustering>
<clus scale="   36.467">  1  9  2 -1</clus>
<clus scale="   85.495">  7  8 -1 -1</clus>
<clus scale="   87.199">  2  7  1 -1</clus>
<clus scale="   91.783">  5  6 -1 -1</clus>
<clus scale="   36.467">  1  5  2 -1</clus>
</clustering>
</event>
<event>
 9    1  0.1601012E-005  0.2539175E+03  0.7546771E-02  0.1112153E+00
         21   -1    0    0  501  502  0.00000000000E+00  0.00000000000E+00  0.18815706604E+03  0.18815706604E+03  0.00000000000E+00 0.  1.
          1   -1    0    0  502    0 -0.00000000000E+00 -0.00000000000E+00 -0.83610724871E+03  0.83610724871E+03  0.00000000000E+00 0. -1.
         23    2    1    2    0    0  0.24536342474E+03  0.40278706653E+02 -0.60873980196E+03  0.66705800414E+03  0.11214566416E+03 0.  0.
         23    2    1    2    0    0 -0.13069969274E+03 -0.13149919099E+03 -0.64189043258E+01  0.20705895258E+03  0.91966083955E+02 0.  0.
        -11    1    4    4    0    0 -0.47976408533E+02 -0.25079289433E+02  0.36857749739E+02  0.65491986151E+02  0.00000000000E+00 0.  1.
         11    1    4    4    0    0 -0.82723284209E+02 -0.10641990156E+03 -0.43276654065E+02  0.14156696643E+03  0.00000000000E+00 0. -1.
        -13    1    3    3    0    0  0.27293474792E+01 -0.21701602653E+02 -0.39096599390E+02  0.44799028775E+02  0.00000000000E+00 0.  1.
         13    1    3    3    0    0  0.24263407726E+03  0.61980309305E+02 -0.56964320257E+03  0.62225897536E+03  0.00000000000E+00 0. -1.
          1    1    1    2  501    0 -0.11466373200E+03  0.91220484337E+02 -0.32791476384E+02  0.15014735802E+03  0.00000000000E+00 0. -1.
<scales pt_clust_5="13000.00000" pt_clust_6="13000.00000" pt_clust_7="13000.00000" pt_clust_8="13000.00000" pt_clust_9="146.52286"></scales>
<clustering>
<clus scale="   91.966">  5  6 -1 -1</clus>
<clus scale="  112.146">  7  8 -1 -1</clus>
<clus scale="  146.523">  1  9  2 -1</clus>
<clus scale="  245.673">  1  5  2 -1</clus>
<clus scale="  146.523">  1  5  2 -1</clus>
</clustering>
</event>
<event>
 9    1  0.1601012E-005  0.1635570E+03  0.7546771E-02  0.1207301E+00
         21   -1    0    0  501  502  0.00000000000E+00  0.00000000000E+00  0.18170675591E+03  0.18170675591E+03  0.00000000000E+00 0.  1.
         -2   -1    0    0    0  501 -0.00000000000E+00 -0.00000000000E+00 -0.26539967045E+03  0.26539967045E+03  0.00000000000E+00 0.  1.
         23    2    1    2    0    0  0.10925516855E+02  0.11705366897E+02 -0.10622874585E+03  0.14579393431E+03  0.98564406881E+02 0.  0.
         23    2    1    2    0    0 -0.12663910340E+03  0.55622379114E+02  0.24408168930E+02  0.16742386242E+03  0.91124527030E+02 0.  0.
        -13    1    3    3    0    0 -0.20392196152E+02 -0.28687518431E+02 -0.96038086538E+01  0.36483537634E+02  0.00000000000E+00 0. -1.
         13    1    3    3    0    0  0.31317713007E+02  0.40392885328E+02 -0.96624937198E+02  0.10931039668E+03  0.00000000000E+00 0.  1.
        -13    1    4    4    0    0 -0.91575789151E+02 -0.83423496169E+01  0.57706256556E+01  0.92135878333E+02  0.00000000000E+00 0. -1.
         13    1    4    4    0    0 -0.35063314254E+02  0.63964728730E+02  0.18637543274E+02  0.75287984083E+02  0.00000000000E+00 0.  1.
         -2    1    1    2    0  502  0.11571358655E+03 -0.67327746011E+02 -0.18723376170E+01  0.13388862963E+03  0.00000000000E+00 0.  1.
<scales pt_clust_5="13000.00000" pt_clust_6="13000.00000" pt_clust_7="13000.00000" pt_clust_8="13000.00000" pt_clust_9="135.82056"></scales>
<clustering>
<clus scale="   91.125">  7  8 -1 -1</clus>
<clus scale="   98.564">  5  6 -1 -1</clus>
<clus scale="   99.857">  2  5  1 -1</clus>
<clus scale="  135.821">  1  9  2 -1</clus>
<clus scale="  135.821">  1  5  2 -1</clus>
</clustering>
</event>
<event>
 9    1  0.1601012E-005  0.9966936E+02  0.7546771E-02  0.1281584E+00
         21   -1    0    0  501  502  0.00000000000E+00  0.00000000000E+00  0.14786598693E+02  0.14786598693E+02  0.00000000000E+00 0.  1.
          1   -1    0    0  502    0 -0.00000000000E+00 -0.00000000000E+00 -0.99355050653E+03  0.99355050653E+03  0.00000000000E+00 0. -1.
         23    2    1    2    0    0  0.19988602379E+02 -0.90605825008E+01 -0.35607200409E+03  0.36805112143E+03  0.90513631633E+02 0.  0.
         23    2    1    2    0    0 -0.59136326854E+02  0.39033831567E+01 -0.43650025062E+03  0.44995345181E+03  0.91724034193E+02 0.  0.
        -13    1    4    4    0    0 -0.42593898565E+02 -0.41763455106E+02 -0.21026111616E+03  0.21855929023E+03  0.00000000000E+00 0.  1.
         13    1    4    4    0    0 -0.16542428289E+02  0.45666838263E+02 -0.22623913447E+03  0.23139416158E+03  0.00000000000E+00 0. -1.
        -13    1    3    3    0    0 -0.32429503811E+02 -0.57809827744E+01 -0.72173727941E+02  0.79335612963E+02  0.00000000000E+00 0.  1.
         13    1    3    3    0    0  0.52418106191E+02 -0.32795997265E+01 -0.28389827615E+03  0.28871550847E+03  0.00000000000E+00 0. -1.
          1    1    1    2  501    0  0.39147724475E+02  0.51571993442E+01 -0.18619165313E+03  0.19033253198E+03  0.00000000000E+00 0. -1.
<scales pt_clust_5="13000.00000" pt_clust_6="13000.00000" pt_clust_7="13000.00000" pt_clust_8="13000.00000" pt_clust_9="39.48598"></scales>
<clustering>
<clus scale="   39.486">  1  9  2 -1</clus>
<clus scale="   90.514">  7  8 -1 -1</clus>
<clus scale="   91.724">  5  6 -1 -1</clus>
<clus scale="   98.557">  2  7  1 -1</clus>
<clus scale="   39.486">  1  5  2 -1</clus>
</clustering>
</event>
<event>
 9    1  0.1601012E-005  0.1726434E+03  0.7546771E-02  0.1188731E+00
         21   -1    0    0  501  502  0.00000000000E+00  0.00000000000E+00  0.50319133821E+03  0.50319133821E+03  0.00000000000E+00 0. -1.
          2   -1    0    0  502    0 -0.00000000000E+00 -0.00000000000E+00 -0.23638011579E+03  0.23638011579E+03  0.00000000000E+00 0. -1.
         23    2    1    2    0    0 -0.84993889485E+02 -0.23599133926E+02  0.61139205384E+02  0.14118698534E+03  0.91732666059E+02 0.  0.
         23    2    1    2    0    0  0.99836012793E+02 -0.12297575857E+03 -0.13488166965E+03  0.22733015828E+03  0.91627885555E+02 0.  0.
        -13    1    3    3    0    0  0.12891698056E+01 -0.39303546937E+02  0.22956400629E+02  0.45534899698E+02  0.00000000000E+00 0.  1.
         13    1    3    3    0    0 -0.86283059290E+02  0.15704413011E+02  0.38182804755E+02  0.95652085641E+02  0.00000000000E+00 0. -1.
        -13    1    4    4    0    0  0.12608410876E+02 -0.75956402447E+02 -0.28906190001E+02  0.82243023521E+02  0.00000000000E+00 0.  1.
         13    1    4    4    0    0  0.87227601917E+02 -0.47019356121E+02 -0.10597547965E+03  0.14508713476E+03  0.00000000000E+00 0. -1.
          2    1    1    2  501    0 -0.14842123308E+02  0.14657489249E+03  0.34055368669E+03  0.37105431038E+03  0.00000000000E+00 0. -1.
<scales pt_clust_5="13000.00000" pt_clust_6="13000.00000" pt_clust_7="13000.00000" pt_clust_8="13000.00000" pt_clust_9="146.32180"></scales>
<clustering>
<clus scale="   91.628">  7  8 -1 -1</clus>
<clus scale="   91.733">  5  6 -1 -1</clus>
<clus scale="  127.263">  2  5  1 -1</clus>
<clus scale="  146.322">  1  9  2 -1</clus>
<clus scale="  146.322">  1  5  2 -1</clus>
</clustering>
</event>
<event>
 9    1  0.1601012E-005  0.1081866E+03  0.7546771E-02  0.1265569E+00
          2   -1    0    0  502    0 -0.00000000000E+00  0.00000000000E+00  0.58526157799E+03  0.58526157799E+03  0.00000000000E+00 0. -1.
         21   -1    0    0  501  502  0.00000000000E+00 -0.00000000000E+00 -0.31342974306E+02  0.31342974306E+02  0.00000000000E+00 0.  1.
         23    2    1    2    0    0 -0.34874506363E+02  0.47637017153E+02  0.39000683949E+03  0.40567155807E+03  0.94755272056E+02 0.  0.
         23    2    1    2    0    0  0.31131195312E+01 -0.42066003234E+02  0.12968215820E+03  0.16390653554E+03  0.90932118071E+02 0.  0.
        -11    1    4    4    0    0  0.58397747679E+01 -0.70763198526E+02  0.98721663957E+02  0.12160386577E+03  0.00000000000E+00 0.  1.
         11    1    4    4    0    0 -0.27266552368E+01  0.28697195292E+02  0.30960494245E+02  0.42302669778E+02  0.00000000000E+00 0. -1.
        -13    1    3    3    0    0  0.20543141524E+02  0.49067910956E+02  0.14440769850E+03  0.15389367737E+03  0.00000000000E+00 0.  1.
         13    1    3    3    0    0 -0.55417647887E+02 -0.14308938026E+01  0.24559914100E+03  0.25177788071E+03  0.00000000000E+00 0. -1.
          2    1    1    2  501    0  0.31761386832E+02 -0.55710139187E+01  0.34229605989E+02  0.47026458677E+02  0.00000000000E+00 0. -1.
<scales pt_clust_5="13000.00000" pt_clust_6="13000.00000" pt_clust_7="13000.00000" pt_clust_8="13000.00000" pt_clust_9="32.24627"></scales>
<clustering>
<clus scale="   32.246">  2  9  1 -1</clus>
<clus scale="   90.932">  5  6 -1 -1</clus>
<clus scale="   94.755">  7  8 -1 -1</clus>
<clus scale="  104.854">  2  5  1 -1</clus>
<clus scale="   32.246">  2  5  1 -1</clus>
</clustering>
</event>
<event>
 9    1  0.1601012E-005  0.1011445E+03  0.7546771E-02  0.1281672E+00
          1   -1    0    0  502    0 -0.00000000000E+00  0.00000000000E+00  0.54222681277E+03  0.54222681277E+03  0.00000000000E+00 0. -1.
         21   -1    0    0  501  502  0.00000000000E+00 -0.00000000000E+00 -0.28323254395E+02  0.28323254395E+02  0.00000000000E+00 0. -1.
         23    2    1    2    0    0  0.11597705670E+02  0.49691492447E+01  0.26245257399E+03  0.28072475113E+03  0.98822229704E+02 0.  0.
         23    2    1    2    0    0 -0.29693989869E+02  0.20801751365E+02  0.23380130631E+03  0.25372648009E+03  0.91649495225E+02 0.  0.
        -11    1    4    4    0    0 -0.11578254838E+02 -0.27666472392E+02  0.26359682340E+02  0.39928968592E+02  0.00000000000E+00 0.  1.
         11    1    4    4    0    0 -0.18115735031E+02  0.48468223757E+02  0.20744162397E+03  0.21379751150E+03  0.00000000000E+00 0. -1.
        -13    1    3    3    0    0 -0.43126631474E+02  0.99308950114E+01  0.10439374828E+03  0.11338687622E+03  0.00000000000E+00 0. -1.
         13    1    3    3    0    0  0.54724337144E+02 -0.49617457666E+01  0.15805882570E+03  0.16733787491E+03  0.00000000000E+00 0.  1.
          1    1    1    2  501    0  0.18096284199E+02 -0.25770900610E+02  0.17649678081E+02  0.36098835943E+02  0.00000000000E+00 0. -1.
<scales pt_clust_5="13000.00000" pt_clust_6="13000.00000" pt_clust_7="13000.00000" pt_clust_8="13000.00000" pt_clust_9="31.48992"></scales>
<clustering>
<clus scale="   31.490">  2  9  1 -1</clus>
<clus scale="   91.649">  5  6 -1 -1</clus>
<clus scale="   94.149">  2  5  1 -1</clus>
<clus scale="   98.822">  7  8 -1 -1</clus>
<clus scale="   31.490">  2  5  1 -1</clus>
</clustering>
</event>
<event>
 9    1  0.1601012E-005  0.1751461E+03  0.7546771E-02  0.1200128E+00
          2   -1    0    0  502    0 -0.00000000000E+00  0.00000000000E+00  0.51874219208E+02  0.51874219208E+02  0.00000000000E+00 0. -1.
         21   -1    0    0  501  502  0.00000000000E+00 -0.00000000000E+00 -0.99582977384E+03  0.99582977384E+03  0.00000000000E+00 0.  1.
         23    2    1    2    0    0 -0.20241372195E+02  0.25221281387E+02 -0.94387019001E+02  0.13386962076E+03  0.89254354643E+02 0.  0.
         23    2    1    2    0    0  0.16561297770E+02  0.13995754572E+03 -0.50239841890E+03  0.52935462273E+03  0.89161393592E+02 0.  0.
        -11    1    3    3    0    0 -0.17255597175E+02  0.58736191030E+02 -0.58495745032E+02  0.84672592717E+02  0.00000000000E+00 0.  1.
         11    1    3    3    0    0 -0.29857750200E+01 -0.33514909643E+02 -0.35891273969E+02  0.49197028041E+02  0.00000000000E+00 0. -1.
        -13    1    4    4    0    0 -0.30181886856E+02  0.26738179806E+02 -0.80486992301E+02  0.90022399897E+02  0.00000000000E+00 0. -1.
         13    1    4    4    0    0  0.46743184626E+02  0.11321936591E+03 -0.42191142660E+03  0.43933222283E+03  0.00000000000E+00 0.  1.
          2    1    1    2  501    0  0.36800744245E+01 -0.16517882710E+03 -0.34717011673E+03  0.38447974956E+03  0.00000000000E+00 0. -1.
<scales pt_clust_5="13000.00000" pt_clust_6="13000.00000" pt_clust_7="13000.00000" pt_clust_8="13000.00000" pt_clust_9="150.75286"></scales>
<clustering>
<clus scale="   89.161">  7  8 -1 -1</clus>
<clus scale="   89.254">  5  6 -1 -1</clus>
<clus scale="   94.932">  1  5  2 -1</clus>
<clus scale="  150.753">  2  9  1 -1</clus>
<clus scale="  150.753">  2  5  1 -1</clus>
</clustering>
</event>
<event>
 9    1  0.1601012E-005  0.1092512E+03  0.7546771E-02  0.1262028E+00
         21   -1    0    0  501  502  0.00000000000E+00  0.00000000000E+00  0.55874334644E+02  0.55874334644E+02  0.00000000000E+00 0. -1.
          1   -1    0    0  502    0 -0.00000000000E+00 -0.00000000000E+00 -0.42109856045E+03  0.42109856045E+03  0.00000000000E+00 0. -1.
         23    2    1    2    0    0  0.36680107849E+02  0.55747187554E+02 -0.11313655227E+03  0.16001832327E+03  0.91393681896E+02 0.  0.
         23    2    1    2    0    0 -0.69312123080E+02  0.98537854389E+00 -0.10352550809E+03  0.15461496028E+03  0.91559345459E+02 0.  0.
        -13    1    4    4    0    0  0.20511722252E+02 -0.76921867803E+01 -0.35055837007E+02  0.41337781695E+02  0.00000000000E+00 0.  1.
         13    1    4    4    0    0 -0.89823845332E+02  0.86775653242E+01 -0.68469671083E+02  0.11327717859E+03  0.00000000000E+00 0. -1.
        -13    1    3    3    0    0  0.34198562178E+02  0.49544686931E+01 -0.10236034943E+03  0.10803577903E+03  0.00000000000E+00 0.  1.
         13    1    3    3    0    0  0.24815456704E+01  0.50792718861E+02 -0.10776202844E+02  0.51982544243E+02  0.00000000000E+00 0. -1.
          1    1    1    2  501    0  0.32632015231E+02 -0.56732566098E+02 -0.14856216544E+03  0.16233961154E+03  0.00000000000E+00 0. -1.
<scales pt_clust_5="13000.00000" pt_clust_6="13000.00000" pt_clust_7="13000.00000" pt_clust_8="13000.00000" pt_clust_9="65.44797"></scales>
<clustering>
<clus scale="   65.448">  1  9  2 -1</clus>
<clus scale="   91.394">  7  8 -1 -1</clus>
<clus scale="   91.559">  5  6 -1 -1</clus>
<clus scale="  109.112">  2  7  1 -1</clus>
<clus scale="   65.448">  1  5  2 -1</clus>
</clustering>
</event>
<event>
 9    1  0.1601012E-005  0.1296095E+03  0.7546771E-02  0.1228231E+00
         21   -1    0    0  501  502  0.00000000000E+00  0.00000000000E+00  0.11794686865E+03  0.11794686865E+03  0.00000000000E+00 0.  1.
          1   -1    0    0  502    0 -0.00000000000E+00 -0.00000000000E+00 -0.24556867361E+03  0.24556867361E+03  0.00000000000E+00 0. -1.
         23    2    1    2    0    0  0.69440671079E+02  0.37610102065E+02 -0.92001977685E+02  0.15174627985E+03  0.91247153228E+02 0.  0.
         23    2    1    2    0    0 -0.76805766179E+02 -0.91471081148E+02 -0.43340701448E+02  0.15686150712E+03  0.91983866033E+02 0.  0.
        -11    1    3    3    0    0  0.26985537855E+02 -0.30305421925E+02 -0.30411525796E+02  0.50709947275E+02  0.00000000000E+00 0.  1.
         11    1    3    3    0    0  0.42455133223E+02  0.67915523989E+02 -0.61590451889E+02  0.10103633257E+03  0.00000000000E+00 0. -1.
        -13    1    4    4    0    0 -0.59370252483E+02 -0.45940962179E+02 -0.68828550395E+02  0.10184678805E+03  0.00000000000E+00 0. -1.
         13    1    4    4    0    0 -0.17435513696E+02 -0.45530118969E+02  0.25487848947E+02  0.55014719077E+02  0.00000000000E+00 0.  1.
          1    1    1    2  501    0  0.73650951004E+01  0.53860979083E+02  0.77208741736E+01  0.54907755295E+02  0.00000000000E+00 0. -1.
<scales pt_clust_5="13000.00000" pt_clust_6="13000.00000" pt_clust_7="13000.00000" pt_clust_8="13000.00000" pt_clust_9="54.36221"></scales>
<clustering>
<clus scale="   54.362">  1  9  2 -1</clus>
<clus scale="   91.247">  5  6 -1 -1</clus>
<clus scale="   91.984">  7  8 -1 -1</clus>
<clus scale="  129.088">  2  5  1 -1</clus>
<clus scale="   54.362">  1  5  2 -1</clus>
</clustering>
</event>
<event>
 9    1  0.1601012E-005  0.1028491E+03  0.7546771E-02  0.1281866E+00
         21   -1    0    0  501  502  0.00000000000E+00  0.00000000000E+00  0.23274278320E+03  0.23274278320E+03  0.00000000000E+00 0.  1.
          2   -1    0    0  502    0 -0.00000000000E+00 -0.00000000000E+00 -0.11665270200E+03  0.11665270200E+03  0.00000000000E+00 0. -1.
         23    2    1    2    0    0 -0.39530881241E+02  0.22585897729E+02 -0.15268146840E+02  0.89310524546E+02  0.75302324922E+02 0.  0.
         23    2    1    2    0    0  0.14031459218E+02 -0.59352868743E+02 -0.11687008824E+02  0.11020510721E+03  0.91043586282E+02 0.  0.
        -11    1    4    4    0    0 -0.11237901809E+02 -0.17034900278E+02 -0.45882320227E+02  0.50216188365E+02  0.00000000000E+00 0.  1.
         11    1    4    4    0    0  0.25269361028E+02 -0.42317968466E+02  0.34195311402E+02  0.59988918841E+02  0.00000000000E+00 0. -1.
        -13    1    3    3    0    0 -0.22041341014E+02 -0.23720358218E+02  0.97932635467E+01  0.33828746926E+02  0.00000000000E+00 0.  1.
         13    1    3    3    0    0 -0.17489540228E+02  0.46306255948E+02 -0.25061410387E+02  0.55481777620E+02  0.00000000000E+00 0. -1.
          2    1    1    2  501    0  0.25499422023E+02  0.36766971014E+02  0.14304523686E+03  0.14987985345E+03  0.00000000000E+00 0. -1.
<scales pt_clust_5="13000.00000" pt_clust_6="13000.00000" pt_clust_7="13000.00000" pt_clust_8="13000.00000" pt_clust_9="44.74406"></scales>
<clustering>
<clus scale="   44.744">  1  9  2 -1</clus>
<clus scale="   75.302">  7  8 -1 -1</clus>
<clus scale="   89.216">  2  7  1 -1</clus>
<clus scale="   91.044">  5  6 -1 -1</clus>
<clus scale="   44.744">  1  5  2 -1</clus>
</clustering>
</event>
<event>
 9    1  0.1601012E-005  0.3826181E+03  0.7546771E-02  0.1064391E+00
         21   -1    0    0  501  502  0.00000000000E+00  0.00000000000E+00  0.13179838077E+04  0.13179838077E+04  0.00000000000E+00 0. -1.
          1   -1    0    0  502    0 -0.00000000000E+00 -0.00000000000E+00 -0.90105521577E+03  0.90105521577E+03  0.00000000000E+00 0. -1.
         23    2    1    2    0    0  0.19575423202E+03 -0.13681540154E+03 -0.47786770073E+03  0.54164717088E+03  0.89364113979E+02 0.  0.
         23    2    1    2    0    0 -0.78606781513E+02 -0.23068132997E+03 -0.31428885182E+03  0.40827237064E+03  0.92281873365E+02 0.  0.
        -11    1    4    4    0    0 -0.75084759506E+02 -0.20505720412E+03 -0.31392228238E+03  0.38240472989E+03  0.00000000000E+00 0. -1.
         11    1    4    4    0    0 -0.35220220066E+01 -0.25624125856E+02 -0.36656944664E+00  0.25867640752E+02  0.00000000000E+00 0.  1.
        -13    1    3    3    0    0  0.63472608837E+02  0.77960534464E+00 -0.10310350347E+03  0.12107729880E+03  0.00000000000E+00 0.  1.
         13    1    3    3    0    0  0.13228162319E+03 -0.13759500689E+03 -0.37476419727E+03  0.42056987209E+03  0.00000000000E+00 0. -1.
          1    1    1    2  501    0 -0.11714745051E+03  0.36749673152E+03  0.12090851445E+04  0.12691194819E+04  0.00000000000E+00 0. -1.
<scales pt_clust_5="13000.00000" pt_clust_6="13000.00000" pt_clust_7="13000.00000" pt_clust_8="13000.00000" pt_clust_9="371.32287"></scales>
<clustering>
<clus scale="   89.364">  7  8 -1 -1</clus>
<clus scale="   92.282">  5  6 -1 -1</clus>
<clus scale="  254.998">  2  7  1 -1</clus>
<clus scale="  371.323">  1  9  2 -1</clus>
<clus scale="  371.323">  1  5  2 -1</clus>
</clustering>
</event>
<event>
 9    1  0.1601012E-005  0.1029107E+03  0.7546771E-02  0.1279947E+00
         -4   -1    0    0    0  501 -0.00000000000E+00  0.00000000000E+00  0.30448624002E+02  0.30448624002E+02  0.00000000000E+00 0.  1.
         21   -1    0    0  501  502  0.00000000000E+00 -0.00000000000E+00 -0.78136097461E+03  0.78136097461E+03  0.00000000000E+00 0. -1.
         23    2    1    2    0    0 -0.15117277016E+02  0.85263498435E+01 -0.12503656091E+03  0.15588439427E+03  0.91458034677E+02 0.  0.
         23    2    1    2    0    0 -0.48716550162E+02 -0.15228763518E+02 -0.25289579829E+03  0.27746284976E+03  0.10209863225E+03 0.  0.
        -11    1    4    4    0    0 -0.69852840987E+02 -0.34184525718E+02 -0.22328257917E+03  0.23643838807E+03  0.00000000000E+00 0. -1.
         11    1    4    4    0    0  0.21136290825E+02  0.18955762201E+02 -0.29613219114E+02  0.41024461687E+02  0.00000000000E+00 0.  1.
        -11    1    3    3    0    0 -0.84972648917E+01 -0.33736044967E+02 -0.10098324411E+03  0.10680795772E+03  0.00000000000E+00 0. -1.
         11    1    3    3    0    0 -0.66200121240E+01  0.42262394810E+02 -0.24053316796E+02  0.49076436550E+02  0.00000000000E+00 0.  1.
         -4    1    1    2    0  502  0.63833827178E+02  0.67024136744E+01 -0.37297999141E+03  0.37846235458E+03  0.00000000000E+00 0.  1.
<scales pt_clust_5="13000.00000" pt_clust_6="13000.00000" pt_clust_7="13000.00000" pt_clust_8="13000.00000" pt_clust_9="64.18473"></scales>
<clustering>
<clus scale="   64.185">  2  9  1 -1</clus>
<clus scale="   91.458">  7  8 -1 -1</clus>
<clus scale="   92.364">  1  7  2 -1</clus>
<clus scale="  102.099">  5  6 -1 -1</clus>
<clus scale="   64.185">  2  5  1 -1</clus>
</clustering>
</event>
<event>
 9    1  0.1601012E-005  0.9603965E+02  0.7546771E-02  0.1289527E+00
          3   -1    0    0  502    0 -0.00000000000E+00  0.00000000000E+00  0.32377638575E+02  0.32377638575E+02  0.00000000000E+00 0. -1.
         21   -1    0    0  501  502  0.00000000000E+00 -0.00000000000E+00 -0.39402265631E+03  0.39402265631E+03  0.00000000000E+00 0. -1.
         23    2    1    2    0    0 -0.41436116678E+02  0.45408296071E+01 -0.12679933394E+03  0.16083895788E+03  0.89741452999E+02 0.  0.
         23    2    1    2    0    0  0.18715968880E+02 -0.18225957668E+01 -0.14034001656E+03  0.16832494952E+03  0.91018454369E+02 0.  0.
        -11    1    3    3    0    0 -0.70090393683E+02  0.22491354738E+01 -0.92787548351E+02  0.11630671101E+03  0.00000000000E+00 0. -1.
         11    1    3    3    0    0  0.28654277004E+02  0.22916941333E+01 -0.34011785590E+02  0.44532246874E+02  0.00000000000E+00 0.  1.
        -13    1    4    4    0    0 -0.42276680508E+01  0.42210149144E+02 -0.53323779713E+02  0.68139528548E+02  0.00000000000E+00 0.  1.
         13    1    4    4    0    0  0.22943636931E+02 -0.44032744910E+02 -0.87016236847E+02  0.10018542097E+03  0.00000000000E+00 0. -1.
          3    1    1    2  501    0  0.22720147798E+02 -0.27182338404E+01 -0.94505667236E+02  0.97236387484E+02  0.00000000000E+00 0. -1.
<scales pt_clust_5="13000.00000" pt_clust_6="13000.00000" pt_clust_7="13000.00000" pt_clust_8="13000.00000" pt_clust_9="22.88217"></scales>
<clustering>
<clus scale="   22.882">  2  9  1 -1</clus>
<clus scale="   89.741">  5  6 -1 -1</clus>
<clus scale="   91.018">  7  8 -1 -1</clus>
<clus scale="   94.830">  1  5  2 -1</clus>
<clus scale="   22.882">  2  5  1 -1</clus>
</clustering>
</event>
<event>
 9    1  0.1601012E-005  0.1257462E+03  0.7546771E-02  0.1234403E+00
         -3   -1    0    0    0  501 -0.00000000000E+00  0.00000000000E+00  0.47666212476E+03  0.47666212476E+03  0.00000000000E+00 0.  1.
         21   -1    0    0  501  502  0.00000000000E+00 -0.00000000000E+00 -0.68391750249E+02  0.68391750249E+02  0.00000000000E+00 0.  1.
         23    2    1    2    0    0  0.94643090355E+02  0.54297381565E+02  0.23416498081E+03  0.27435821167E+03  0.92377864625E+02 0.  0.
         23    2    1    2    0    0 -0.55533824615E+02  0.24947155449E+02  0.62412366790E+02  0.12827177640E+03  0.94084955495E+02 0.  0.
        -11    1    4    4    0    0  0.22299949938E+02  0.68458497880E+01  0.38224899381E+02  0.44780535495E+02  0.00000000000E+00 0. -1.
         11    1    4    4    0    0 -0.77833774553E+02  0.18101305661E+02  0.24187467409E+02  0.83491240903E+02  0.00000000000E+00 0.  1.
        -13    1    3    3    0    0  0.55209351037E+02 -0.20083318197E+02  0.93505320463E+02  0.11042942120E+03  0.00000000000E+00 0. -1.
         13    1    3    3    0    0  0.39433739317E+02  0.74380699763E+02  0.14065966035E+03  0.16392879047E+03  0.00000000000E+00 0.  1.
         -3    1    1    2    0  502 -0.39109265739E+02 -0.79244537014E+02  0.11169302691E+03  0.14242388695E+03  0.00000000000E+00 0.  1.
<scales pt_clust_5="13000.00000" pt_clust_6="13000.00000" pt_clust_7="13000.00000" pt_clust_8="13000.00000" pt_clust_9="88.36990"></scales>
<clustering>
<clus scale="   88.370">  2  9  1 -1</clus>
<clus scale="   92.378">  7  8 -1 -1</clus>
<clus scale="   94.085">  5  6 -1 -1</clus>
<clus scale="  124.474">  1  7  2 -1</clus>
<clus scale="   88.370">  2  5  1 -1</clus>
</clustering>
</event>
<event>
 9    1  0.1601012E-005  0.9429339E+02  0.7546771E-02  0.1293982E+00
          2   -1    0    0  502    0 -0.00000000000E+00  0.00000000000E+00  0.44137682712E+03  0.44137682712E+03  0.00000000000E+00 0. -1.
         21   -1    0    0  501  502  0.00000000000E+00 -0.00000000000E+00 -0.75617281852E+02  0.75617281852E+02  0.00000000000E+00 0. -1.
         23    2    1    2    0    0 -0.11190022987E+01  0.24009703705E+02  0.37942501718E+03  0.39058500993E+03  0.89529817836E+02 0.  0.
         23    2    1    2    0    0 -0.14751836987E+02 -0.68852874662E+01  0.93940467045E+01  0.93593392888E+02  0.91686701330E+02 0.  0.
        -11    1    4    4    0    0 -0.46145487096E+02  0.21236847381E+02  0.79916110376E+01  0.51422519512E+02  0.00000000000E+00 0. -1.
         11    1    4    4    0    0  0.31393650109E+02 -0.28122134847E+02  0.14024356669E+01  0.42170873376E+02  0.00000000000E+00 0.  1.
        -13    1    3    3    0    0  0.21557375283E+02 -0.24804872676E+02  0.82203294601E+02  0.88528999660E+02  0.00000000000E+00 0.  1.
         13    1    3    3    0    0 -0.22676377581E+02  0.48814576381E+02  0.29722172258E+03  0.30205601027E+03  0.00000000000E+00 0. -1.
          2    1    1    2  501    0  0.15870839286E+02 -0.17124416239E+02 -0.23059518621E+02  0.32815706151E+02  0.00000000000E+00 0. -1.
<scales pt_clust_5="13000.00000" pt_clust_6="13000.00000" pt_clust_7="13000.00000" pt_clust_8="13000.00000" pt_clust_9="23.34800"></scales>
<clustering>
<clus scale="   23.348">  2  9  1 -1</clus>
<clus scale="   89.530">  7  8 -1 -1</clus>
<clus scale="   91.687">  5  6 -1 -1</clus>
<clus scale="   92.198">  1  7  2 -1</clus>
<clus scale="   23.348">  2  5  1 -1</clus>
</clustering>
</event>
<event>
 9    1  0.1601012E-005  0.1510739E+03  0.7546771E-02  0.1217877E+00
          1   -1    0    0  502    0 -0.00000000000E+00  0.00000000000E+00  0.19022078257E+03  0.19022078257E+03  0.00000000000E+00 0. -1.
         21   -1    0    0  501  502  0.00000000000E+00 -0.00000000000E+00 -0.72911784571E+03  0.72911784571E+03  0.00000000000E+00 0. -1.
         23    2    1    2    0    0  0.37300376677E+02  0.18065673094E+02  0.14268367556E+03  0.17492654993E+03  0.92319986759E+02 0.  0.
         23    2    1    2    0    0 -0.12948147741E+03  0.50868406742E+02 -0.27139451139E+03  0.31838155860E+03  0.91426408897E+02 0.  0.
        -11    1    3    3    0    0  0.13897484879E+02 -0.21720694227E+02  0.88208201175E+00  0.25801292843E+02  0.00000000000E+00 0.  1.
         11    1    3    3    0    0  0.23402891798E+02  0.39786367321E+02  0.14180159355E+03  0.14912525709E+03  0.00000000000E+00 0. -1.
        -13    1    4    4    0    0 -0.94580239256E+02  0.18903123000E+02 -0.93620430241E+02  0.13441552989E+03  0.00000000000E+00 0. -1.
         13    1    4    4    0    0 -0.34901238158E+02  0.31965283742E+02 -0.17777408115E+03  0.18396602871E+03  0.00000000000E+00 0.  1.
          1    1    1    2  501    0  0.92181100737E+02 -0.68934079836E+02 -0.41018622730E+03  0.42603051975E+03  0.00000000000E+00 0. -1.
<scales pt_clust_5="13000.00000" pt_clust_6="13000.00000" pt_clust_7="13000.00000" pt_clust_8="13000.00000" pt_clust_9="120.26862"></scales>
<clustering>
<clus scale="   91.426">  7  8 -1 -1</clus>
<clus scale="   92.320">  5  6 -1 -1</clus>
<clus scale="  101.196">  1  5  2 -1</clus>
<clus scale="  120.269">  2  9  1 -1</clus>
<clus scale="  120.269">  2  5  1 -1</clus>
</clustering>
</event>
<event>
 9    1  0.1601012E-005  0.1996774E+03  0.7546771E-02  0.1183965E+00
          4   -1    0    0  502    0 -0.00000000000E+00  0.00000000000E+00  0.88763755183E+02  0.88763755183E+02  0.00000000000E+00 0. -1.
         21   -1    0    0  501  502  0.00000000000E+00 -0.00000000000E+00 -0.11640841596E+04  0.11640841596E+04  0.00000000000E+00 0. -1.
         23    2    1    2    0    0 -0.37494838731E+02  0.57663325632E+01 -0.10793458743E+03  0.14146737431E+03  0.83210752365E+02 0.  0.
         23    2    1    2    0    0 -0.13224023063E+03 -0.70721865291E+02 -0.59265753252E+02  0.18525351616E+03  0.91199643151E+02 0.  0.
        -11    1    3    3    0    0  0.25906040282E+02  0.27493331754E+01 -0.45525500697E+02  0.52452387646E+02  0.00000000000E+00 0.  1.
         11    1    3    3    0    0 -0.63400879013E+02  0.30169993877E+01 -0.62409086732E+02  0.89014986669E+02  0.00000000000E+00 0. -1.
        -13    1    4    4    0    0 -0.34972899433E+02  0.21454470055E+02 -0.19803937451E+02  0.45558686533E+02  0.00000000000E+00 0.  1.
         13    1    4    4    0    0 -0.97267331201E+02 -0.92176335346E+02 -0.39461815801E+02  0.13969482962E+03  0.00000000000E+00 0. -1.
          4    1    1    2  501    0  0.16973506937E+03  0.64955532728E+02 -0.90812006373E+03  0.92612702430E+03  0.00000000000E+00 0. -1.
<scales pt_clust_5="13000.00000" pt_clust_6="13000.00000" pt_clust_7="13000.00000" pt_clust_8="13000.00000" pt_clust_9="177.63355"></scales>
<clustering>
<clus scale="   83.211">  5  6 -1 -1</clus>
<clus scale="   91.200">  7  8 -1 -1</clus>
<clus scale="   91.450">  1  5  2 -1</clus>
<clus scale="  177.634">  2  9  1 -1</clus>
<clus scale="  177.634">  2  5  1 -1</clus>
</clustering>
</event>
<event>
 9    1  0.1601012E-005  0.9815959E+02  0.7546771E-02  0.1285736E+00
         21   -1    0    0  501  502  0.00000000000E+00  0.00000000000E+00  0.19901452277E+03  0.19901452277E+03  0.00000000000E+00 0.  1.
          2   -1    0    0  502    0 -0.00000000000E+00 -0.00000000000E+00 -0.20461789643E+03  0.20461789643E+03  0.00000000000E+00 0. -1.
         23    2    1    2    0    0 -0.14228356926E+02  0.43047127131E+02 -0.59807119510E+02  0.11923049737E+03  0.92647280925E+02 0.  0.
         23    2    1    2    0    0 -0.39814846678E+02  0.23971267663E+02  0.13345973631E+03  0.16738207258E+03  0.89696227997E+02 0.  0.
        -11    1    3    3    0    0  0.35604444455E+02  0.30301641483E+02 -0.46848261191E+02  0.66186294035E+02  0.00000000000E+00 0.  1.
         11    1    3    3    0    0 -0.49832801382E+02  0.12745485647E+02 -0.12958858320E+02  0.53044203330E+02  0.00000000000E+00 0. -1.
        -11    1    4    4    0    0 -0.26194111971E+02  0.57898741801E+02  0.95215739408E+02  0.11447459471E+03  0.00000000000E+00 0.  1.
         11    1    4    4    0    0 -0.13620734707E+02 -0.33927474138E+02  0.38243996903E+02  0.52907477869E+02  0.00000000000E+00 0. -1.
          2    1    1    2  501    0  0.54043203605E+02 -0.67018394793E+02 -0.79255990457E+02  0.11701984926E+03  0.00000000000E+00 0. -1.
<scales pt_clust_5="13000.00000" pt_clust_6="13000.00000" pt_clust_7="13000.00000" pt_clust_8="13000.00000" pt_clust_9="86.09379"></scales>
<clustering>
<clus scale="   86.094">  1  9  2 -1</clus>
<clus scale="   89.696">  7  8 -1 -1</clus>
<clus scale="   92.647">  5  6 -1 -1</clus>
<clus scale="   95.379">  1  7  2 -1</clus>
<clus scale="   86.094">  1  5  2 -1</clus>
</clustering>
</event>
<event>
 9    1  0.1601012E-005  0.9555211E+02  0.7546771E-02  0.1293845E+00
         21   -1    0    0  501  502  0.00000000000E+00  0.00000000000E+00  0.46111687045E+03  0.46111687045E+03  0.00000000000E+00 0. -1.
         -2   -1    0    0    0  501 -0.00000000000E+00 -0.00000000000E+00 -0.29017812861E+02  0.29017812861E+02  0.00000000000E+00 0.  1.
         23    2    1    2    0    0  0.26884090401E+02 -0.22968246032E+02  0.11112403657E+03  0.14390268875E+03  0.84315702486E+02 0.  0.
         23    2    1    2    0    0 -0.70704431409E+01  0.17561343366E+02  0.17052446834E+03  0.19438607259E+03  0.91372637963E+02 0.  0.
        -11    1    4    4    0    0  0.38353126244E+02  0.15664757887E+01  0.40833696585E+02  0.56042902458E+02  0.00000000000E+00 0.  1.
         11    1    4    4    0    0 -0.45423569385E+02  0.15994867577E+02  0.12969077175E+03  0.13834317013E+03  0.00000000000E+00 0. -1.
        -13    1    3    3    0    0  0.70936089484E+01  0.22718666130E+02  0.83788348457E+02  0.87103067775E+02  0.00000000000E+00 0.  1.
         13    1    3    3    0    0  0.19790481453E+02 -0.45686912162E+02  0.27335688108E+02  0.56799620979E+02  0.00000000000E+00 0. -1.
         -2    1    1    2    0  502 -0.19813647260E+02  0.54069026663E+01  0.15045055269E+03  0.15184592197E+03  0.00000000000E+00 0.  1.
<scales pt_clust_5="13000.00000" pt_clust_6="13000.00000" pt_clust_7="13000.00000" pt_clust_8="13000.00000" pt_clust_9="20.53814"></scales>
<clustering>
<clus scale="   20.538">  1  9  2 -1</clus>
<clus scale="   84.316">  7  8 -1 -1</clus>
<clus scale="   88.828">  2  7  1 -1</clus>
<clus scale="   91.373">  5  6 -1 -1</clus>
<clus scale="   20.538">  1  5  2 -1</clus>
</clustering>
</event>
<event>
 9    1  0.1601012E-005  0.1088079E+03  0.7546771E-02  0.1262903E+00
         -3   -1    0    0    0  501 -0.00000000000E+00  0.00000000000E+00  0.63318499961E+03  0.63318499961E+03  0.00000000000E+00 0.  1.
         21   -1    0    0  501  502  0.00000000000E+00 -0.00000000000E+00 -0.84501436429E+02  0.84501436429E+02  0.00000000000E+00 0. -1.
         23    2    1    2    0    0 -0.37927938484E+02 -0.52487696812E+02  0.31903279789E+03  0.33807076350E+03  0.91194452507E+02 0.  0.
         23    2    1    2    0    0  0.73974122274E+02 -0.34975424876E+02 -0.92516138890E+01  0.12266534310E+03  0.90916131281E+02 0.  0.
        -11    1    3    3    0    0 -0.39789322880E+01 -0.69029516205E+02  0.24997471695E+03  0.25936126373E+03  0.00000000000E+00 0. -1.
         11    1    3    3    0    0 -0.33949006196E+02  0.16541819392E+02  0.69058080943E+02  0.78709499770E+02  0.00000000000E+00 0.  1.
        -11    1    4    4    0    0  0.66244785188E+02 -0.55677492232E+02 -0.30748857429E+02  0.91835978456E+02  0.00000000000E+00 0. -1.
         11    1    4    4    0    0  0.77293370863E+01  0.20702067356E+02  0.21497243539E+02  0.30829364645E+02  0.00000000000E+00 0.  1.
         -3    1    1    2    0  502 -0.36046183790E+02  0.87463121689E+02  0.23890237918E+03  0.25695032944E+03  0.00000000000E+00 0.  1.
<scales pt_clust_5="13000.00000" pt_clust_6="13000.00000" pt_clust_7="13000.00000" pt_clust_8="13000.00000" pt_clust_9="94.59986"></scales>
<clustering>
<clus scale="   90.916">  7  8 -1 -1</clus>
<clus scale="   91.194">  5  6 -1 -1</clus>
<clus scale="   94.600">  2  9  1 -1</clus>
<clus scale="  108.575">  2  7  1 -1</clus>
<clus scale="   94.600">  2  5  1 -1</clus>
</clustering>
</event>
<event>
 9    1  0.1601012E-005  0.1610869E+03  0.7546771E-02  0.1187973E+00
          1   -1    0    0  502    0 -0.00000000000E+00  0.00000000000E+00  0.57904597386E+03  0.57904597386E+03  0.00000000000E+00 0. -1.
         21   -1    0    0  501  502  0.00000000000E+00 -0.00000000000E+00 -0.12488643771E+03  0.12488643771E+03  0.00000000000E+00 0.  1.
         23    2    1    2    0    0  0.28705116193E+02  0.11730666093E+03  0.39664789640E+03  0.42520703919E+03  0.94268955994E+02 0.  0.
         23    2    1    2    0    0 -0.28045822503E+02 -0.18161265075E+03  0.61831864991E+02  0.21427105257E+03  0.91209546482E+02 0.  0.
        -11    1    4    4    0    0 -0.34632028087E+02 -0.12100625028E+03  0.81812286559E+02  0.15011708833E+03  0.00000000000E+00 0.  1.
         11    1    4    4    0    0  0.65862055844E+01 -0.60606400476E+02 -0.19980421568E+02  0.64153964247E+02  0.00000000000E+00 0. -1.
        -11    1    3    3    0    0 -0.44316940665E+01  0.11265073014E+03  0.24187706088E+03  0.26686014969E+03  0.00000000000E+00 0. -1.
         11    1    3    3    0    0  0.33136810260E+02  0.46559307853E+01  0.15477083552E+03  0.15834688950E+03  0.00000000000E+00 0.  1.
          1    1    1    2  501    0 -0.65929369086E+00  0.64305989824E+02 -0.43202252433E+01  0.64454319806E+02  0.00000000000E+00 0. -1.
<scales pt_clust_5="13000.00000" pt_clust_6="13000.00000" pt_clust_7="13000.00000" pt_clust_8="13000.00000" pt_clust_9="64.30937"></scales>
<clustering>
<clus scale="   64.309">  2  9  1 -1</clus>
<clus scale="   91.210">  5  6 -1 -1</clus>
<clus scale="   94.269">  7  8 -1 -1</clus>
<clus scale="  159.316">  2  5  1 -1</clus>
<clus scale="   64.309">  2  5  1 -1</clus>
</clustering>
</event>
<event>
 9    1  0.1601012E-005  0.1341182E+03  0.7546771E-02  0.1222178E+00
         21   -1    0    0  501  502  0.00000000000E+00  0.00000000000E+00  0.11926199186E+03  0.11926199186E+03  0.00000000000E+00 0. -1.
          1   -1    0    0  502    0 -0.00000000000E+00 -0.00000000000E+00 -0.24156593530E+03  0.24156593530E+03  0.00000000000E+00 0. -1.
         23    2    1    2    0    0  0.15224726413E+02  0.12267288328E+03 -0.91167163073E+02  0.17602730992E+03  0.85986822418E+02 0.  0.
         23    2    1    2    0    0  0.21146896153E+02 -0.70830675867E+02 -0.35921597002E+01  0.11574111011E+03  0.88988342484E+02 0.  0.
        -11    1    3    3    0    0  0.76671803268E+01  0.21584484771E+02  0.16437821417E+02  0.28193573912E+02  0.00000000000E+00 0.  1.
         11    1    3    3    0    0  0.75575460863E+01  0.10108839851E+03 -0.10760498449E+03  0.14783373601E+03  0.00000000000E+00 0. -1.
        -11    1    4    4    0    0  0.16110373249E+02 -0.91563282712E+02  0.41028601246E+01  0.93060261811E+02  0.00000000000E+00 0. -1.
         11    1    4    4    0    0  0.50365229042E+01  0.20732606845E+02 -0.76950198248E+01  0.22680848301E+02  0.00000000000E+00 0.  1.
          1    1    1    2  501    0 -0.36371622566E+02 -0.51842207410E+02 -0.27544620658E+02  0.69059507126E+02  0.00000000000E+00 0. -1.
<scales pt_clust_5="13000.00000" pt_clust_6="13000.00000" pt_clust_7="13000.00000" pt_clust_8="13000.00000" pt_clust_9="63.32861"></scales>
<clustering>
<clus scale="   63.329">  1  9  2 -1</clus>
<clus scale="   85.987">  5  6 -1 -1</clus>
<clus scale="   88.988">  7  8 -1 -1</clus>
<clus scale="  132.146">  2  5  1 -1</clus>
<clus scale="   63.329">  1  5  2 -1</clus>
</clustering>
</event>
<event>
 9    1  0.1601012E-005  0.1135415E+03  0.7546771E-02  0.1254688E+00
         21   -1    0    0  501  502  0.00000000000E+00  0.00000000000E+00  0.94003400518E+02  0.94003400518E+02  0.00000000000E+00 0. -1.
          2   -1    0    0  502    0 -0.00000000000E+00 -0.00000000000E+00 -0.47331553962E+03  0.47331553962E+03  0.00000000000E+00 0. -1.
         23    2    1    2    0    0  0.55530577487E+02  0.40031012860E+02 -0.25127806552E+03  0.27669555443E+03  0.93453927697E+02 0.  0.
         23    2    1    2    0    0 -0.35564142833E+02 -0.50516856628E+02 -0.19261851844E+03  0.22221460010E+03  0.91981921015E+02 0.  0.
        -11    1    4    4    0    0 -0.32485857895E+02  0.21268429669E+02 -0.72644808702E+02  0.82370779376E+02  0.00000000000E+00 0. -1.
         11    1    4    4    0    0 -0.30782849379E+01 -0.71785286297E+02 -0.11997370974E+03  0.13984382072E+03  0.00000000000E+00 0.  1.
        -11    1    3    3    0    0  0.39116453116E+02  0.53077309176E+02 -0.24653352562E+03  0.25519811306E+03  0.00000000000E+00 0. -1.
         11    1    3    3    0    0  0.16414124371E+02 -0.13046296315E+02 -0.47445398944E+01  0.21497441365E+02  0.00000000000E+00 0.  1.
          2    1    1    2  501    0 -0.19966434654E+02  0.10485843768E+02  0.64584444851E+02  0.68408785613E+02  0.00000000000E+00 0. -1.
<scales pt_clust_5="13000.00000" pt_clust_6="13000.00000" pt_clust_7="13000.00000" pt_clust_8="13000.00000" pt_clust_9="22.55242"></scales>
<clustering>
<clus scale="   22.552">  1  9  2 -1</clus>
<clus scale="   91.982">  5  6 -1 -1</clus>
<clus scale="   93.454">  7  8 -1 -1</clus>
<clus scale="  112.333">  1  5  2 -1</clus>
<clus scale="   22.552">  1  5  2 -1</clus>
</clustering>
</event>
<event>
 9    1  0.1601012E-005  0.1463571E+03  0.7546771E-02  0.1207503E+00
         21   -1    0    0  501  502  0.00000000000E+00  0.00000000000E+00  0.16304781600E+03  0.16304781600E+03  0.00000000000E+00 0.  1.
         -3   -1    0    0    0  501 -0.00000000000E+00 -0.00000000000E+00 -0.29617372786E+03  0.29617372786E+03  0.00000000000E+00 0.  1.
         23    2    1    2    0    0  0.41742312443E+02 -0.98943118745E+02 -0.11516426923E+03  0.17595620950E+03  0.78521445222E+02 0.  0.
         23    2    1    2    0    0 -0.11601758975E+02  0.12683400572E+03 -0.10390573603E+03  0.18801439352E+03  0.91277293848E+02 0.  0.
        -13    1    3    3    0    0  0.40358676488E+02 -0.45542408202E+02 -0.10532351012E+03  0.12163870887E+03  0.00000000000E+00 0.  1.
         13    1    3    3    0    0  0.13836359551E+01 -0.53400710543E+02 -0.98407591168E+01  0.54317500632E+02  0.00000000000E+00 0. -1.
        -13    1    4    4    0    0  0.27649387707E+02  0.74028251080E+01 -0.32989299363E+02  0.43675901051E+02  0.00000000000E+00 0.  1.
         13    1    4    4    0    0 -0.39251146682E+02  0.11943118062E+03 -0.70916436664E+02  0.14433849247E+03  0.00000000000E+00 0. -1.
         -3    1    1    2    0  502 -0.30140553467E+02 -0.27890886979E+02  0.85944093398E+02  0.95250940834E+02  0.00000000000E+00 0.  1.
<scales pt_clust_5="13000.00000" pt_clust_6="13000.00000" pt_clust_7="13000.00000" pt_clust_8="13000.00000" pt_clust_9="41.06525"></scales>
<clustering>
<clus scale="   41.065">  1  9  2 -1</clus>
<clus scale="   78.521">  5  6 -1 -1</clus>
<clus scale="   91.277">  7  8 -1 -1</clus>
<clus scale="  138.760">  2  5  1 -1</clus>
<clus scale="   41.065">  1  5  2 -1</clus>
</clustering>
</event>
<event>
 9    1  0.1601012E-005  0.1306044E+03  0.7546771E-02  0.1226927E+00
         21   -1    0    0  501  502  0.00000000000E+00  0.00000000000E+00  0.53371963609E+02  0.53371963609E+02  0.00000000000E+00 0. -1.
         -4   -1    0    0    0  501 -0.00000000000E+00 -0.00000000000E+00 -0.50029886638E+03  0.50029886638E+03  0.00000000000E+00 0. -1.
         23    2    1    2    0    0 -0.86868449278E+02 -0.21848275419E+02 -0.33877513691E+03  0.36361754548E+03  0.97085793873E+02 0.  0.
         23    2    1    2    0    0  0.78943960255E+02 -0.69796756800E+01 -0.85803803380E+02  0.15272662222E+03  0.98398494537E+02 0.  0.
        -13    1    3    3    0    0  0.11028324557E+02  0.20405997934E+02 -0.90281363301E+02  0.93213482146E+02  0.00000000000E+00 0.  1.
         13    1    3    3    0    0 -0.97896773835E+02 -0.42254273353E+02 -0.24849377361E+03  0.27040406333E+03  0.00000000000E+00 0. -1.
        -13    1    4    4    0    0 -0.13400094386E+02  0.24738471272E+02 -0.25464591129E+02  0.37947330496E+02  0.00000000000E+00 0. -1.
         13    1    4    4    0    0  0.92344054642E+02 -0.31718146952E+02 -0.60339212252E+02  0.11477929173E+03  0.00000000000E+00 0.  1.
         -4    1    1    2    0  502  0.79244890224E+01  0.28827951099E+02 -0.22347962483E+02  0.37326662293E+02  0.00000000000E+00 0. -1.
<scales pt_clust_5="13000.00000" pt_clust_6="13000.00000" pt_clust_7="13000.00000" pt_clust_8="13000.00000" pt_clust_9="29.89730"></scales>
<clustering>
<clus scale="   29.897">  1  9  2 -1</clus>
<clus scale="   97.086">  5  6 -1 -1</clus>
<clus scale="   98.398">  7  8 -1 -1</clus>
<clus scale="  129.618">  2  5  1 -1</clus>
<clus scale="   29.897">  1  5  2 -1</clus>
</clustering>
</event>
<event>
 9    1  0.1601012E-005  0.9841142E+02  0.7546771E-02  0.1284248E+00
         21   -1    0    0  501  502  0.00000000000E+00  0.00000000000E+00  0.30093402407E+03  0.30093402407E+03  0.00000000000E+00 0.  1.
         -1   -1    0    0    0  501 -0.00000000000E+00 -0.00000000000E+00 -0.43163252965E+03  0.43163252965E+03  0.00000000000E+00 0.  1.
         23    2    1    2    0    0 -0.21619880458E+02 -0.23753928694E+02 -0.23297427153E+03  0.25212690738E+03  0.90880679296E+02 0.  0.
         23    2    1    2    0    0 -0.68175747567E+01  0.55790775807E+02 -0.17246955662E+03  0.20237483248E+03  0.89725887408E+02 0.  0.
        -11    1    4    4    0    0 -0.27397402322E+02  0.38618303159E+02 -0.27103076944E+02  0.54557930429E+02  0.00000000000E+00 0. -1.
         11    1    4    4    0    0  0.20579827565E+02  0.17172472648E+02 -0.14536647967E+03  0.14781690205E+03  0.00000000000E+00 0.  1.
        -11    1    3    3    0    0  0.23660488942E+02 -0.41487217207E+02 -0.11494227867E+03  0.12446981704E+03  0.00000000000E+00 0.  1.
         11    1    3    3    0    0 -0.45280369399E+02  0.17733288513E+02 -0.11803199286E+03  0.12765709033E+03  0.00000000000E+00 0. -1.
         -1    1    1    2    0  502  0.28437455214E+02 -0.32036847113E+02  0.27474532257E+03  0.27806481385E+03  0.00000000000E+00 0.  1.
<scales pt_clust_5="13000.00000" pt_clust_6="13000.00000" pt_clust_7="13000.00000" pt_clust_8="13000.00000" pt_clust_9="42.83747"></scales>
<clustering>
<clus scale="   42.837">  1  9  2 -1</clus>
<clus scale="   89.726">  5  6 -1 -1</clus>
<clus scale="   90.881">  7  8 -1 -1</clus>
<clus scale="   97.346">  1  5  2 -1</clus>
<clus scale="   42.837">  1  5  2 -1</clus>
</clustering>
</event>
<event>
 9    1  0.1601012E-005  0.1496717E+03  0.7546771E-02  0.1201051E+00
         21   -1    0    0  501  502  0.00000000000E+00  0.00000000000E+00  0.91296076658E+02  0.91296076658E+02  0.00000000000E+00 0.  1.
         -1   -1    0    0    0  501 -0.00000000000E+00 -0.00000000000E+00 -0.40771957599E+03  0.40771957599E+03  0.00000000000E+00 0.  1.
         23    2    1    2    0    0 -0.92209896055E+02 -0.63072744894E+02 -0.12252380630E+03  0.18856449573E+03  0.89797827717E+02 0.  0.
         23    2    1    2    0    0  0.59681759688E+02  0.12599888426E+03 -0.10471170686E+03  0.19655525905E+03  0.90729251258E+02 0.  0.
        -11    1    3    3    0    0 -0.10142405060E+03 -0.25601876649E+02 -0.85740830125E+02  0.13525451593E+03  0.00000000000E+00 0.  1.
         11    1    3    3    0    0  0.92141545437E+01 -0.37470868246E+02 -0.36782976172E+02  0.53309979808E+02  0.00000000000E+00 0. -1.
        -13    1    4    4    0    0  0.28164848257E+02  0.58019308370E+02 -0.10309664011E+03  0.12160763144E+03  0.00000000000E+00 0.  1.
         13    1    4    4    0    0  0.31516911431E+02  0.67979575890E+02 -0.16150667419E+01  0.74947627614E+02  0.00000000000E+00 0. -1.
         -1    1    1    2    0  502  0.32528136367E+02 -0.62926139366E+02 -0.89187986175E+02  0.11389589786E+03  0.00000000000E+00 0.  1.
<scales pt_clust_5="13000.00000" pt_clust_6="13000.00000" pt_clust_7="13000.00000" pt_clust_8="13000.00000" pt_clust_9="70.83632"></scales>
<clustering>
<clus scale="   70.836">  1  9  2 -1</clus>
<clus scale="   89.798">  5  6 -1 -1</clus>
<clus scale="   90.729">  7  8 -1 -1</clus>
<clus scale="  149.109">  2  5  1 -1</clus>
<clus scale="   70.836">  1  5  2 -1</clus>
</clustering>
</event>
<event>
 9    1  0.1601012E-005  0.3302117E+03  0.7546771E-02  0.1107836E+00
         21   -1    0    0  501  502  0.00000000000E+00  0.00000000000E+00  0.13219204426E+04  0.13219204426E+04  0.00000000000E+00 0. -1.
          2   -1    0    0  502    0 -0.00000000000E+00 -0.00000000000E+00 -0.19211261814E+03  0.19211261814E+03  0.00000000000E+00 0. -1.
         23    2    1    2    0    0  0.16545500446E+02 -0.82543360995E+02 -0.39802136731E+02  0.13088529328E+03  0.91976028825E+02 0.  0.
         23    2    1    2    0    0  0.28219815867E+03  0.17955617016E+03  0.29977397988E+03  0.45833757429E+03  0.91283481482E+02 0.  0.
        -13    1    4    4    0    0  0.10974772240E+03  0.12211089008E+03  0.12712391099E+03  0.20764421686E+03  0.00000000000E+00 0. -1.
         13    1    4    4    0    0  0.17245043628E+03  0.57445280085E+02  0.17265006889E+03  0.25069335744E+03  0.00000000000E+00 0.  1.
        -13    1    3    3    0    0 -0.31551568909E+02 -0.36474140177E+02  0.80252994220E+01  0.48890385896E+02  0.00000000000E+00 0. -1.
         13    1    3    3    0    0  0.48097069355E+02 -0.46069220818E+02 -0.47827436153E+02  0.81994907381E+02  0.00000000000E+00 0.  1.
          2    1    1    2  501    0 -0.29874365912E+03 -0.97012809169E+02  0.86983598131E+03  0.92481019317E+03  0.00000000000E+00 0. -1.
<scales pt_clust_5="13000.00000" pt_clust_6="13000.00000" pt_clust_7="13000.00000" pt_clust_8="13000.00000" pt_clust_9="317.34377"></scales>
<clustering>
<clus scale="   91.283">  5  6 -1 -1</clus>
<clus scale="   91.976">  7  8 -1 -1</clus>
<clus scale="  124.687">  2  7  1 -1</clus>
<clus scale="  317.344">  1  9  2 -1</clus>
<clus scale="  317.344">  1  5  2 -1</clus>
</clustering>
</event>
<event>
 9    1  0.2361269E-005  0.1047004E+03  0.7546771E-02  0.1271715E+00
          2   -1    0    0  502    0 -0.00000000000E+00  0.00000000000E+00  0.36344160413E+03  0.36344160413E+03  0.00000000000E+00 0. -1.
         21   -1    0    0  501  502  0.00000000000E+00 -0.00000000000E+00 -0.11265945210E+03  0.11265945210E+03  0.00000000000E+00 0. -1.
         23    2    1    2    0    0  0.41380749010E+02  0.10483179833E+02  0.27738536123E+03  0.29599675895E+03  0.94070076205E+02 0.  0.
         23    2    1    2    0    0 -0.74735862267E+02 -0.27013376944E+02 -0.54970044613E+02  0.13330164406E+03  0.91828377215E+02 0.  0.
        -13    1    4    4    0    0 -0.35067533518E+02 -0.56773424469E+02 -0.50155658880E+02  0.83477803940E+02  0.00000000000E+00 0. -1.
         13    1    4    4    0    0 -0.39668328749E+02  0.29760047525E+02 -0.48143857331E+01  0.49823840121E+02  0.00000000000E+00 0.  1.
        -13    1    3    3    0    0  0.12742093724E+02 -0.39317246276E+02  0.75212067726E+02  0.85819939051E+02  0.00000000000E+00 0.  1.
         13    1    3    3    0    0  0.28638655286E+02  0.49800426109E+02  0.20217329350E+03  0.21017681990E+03  0.00000000000E+00 0. -1.
          2    1    1    2  501    0  0.33355113257E+02  0.16530197111E+02  0.28366835422E+02  0.46802653224E+02  0.00000000000E+00 0. -1.
<scales pt_clust_5="13000.00000" pt_clust_6="13000.00000" pt_clust_7="13000.00000" pt_clust_8="13000.00000" pt_clust_9="37.22650"></scales>
<clustering>
<clus scale="   37.227">  2  9  1 -1</clus>
<clus scale="   91.828">  5  6 -1 -1</clus>
<clus scale="   94.070">  7  8 -1 -1</clus>
<clus scale="  102.691">  2  5  1 -1</clus>
<clus scale="   37.227">  2  5  1 -1</clus>
</clustering>
</event>
<event>
 9    1  0.1601012E-005  0.1458717E+03  0.7546771E-02  0.1205841E+00
         -3   -1    0    0    0  501 -0.00000000000E+00  0.00000000000E+00  0.20228265268E+03  0.20228265268E+03  0.00000000000E+00 0.  1.
         21   -1    0    0  501  502  0.00000000000E+00 -0.00000000000E+00 -0.17874097592E+03  0.17874097592E+03  0.00000000000E+00 0. -1.
         23    2    1    2    0    0 -0.20448829837E+02 -0.10859608351E+03  0.88383751043E+02  0.16882585709E+03  0.92082672530E+02 0.  0.
         23    2    1    2    0    0  0.53628532154E+02  0.10640893642E+03 -0.14538250668E+02  0.15189726629E+03  0.93072754143E+02 0.  0.
        -11    1    3    3    0    0  0.13204937582E+01 -0.11336781887E+03  0.48868048628E+02  0.12345886860E+03  0.00000000000E+00 0.  1.
         11    1    3    3    0    0 -0.21769323595E+02  0.47717353578E+01  0.39515702415E+02  0.45366988499E+02  0.00000000000E+00 0. -1.
        -11    1    4    4    0    0 -0.20352557591E+02  0.27788964684E+02 -0.26252131940E+02  0.43308516369E+02  0.00000000000E+00 0.  1.
         11    1    4    4    0    0  0.73981089745E+02  0.78619971735E+02  0.11713881273E+02  0.10858874992E+03  0.00000000000E+00 0. -1.
         -3    1    1    2    0  502 -0.33179702318E+02  0.21871470894E+01 -0.50303823611E+02  0.60300505207E+02  0.00000000000E+00 0.  1.
<scales pt_clust_5="13000.00000" pt_clust_6="13000.00000" pt_clust_7="13000.00000" pt_clust_8="13000.00000" pt_clust_9="33.25171"></scales>
<clustering>
<clus scale="   33.252">  2  9  1 -1</clus>
<clus scale="   92.083">  5  6 -1 -1</clus>
<clus scale="   93.073">  7  8 -1 -1</clus>
<clus scale="  145.242">  1  5  2 -1</clus>
<clus scale="   33.252">  2  5  1 -1</clus>
</clustering>
</event>
<event>
 9    1  0.1601012E-005  0.1300701E+03  0.7546771E-02  0.1230559E+00
         -2   -1    0    0    0  501 -0.00000000000E+00  0.00000000000E+00  0.21326015596E+03  0.21326015596E+03  0.00000000000E+00 0.  1.
         21   -1    0    0  501  502  0.00000000000E+00 -0.00000000000E+00 -0.23572301203E+03  0.23572301203E+03  0.00000000000E+00 0.  1.
         23    2    1    2    0    0  0.20596963048E+02 -0.82679742652E+02  0.14786350204E+03  0.19815415357E+03  0.10070391555E+03 0.  0.
         23    2    1    2    0    0 -0.45823929726E+02  0.61409338704E+02 -0.53637807265E+02  0.12956464278E+03  0.89660709754E+02 0.  0.
        -11    1    4    4    0    0  0.20750076860E+02  0.14444093390E+02  0.89574454714E+01  0.26822254807E+02  0.00000000000E+00 0. -1.
         11    1    4    4    0    0 -0.66574006586E+02  0.46965245314E+02 -0.62595252737E+02  0.10274238797E+03  0.00000000000E+00 0.  1.
        -13    1    3    3    0    0 -0.33966981545E+02 -0.39167927136E+02  0.10264860656E+03  0.11499834251E+03  0.00000000000E+00 0.  1.
         13    1    3    3    0    0  0.54563944593E+02 -0.43511815516E+02  0.45214895483E+02  0.83155811057E+02  0.00000000000E+00 0. -1.
         -2    1    1    2    0  502  0.25226966678E+02  0.21270403948E+02 -0.11668855084E+03  0.12126437164E+03  0.00000000000E+00 0.  1.
<scales pt_clust_5="13000.00000" pt_clust_6="13000.00000" pt_clust_7="13000.00000" pt_clust_8="13000.00000" pt_clust_9="32.99742"></scales>
<clustering>
<clus scale="   32.997">  2  9  1 -1</clus>
<clus scale="   89.661">  5  6 -1 -1</clus>
<clus scale="  100.704">  7  8 -1 -1</clus>
<clus scale="  121.721">  2  5  1 -1</clus>
<clus scale="   32.997">  2  5  1 -1</clus>
</clustering>
</event>
<event>
 9    1  0.1601012E-005  0.9658520E+02  0.7546771E-02  0.1289680E+00
          1   -1    0    0  502    0 -0.00000000000E+00  0.00000000000E+00  0.52331541385E+03  0.52331541385E+03  0.00000000000E+00 0. -1.
         21   -1    0    0  501  502  0.00000000000E+00 -0.00000000000E+00 -0.85845817827E+02  0.85845817827E+02  0.00000000000E+00 0. -1.
         23    2    1    2    0    0  0.21215938894E+02 -0.49634775357E+01  0.34645800315E+03  0.35986841020E+03  0.94854480876E+02 0.  0.
         23    2    1    2    0    0  0.24083692504E+02  0.46148360401E+01 -0.45977065751E+02  0.10500813501E+03  0.91167411325E+02 0.  0.
        -13    1    3    3    0    0  0.21515477832E+02  0.42802244077E+02  0.20648964300E+03  0.21197386761E+03  0.00000000000E+00 0.  1.
         13    1    3    3    0    0 -0.29953893820E+00 -0.47765721612E+02  0.13996836016E+03  0.14789454259E+03  0.00000000000E+00 0. -1.
        -13    1    4    4    0    0  0.32707860110E+02  0.29762451318E+02  0.79060853047E+01  0.44923421578E+02  0.00000000000E+00 0. -1.
         13    1    4    4    0    0 -0.86241676060E+01 -0.25147615277E+02 -0.53883151055E+02  0.60084713436E+02  0.00000000000E+00 0.  1.
          1    1    1    2  501    0 -0.45299631397E+02  0.34864149559E+00  0.13698865862E+03  0.14428468646E+03  0.00000000000E+00 0. -1.
<scales pt_clust_5="13000.00000" pt_clust_6="13000.00000" pt_clust_7="13000.00000" pt_clust_8="13000.00000" pt_clust_9="45.30100"></scales>
<clustering>
<clus scale="   45.301">  2  9  1 -1</clus>
<clus scale="   91.167">  7  8 -1 -1</clus>
<clus scale="   92.967">  2  7  1 -1</clus>
<clus scale="   94.854">  5  6 -1 -1</clus>
<clus scale="   45.301">  2  5  1 -1</clus>
</clustering>
</event>
<event>
 9    1  0.1601012E-005  0.9743678E+02  0.7546771E-02  0.1287770E+00
         21   -1    0    0  501  502  0.00000000000E+00  0.00000000000E+00  0.11557130208E+03  0.11557130208E+03  0.00000000000E+00 0.  1.
         -4   -1    0    0    0  501 -0.00000000000E+00 -0.00000000000E+00 -0.39206882975E+03  0.39206882975E+03  0.00000000000E+00 0.  1.
         23    2    1    2    0    0  0.14138049023E+02  0.34690404728E+02 -0.32351839830E+03  0.33739992590E+03  0.88154678557E+02 0.  0.
         23    2    1    2    0    0 -0.19955388626E+02  0.76168315945E+01 -0.14331272198E+02  0.95488422567E+02  0.91958794157E+02 0.  0.
        -11    1    4    4    0    0 -0.23560285526E+01  0.48974445650E+02 -0.12017705450E+02  0.50482397343E+02  0.00000000000E+00 0.  1.
         11    1    4    4    0    0 -0.17599360073E+02 -0.41357614055E+02 -0.23135667481E+01  0.45006025224E+02  0.00000000000E+00 0. -1.
        -11    1    3    3    0    0  0.45347813662E+02  0.43635159009E+02 -0.19866716044E+03  0.20839647776E+03  0.00000000000E+00 0.  1.
         11    1    3    3    0    0 -0.31209764639E+02 -0.89447542812E+01 -0.12485123786E+03  0.12900344814E+03  0.00000000000E+00 0. -1.
         -4    1    1    2    0  502  0.58173396024E+01 -0.42307236323E+02  0.61352142828E+02  0.74751783356E+02  0.00000000000E+00 0.  1.
<scales pt_clust_5="13000.00000" pt_clust_6="13000.00000" pt_clust_7="13000.00000" pt_clust_8="13000.00000" pt_clust_9="42.70531"></scales>
<clustering>
<clus scale="   42.705">  1  9  2 -1</clus>
<clus scale="   88.155">  7  8 -1 -1</clus>
<clus scale="   91.959">  5  6 -1 -1</clus>
<clus scale="   93.855">  2  7  1 -1</clus>
<clus scale="   42.705">  1  5  2 -1</clus>
</clustering>
</event>
<event>
 9    1  0.1601012E-005  0.1666028E+03  0.7546771E-02  0.1206837E+00
         21   -1    0    0  501  502  0.00000000000E+00  0.00000000000E+00  0.65025195878E+03  0.65025195878E+03  0.00000000000E+00 0. -1.
          1   -1    0    0  502    0 -0.00000000000E+00 -0.00000000000E+00 -0.15772882847E+03  0.15772882847E+03  0.00000000000E+00 0. -1.
         23    2    1    2    0    0  0.52724396038E+01 -0.25443109452E+02 -0.99315018573E+02  0.13772948405E+03  0.91819319451E+02 0.  0.
         23    2    1    2    0    0  0.99603996662E+02  0.10609933462E+03  0.41693785562E+03  0.45094647853E+03  0.91310054725E+02 0.  0.
        -11    1    3    3    0    0  0.13280814851E+02  0.33063836762E+02 -0.29260137620E+02  0.46105888974E+02  0.00000000000E+00 0.  1.
         11    1    3    3    0    0 -0.80083752467E+01 -0.58506946214E+02 -0.70054880953E+02  0.91623595076E+02  0.00000000000E+00 0. -1.
        -13    1    4    4    0    0  0.11675523294E+03  0.85670513217E+02  0.36143260279E+03  0.38936454335E+03  0.00000000000E+00 0. -1.
         13    1    4    4    0    0 -0.17151236279E+02  0.20428821401E+02  0.55505252822E+02  0.61581935181E+02  0.00000000000E+00 0.  1.
          1    1    1    2  501    0 -0.10487643627E+03 -0.80656225167E+02  0.17490029326E+03  0.21930482467E+03  0.00000000000E+00 0. -1.
<scales pt_clust_5="13000.00000" pt_clust_6="13000.00000" pt_clust_7="13000.00000" pt_clust_8="13000.00000" pt_clust_9="139.35198"></scales>
<clustering>
<clus scale="   91.310">  7  8 -1 -1</clus>
<clus scale="   91.819">  5  6 -1 -1</clus>
<clus scale="   95.425">  2  5  1 -1</clus>
<clus scale="  139.352">  1  9  2 -1</clus>
<clus scale="  139.352">  1  5  2 -1</clus>
</clustering>
</event>
<event>
 9    1  0.1601012E-005  0.1090042E+03  0.7546771E-02  0.1262528E+00
         21   -1    0    0  501  502  0.00000000000E+00  0.00000000000E+00  0.56920119405E+03  0.56920119405E+03  0.00000000000E+00 0.  1.
          3   -1    0    0  502    0 -0.00000000000E+00 -0.00000000000E+00 -0.28649675172E+02  0.28649675172E+02  0.00000000000E+00 0. -1.
         23    2    1    2    0    0  0.16037863277E+02 -0.52226174903E+02  0.14708354880E+03  0.18277729620E+03  0.93750644136E+02 0.  0.
         23    2    1    2    0    0  0.39323303036E+01  0.58685797484E+02  0.32012027580E+03  0.33878189844E+03  0.94003710985E+02 0.  0.
        -11    1    3    3    0    0  0.39817571676E+02 -0.44548739741E+02  0.14601405444E+03  0.15776607151E+03  0.00000000000E+00 0.  1.
         11    1    3    3    0    0 -0.23779708399E+02 -0.76774351617E+01  0.10694943586E+01  0.25011224688E+02  0.00000000000E+00 0. -1.
        -13    1    4    4    0    0 -0.20077615673E+02  0.19288061512E+01  0.98427324457E+01  0.22443491847E+02  0.00000000000E+00 0. -1.
         13    1    4    4    0    0  0.24009945976E+02  0.56756991333E+02  0.31027754336E+03  0.31633840659E+03  0.00000000000E+00 0.  1.
          3    1    1    2  501    0 -0.19970193580E+02 -0.64596225813E+01  0.73347694281E+02  0.76291674590E+02  0.00000000000E+00 0. -1.
<scales pt_clust_5="13000.00000" pt_clust_6="13000.00000" pt_clust_7="13000.00000" pt_clust_8="13000.00000" pt_clust_9="20.98893"></scales>
<clustering>
<clus scale="   20.989">  1  9  2 -1</clus>
<clus scale="   93.751">  5  6 -1 -1</clus>
<clus scale="   94.004">  7  8 -1 -1</clus>
<clus scale="  108.786">  2  5  1 -1</clus>
<clus scale="   20.989">  1  5  2 -1</clus>
</clustering>
</event>
<event>
 9    1  0.1601012E-005  0.1010855E+03  0.7546771E-02  0.1278945E+00
         21   -1    0    0  501  502  0.00000000000E+00  0.00000000000E+00  0.26596825691E+03  0.26596825691E+03  0.00000000000E+00 0.  1.
          2   -1    0    0  502    0 -0.00000000000E+00 -0.00000000000E+00 -0.51460338893E+02  0.51460338893E+02  0.00000000000E+00 0. -1.
         23    2    1    2    0    0  0.65760851220E+01  0.48978822253E+02  0.75494204662E+02  0.12956076053E+03  0.92975511870E+02 0.  0.
         23    2    1    2    0    0 -0.11983966245E+02 -0.28174286607E+02  0.79876155219E+02  0.12494467051E+03  0.91069010330E+02 0.  0.
        -11    1    3    3    0    0  0.20467878203E+02  0.86432812000E+01 -0.16819455363E+02  0.27866367304E+02  0.00000000000E+00 0. -1.
         11    1    3    3    0    0 -0.13891793081E+02  0.40335541053E+02  0.92313660025E+02  0.10169439323E+03  0.00000000000E+00 0.  1.
        -11    1    4    4    0    0  0.89154000376E+01  0.30091827773E+02  0.13444149921E+02  0.34143046491E+02  0.00000000000E+00 0. -1.
         11    1    4    4    0    0 -0.20899366282E+02 -0.58266114380E+02  0.66432005298E+02  0.90801624015E+02  0.00000000000E+00 0.  1.
          2    1    1    2  501    0  0.54078811229E+01 -0.20804535647E+02  0.59137558136E+02  0.62923164764E+02  0.00000000000E+00 0. -1.
<scales pt_clust_5="13000.00000" pt_clust_6="13000.00000" pt_clust_7="13000.00000" pt_clust_8="13000.00000" pt_clust_9="21.49590"></scales>
<clustering>
<clus scale="   21.496">  1  9  2 -1</clus>
<clus scale="   91.069">  7  8 -1 -1</clus>
<clus scale="   92.976">  5  6 -1 -1</clus>
<clus scale="   99.335">  1  7  2 -1</clus>
<clus scale="   21.496">  1  5  2 -1</clus>
</clustering>
</event>
<event>
 9    1  0.1601012E-005  0.1125257E+03  0.7546771E-02  0.1256297E+00
         -4   -1    0    0    0  501 -0.00000000000E+00  0.00000000000E+00  0.30807139276E+03  0.30807139276E+03  0.00000000000E+00 0.  1.
         21   -1    0    0  501  502  0.00000000000E+00 -0.00000000000E+00 -0.12485693985E+03  0.12485693985E+03  0.00000000000E+00 0.  1.
         23    2    1    2    0    0 -0.70914191136E+02  0.83642012863E+01  0.19197030219E+03  0.22404168631E+03  0.90792609354E+02 0.  0.
         23    2    1    2    0    0  0.51915689048E+02 -0.17904215941E+02  0.69697100560E+02  0.12760429705E+03  0.91702623094E+02 0.  0.
        -11    1    3    3    0    0 -0.71860450615E+02 -0.12984905062E+02  0.73316060471E+02  0.10347838830E+03  0.00000000000E+00 0. -1.
         11    1    3    3    0    0  0.94625947905E+00  0.21349106349E+02  0.11865424172E+03  0.12056329801E+03  0.00000000000E+00 0.  1.
        -13    1    4    4    0    0  0.68712055130E+02  0.11811497144E+02  0.31887320733E+02  0.76665893385E+02  0.00000000000E+00 0.  1.
         13    1    4    4    0    0 -0.16796366082E+02 -0.29715713085E+02  0.37809779827E+02  0.50938403668E+02  0.00000000000E+00 0. -1.
         -4    1    1    2    0  502  0.18998502087E+02  0.95400146551E+01 -0.78452949839E+02  0.81282349250E+02  0.00000000000E+00 0.  1.
<scales pt_clust_5="13000.00000" pt_clust_6="13000.00000" pt_clust_7="13000.00000" pt_clust_8="13000.00000" pt_clust_9="21.25923"></scales>
<clustering>
<clus scale="   21.259">  2  9  1 -1</clus>
<clus scale="   90.793">  5  6 -1 -1</clus>
<clus scale="   91.703">  7  8 -1 -1</clus>
<clus scale="  111.785">  1  5  2 -1</clus>
<clus scale="   21.259">  2  5  1 -1</clus>
</clustering>
</event>
<event>
 9    1  0.1601012E-005  0.9831874E+02  0.7546771E-02  0.1284240E+00
         -2   -1    0    0    0  501 -0.00000000000E+00  0.00000000000E+00  0.43060814150E+03  0.43060814150E+03  0.00000000000E+00 0.  1.
         21   -1    0    0  501  502  0.00000000000E+00 -0.00000000000E+00 -0.32112298614E+02  0.32112298614E+02  0.00000000000E+00 0. -1.
         23    2    1    2    0    0 -0.17273283737E+01 -0.76343709626E+01  0.23481234762E+03  0.25392138337E+03  0.96322183591E+02 0.  0.
         23    2    1    2    0    0  0.22331139283E+02  0.21572089706E+02  0.14701605390E+03  0.17885610049E+03  0.97014172892E+02 0.  0.
        -13    1    3    3    0    0  0.46584550491E+02 -0.78602101201E+01  0.13508538716E+03  0.14310822853E+03  0.00000000000E+00 0.  1.
         13    1    3    3    0    0 -0.48311878865E+02  0.22583915747E+00  0.99726960458E+02  0.11081315484E+03  0.00000000000E+00 0. -1.
        -13    1    4    4    0    0  0.29040276172E+02  0.53670837133E+02  0.58802063273E+02  0.84744197700E+02  0.00000000000E+00 0. -1.
         13    1    4    4    0    0 -0.67091368894E+01 -0.32098747426E+02  0.88213990630E+02  0.94111902791E+02  0.00000000000E+00 0.  1.
         -2    1    1    2    0  502 -0.20603810909E+02 -0.13937718744E+02  0.16667441361E+02  0.29942956255E+02  0.00000000000E+00 0.  1.
<scales pt_clust_5="13000.00000" pt_clust_6="13000.00000" pt_clust_7="13000.00000" pt_clust_8="13000.00000" pt_clust_9="24.87523"></scales>
<clustering>
<clus scale="   24.875">  2  9  1 -1</clus>
<clus scale="   96.322">  5  6 -1 -1</clus>
<clus scale="   97.014">  7  8 -1 -1</clus>
<clus scale="   97.636">  1  5  2 -1</clus>
<clus scale="   24.875">  2  5  1 -1</clus>
</clustering>
</event>
<event>
 9    1  0.1601012E-005  0.2077069E+03  0.7546771E-02  0.1158679E+00
          1   -1    0    0  502    0 -0.00000000000E+00  0.00000000000E+00  0.81506625245E+03  0.81506625245E+03  0.00000000000E+00 0. -1.
         21   -1    0    0  501  502  0.00000000000E+00 -0.00000000000E+00 -0.20700525999E+03  0.20700525999E+03  0.00000000000E+00 0. -1.
         23    2    1    2    0    0 -0.66425732432E+02 -0.89194088193E+02  0.14427700938E+03  0.20433582300E+03  0.92570566739E+02 0.  0.
         23    2    1    2    0    0  0.72402652366E+02 -0.10618587731E+03  0.57293926984E+03  0.59385194480E+03  0.88787053139E+02 0.  0.
        -13    1    3    3    0    0  0.61149173625E+01 -0.66781752078E+02  0.83412644911E+02  0.10702739816E+03  0.00000000000E+00 0.  1.
         13    1    3    3    0    0 -0.72540649795E+02 -0.22412336115E+02  0.60864364468E+02  0.97308424840E+02  0.00000000000E+00 0. -1.
        -13    1    4    4    0    0 -0.17241785224E+02 -0.43519206231E+02  0.17614853705E+03  0.18226219459E+03  0.00000000000E+00 0.  1.
         13    1    4    4    0    0  0.89644437590E+02 -0.62666671082E+02  0.39679073278E+03  0.41158975021E+03  0.00000000000E+00 0. -1.
          1    1    1    2  501    0 -0.59769199335E+01  0.19537996551E+03 -0.10915528675E+03  0.22388374465E+03  0.00000000000E+00 0. -1.
<scales pt_clust_5="13000.00000" pt_clust_6="13000.00000" pt_clust_7="13000.00000" pt_clust_8="13000.00000" pt_clust_9="187.77380"></scales>
<clustering>
<clus scale="   88.787">  7  8 -1 -1</clus>
<clus scale="   92.571">  5  6 -1 -1</clus>
<clus scale="  144.697">  1  5  2 -1</clus>
<clus scale="  187.774">  2  9  1 -1</clus>
<clus scale="  187.774">  2  5  1 -1</clus>
</clustering>
</event>
<event>
 9    1  0.1601012E-005  0.9275526E+02  0.7546771E-02  0.1298322E+00
          1   -1    0    0  502    0 -0.00000000000E+00  0.00000000000E+00  0.21898448589E+03  0.21898448589E+03  0.00000000000E+00 0. -1.
         21   -1    0    0  501  502  0.00000000000E+00 -0.00000000000E+00 -0.88378466904E+02  0.88378466904E+02  0.00000000000E+00 0.  1.
         23    2    1    2    0    0  0.10361428240E+02 -0.11384366528E+02  0.82877882564E+02  0.12143846425E+03  0.87416212372E+02 0.  0.
         23    2    1    2    0    0  0.14756932947E+02  0.25978125896E+02  0.92164238157E+02  0.13283515799E+03  0.90875201833E+02 0.  0.
        -11    1    4    4    0    0  0.49836619150E+02  0.43108527518E+01  0.30281244675E+02  0.58474146756E+02  0.00000000000E+00 0.  1.
         11    1    4    4    0    0 -0.35079686203E+02  0.21667273144E+02  0.61882993482E+02  0.74361011235E+02  0.00000000000E+00 0. -1.
        -13    1    3    3    0    0 -0.15177675224E+02  0.33408022193E+02  0.40916842753E+02  0.54960402044E+02  0.00000000000E+00 0. -1.
         13    1    3    3    0    0  0.25539103463E+02 -0.44792388721E+02  0.41961039812E+02  0.66478062209E+02  0.00000000000E+00 0.  1.
          1    1    1    2  501    0 -0.25118361187E+02 -0.14593759368E+02 -0.44436101733E+02  0.53089330552E+02  0.00000000000E+00 0. -1.
<scales pt_clust_5="13000.00000" pt_clust_6="13000.00000" pt_clust_7="13000.00000" pt_clust_8="13000.00000" pt_clust_9="29.05013"></scales>
<clustering>
<clus scale="   29.050">  2  9  1 -1</clus>
<clus scale="   87.416">  7  8 -1 -1</clus>
<clus scale="   89.369">  1  7  2 -1</clus>
<clus scale="   90.875">  5  6 -1 -1</clus>
<clus scale="   29.050">  2  5  1 -1</clus>
</clustering>
</event>
<event>
 9    1  0.1601012E-005  0.1609964E+03  0.7546771E-02  0.1188084E+00
         21   -1    0    0  501  502  0.00000000000E+00  0.00000000000E+00  0.82630729720E+02  0.82630729720E+02  0.00000000000E+00 0.  1.
          1   -1    0    0  502    0 -0.00000000000E+00 -0.00000000000E+00 -0.85268628264E+03  0.85268628264E+03  0.00000000000E+00 0. -1.
         23    2    1    2    0    0 -0.13722289203E+02  0.13121207483E+03 -0.70718293494E+03  0.72519612524E+03  0.91634091855E+02 0.  0.
         23    2    1    2    0    0 -0.17670469216E+02 -0.11902939721E+03 -0.18270279846E+02  0.15423447122E+03  0.94732392051E+02 0.  0.
        -11    1    3    3    0    0 -0.46614635979E+02  0.33463352611E+02 -0.23994583023E+03  0.24671181913E+03  0.00000000000E+00 0.  1.
         11    1    3    3    0    0  0.32892346776E+02  0.97748722223E+02 -0.46723710471E+03  0.47848430611E+03  0.00000000000E+00 0. -1.
        -13    1    4    4    0    0  0.17035165773E+02 -0.33613716069E+02  0.31809031240E+02  0.49314229683E+02  0.00000000000E+00 0.  1.
         13    1    4    4    0    0 -0.34705634988E+02 -0.85415681143E+02 -0.50079311086E+02  0.10492024154E+03  0.00000000000E+00 0. -1.
          1    1    1    2  501    0  0.31392758419E+02 -0.12182677623E+02 -0.44602338130E+02  0.55886415897E+02  0.00000000000E+00 0. -1.
<scales pt_clust_5="13000.00000" pt_clust_6="13000.00000" pt_clust_7="13000.00000" pt_clust_8="13000.00000" pt_clust_9="33.67377"></scales>
<clustering>
<clus scale="   33.674">  1  9  2 -1</clus>
<clus scale="   91.634">  5  6 -1 -1</clus>
<clus scale="   94.732">  7  8 -1 -1</clus>
<clus scale="  159.193">  2  5  1 -1</clus>
<clus scale="   33.674">  1  5  2 -1</clus>
</clustering>
</event>
<event>
 9    1  0.1601012E-005  0.9461790E+02  0.7546771E-02  0.1292978E+00
         21   -1    0    0  501  502  0.00000000000E+00  0.00000000000E+00  0.36105790959E+03  0.36105790959E+03  0.00000000000E+00 0. -1.
          2   -1    0    0  502    0 -0.00000000000E+00 -0.00000000000E+00 -0.54072184277E+02  0.54072184277E+02  0.00000000000E+00 0. -1.
         23    2    1    2    0    0 -0.32463056305E+02 -0.12295037403E+02  0.11415419970E+03  0.15200372477E+03  0.94175012969E+02 0.  0.
         23    2    1    2    0    0 -0.43398364701E+02  0.30776102693E+01  0.11863145247E+03  0.15661079739E+03  0.92523675887E+02 0.  0.
        -11    1    4    4    0    0  0.15191682987E+01  0.35902158151E+02  0.14896918296E+02  0.38899755873E+02  0.00000000000E+00 0. -1.
         11    1    4    4    0    0 -0.44917533000E+02 -0.32824547882E+02  0.10373453417E+03  0.11771104151E+03  0.00000000000E+00 0.  1.
        -11    1    3    3    0    0  0.21468484109E+02 -0.14870305566E+02  0.43669424300E+00  0.26119197909E+02  0.00000000000E+00 0.  1.
         11    1    3    3    0    0 -0.53931540414E+02  0.25752681622E+01  0.11371750545E+03  0.12588452687E+03  0.00000000000E+00 0. -1.
          2    1    1    2  501    0  0.75861421006E+02  0.92174271341E+01  0.74200073144E+02  0.10651557170E+03  0.00000000000E+00 0. -1.
<scales pt_clust_5="13000.00000" pt_clust_6="13000.00000" pt_clust_7="13000.00000" pt_clust_8="13000.00000" pt_clust_9="76.41938"></scales>
<clustering>
<clus scale="   76.419">  1  9  2 -1</clus>
<clus scale="   92.524">  5  6 -1 -1</clus>
<clus scale="   92.974">  1  5  2 -1</clus>
<clus scale="   94.175">  7  8 -1 -1</clus>
<clus scale="   76.419">  1  5  2 -1</clus>
</clustering>
</event>
<event>
 9    1  0.1601012E-005  0.1045590E+03  0.7546771E-02  0.1271696E+00
          2   -1    0    0  502    0 -0.00000000000E+00  0.00000000000E+00  0.26212527258E+03  0.26212527258E+03  0.00000000000E+00 0. -1.
         21   -1    0    0  501  502  0.00000000000E+00 -0.00000000000E+00 -0.97569184618E+02  0.97569184618E+02  0.00000000000E+00 0.  1.
         23    2    1    2    0    0 -0.20202212140E+01 -0.44378717783E+02  0.18652630911E+03  0.21319814642E+03  0.93208549833E+02 0.  0.
         23    2    1    2    0    0  0.24475955156E+02  0.57326676323E+02  0.25085238766E+01  0.11084356088E+03  0.91621952047E+02 0.  0.
        -11    1    4    4    0    0 -0.96952313145E+01  0.63854987982E+02 -0.22063735781E+02  0.68251486702E+02  0.00000000000E+00 0.  1.
         11    1    4    4    0    0  0.34171186471E+02 -0.65283116589E+01  0.24572259657E+02  0.42592074176E+02  0.00000000000E+00 0. -1.
        -11    1    3    3    0    0 -0.47166330687E+02 -0.16221591619E+02  0.84167440406E+02  0.97836398184E+02  0.00000000000E+00 0.  1.
         11    1    3    3    0    0  0.45146109473E+02 -0.28157126165E+02  0.10235886871E+03  0.11536174824E+03  0.00000000000E+00 0. -1.
          2    1    1    2  501    0 -0.22455733942E+02 -0.12947958540E+02 -0.24478745026E+02  0.35652749898E+02  0.00000000000E+00 0. -1.
<scales pt_clust_5="13000.00000" pt_clust_6="13000.00000" pt_clust_7="13000.00000" pt_clust_8="13000.00000" pt_clust_9="25.92122"></scales>
<clustering>
<clus scale="   25.921">  2  9  1 -1</clus>
<clus scale="   91.622">  5  6 -1 -1</clus>
<clus scale="   93.209">  7  8 -1 -1</clus>
<clus scale="  103.147">  2  5  1 -1</clus>
<clus scale="   25.921">  2  5  1 -1</clus>
</clustering>
</event>
<event>
 9    1  0.1601012E-005  0.1201222E+03  0.7546771E-02  0.1244220E+00
          2   -1    0    0  502    0 -0.00000000000E+00  0.00000000000E+00  0.55941107816E+03  0.55941107816E+03  0.00000000000E+00 0. -1.
         21   -1    0    0  501  502  0.00000000000E+00 -0.00000000000E+00 -0.90039589423E+02  0.90039589423E+02  0.00000000000E+00 0.  1.
         23    2    1    2    0    0  0.73484302766E+02 -0.21671750429E+02  0.44881881807E+03  0.46506017986E+03  0.94726088928E+02 0.  0.
         23    2    1    2    0    0 -0.38331824633E+02  0.38548635606E+02 -0.39439833836E+02  0.11283892192E+03  0.90674118244E+02 0.  0.
        -13    1    4    4    0    0 -0.42631812671E+02  0.48715556905E+01 -0.59535192454E+02  0.73386937850E+02  0.00000000000E+00 0.  1.
         13    1    4    4    0    0  0.42999880377E+01  0.33677079916E+02  0.20095358618E+02  0.39451984066E+02  0.00000000000E+00 0. -1.
        -13    1    3    3    0    0  0.70118358566E+02 -0.54510144332E+02  0.32516857614E+03  0.33707943122E+03  0.00000000000E+00 0. -1.
         13    1    3    3    0    0  0.33659441996E+01  0.32838393903E+02  0.12365024193E+03  0.12798074864E+03  0.00000000000E+00 0.  1.
          2    1    1    2  501    0 -0.35152478132E+02 -0.16876885177E+02  0.59992504504E+02  0.71551565803E+02  0.00000000000E+00 0. -1.
<scales pt_clust_5="13000.00000" pt_clust_6="13000.00000" pt_clust_7="13000.00000" pt_clust_8="13000.00000" pt_clust_9="38.99394"></scales>
<clustering>
<clus scale="   38.994">  2  9  1 -1</clus>
<clus scale="   90.674">  5  6 -1 -1</clus>
<clus scale="   94.726">  7  8 -1 -1</clus>
<clus scale="  116.953">  2  5  1 -1</clus>
<clus scale="   38.994">  2  5  1 -1</clus>
</clustering>
</event>
<event>
 9    1  0.1601012E-005  0.1143329E+03  0.7546771E-02  0.1253223E+00
         21   -1    0    0  501  502  0.00000000000E+00  0.00000000000E+00  0.14533445199E+03  0.14533445199E+03  0.00000000000E+00 0.  1.
         -1   -1    0    0    0  501 -0.00000000000E+00 -0.00000000000E+00 -0.21192230589E+03  0.21192230589E+03  0.00000000000E+00 0.  1.
         23    2    1    2    0    0 -0.98339433039E+02 -0.85713575310E+01 -0.11017972318E+03  0.17392297846E+03  0.91463209956E+02 0.  0.
         23    2    1    2    0    0  0.25049547905E+02 -0.13832012740E+02 -0.12070148749E+01  0.94562960547E+02  0.90121541242E+02 0.  0.
        -11    1    3    3    0    0 -0.72069343485E+02 -0.59550926958E+01 -0.12443359931E+03  0.14392072136E+03  0.00000000000E+00 0.  1.
         11    1    3    3    0    0 -0.26270089554E+02 -0.26162648352E+01  0.14253876122E+02  0.30002257105E+02  0.00000000000E+00 0. -1.
        -11    1    4    4    0    0 -0.22742875394E+02 -0.35057659041E+02 -0.52306302352E+01  0.42114573859E+02  0.00000000000E+00 0.  1.
         11    1    4    4    0    0  0.47792423299E+02  0.21225646301E+02  0.40236153604E+01  0.52448386689E+02  0.00000000000E+00 0. -1.
         -1    1    1    2    0  502  0.73289885135E+02  0.22403370271E+02  0.44798884151E+02  0.88770818875E+02  0.00000000000E+00 0.  1.
<scales pt_clust_5="13000.00000" pt_clust_6="13000.00000" pt_clust_7="13000.00000" pt_clust_8="13000.00000" pt_clust_9="76.63758"></scales>
<clustering>
<clus scale="   76.638">  1  9  2 -1</clus>
<clus scale="   90.122">  7  8 -1 -1</clus>
<clus scale="   91.463">  5  6 -1 -1</clus>
<clus scale="  113.262">  1  7  2 -1</clus>
<clus scale="   76.638">  1  5  2 -1</clus>
</clustering>
</event>
<event>
 9    1  0.1601012E-005  0.1003385E+03  0.7546771E-02  0.1281020E+00
         21   -1    0    0  501  502  0.00000000000E+00  0.00000000000E+00  0.51475330766E+03  0.51475330766E+03  0.00000000000E+00 0.  1.
          3   -1    0    0  502    0 -0.00000000000E+00 -0.00000000000E+00 -0.26848141568E+02  0.26848141568E+02  0.00000000000E+00 0. -1.
         23    2    1    2    0    0  0.34792489976E+02  0.37942849675E+02  0.15842763471E+03  0.18842426761E+03  0.88058003520E+02 0.  0.
         23    2    1    2    0    0 -0.31318110744E+02 -0.92666048230E+01  0.22799531693E+03  0.24766396832E+03  0.91043300897E+02 0.  0.
        -11    1    4    4    0    0  0.49780587897E+00 -0.46869396408E+02  0.97488802567E+02  0.10817141377E+03  0.00000000000E+00 0. -1.
         11    1    4    4    0    0 -0.31815916623E+02  0.37602791585E+02  0.13050651436E+03  0.13949255456E+03  0.00000000000E+00 0.  1.
        -11    1    3    3    0    0  0.56417087082E+02  0.24956198281E+02  0.14939553403E+03  0.16163144848E+03  0.00000000000E+00 0.  1.
         11    1    3    3    0    0 -0.21624597106E+02  0.12986651394E+02  0.90321006779E+01  0.26792819133E+02  0.00000000000E+00 0. -1.
          3    1    1    2  501    0 -0.34743792316E+01 -0.28676244853E+02  0.10148221445E+03  0.10551321330E+03  0.00000000000E+00 0. -1.
<scales pt_clust_5="13000.00000" pt_clust_6="13000.00000" pt_clust_7="13000.00000" pt_clust_8="13000.00000" pt_clust_9="28.88595"></scales>
<clustering>
<clus scale="   28.886">  1  9  2 -1</clus>
<clus scale="   88.058">  7  8 -1 -1</clus>
<clus scale="   91.043">  5  6 -1 -1</clus>
<clus scale="   97.638">  2  7  1 -1</clus>
<clus scale="   28.886">  1  5  2 -1</clus>
</clustering>
</event>
<event>
 9    1  0.1601012E-005  0.1157831E+03  0.7546771E-02  0.1252440E+00
         21   -1    0    0  501  502  0.00000000000E+00  0.00000000000E+00  0.36389289769E+03  0.36389289769E+03  0.00000000000E+00 0.  1.
         -1   -1    0    0    0  501 -0.00000000000E+00 -0.00000000000E+00 -0.18515455368E+03  0.18515455368E+03  0.00000000000E+00 0.  1.
         23    2    1    2    0    0  0.46136663778E+02 -0.51631773138E+02 -0.14769722444E+03  0.18913106292E+03  0.95716545655E+02 0.  0.
         23    2    1    2    0    0 -0.20105096280E+02  0.28904044380E+02  0.13749902373E+03  0.16784554191E+03  0.89590656518E+02 0.  0.
        -11    1    3    3    0    0  0.13750185739E+02 -0.22726918859E+02 -0.14302527570E+03  0.14547099345E+03  0.00000000000E+00 0.  1.
         11    1    3    3    0    0  0.32386478039E+02 -0.28904854280E+02 -0.46719487435E+01  0.43660069466E+02  0.00000000000E+00 0. -1.
        -13    1    4    4    0    0  0.31753610659E+02 -0.68511916837E+01  0.57293302673E+02  0.65861621211E+02  0.00000000000E+00 0.  1.
         13    1    4    4    0    0 -0.51858706940E+02  0.35755236063E+02  0.80205721057E+02  0.10198392070E+03  0.00000000000E+00 0. -1.
         -1    1    1    2    0  502 -0.26031567498E+02  0.22727728759E+02  0.18893654471E+03  0.19207084654E+03  0.00000000000E+00 0.  1.
<scales pt_clust_5="13000.00000" pt_clust_6="13000.00000" pt_clust_7="13000.00000" pt_clust_8="13000.00000" pt_clust_9="34.55709"></scales>
<clustering>
<clus scale="   34.557">  1  9  2 -1</clus>
<clus scale="   89.591">  7  8 -1 -1</clus>
<clus scale="   95.717">  5  6 -1 -1</clus>
<clus scale="  110.773">  1  7  2 -1</clus>
<clus scale="   34.557">  1  5  2 -1</clus>
</clustering>
</event>
<event>
 9    1  0.1601012E-005  0.1012688E+03  0.7546771E-02  0.1280089E+00
         21   -1    0    0  501  502  0.00000000000E+00  0.00000000000E+00  0.89355282442E+02  0.89355282442E+02  0.00000000000E+00 0. -1.
          3   -1    0    0  502    0 -0.00000000000E+00 -0.00000000000E+00 -0.37428512509E+03  0.37428512509E+03  0.00000000000E+00 0. -1.
         23    2    1    2    0    0  0.24194787853E+02 -0.13211313495E+02 -0.24834350241E+03  0.26806380712E+03  0.97076170773E+02 0.  0.
         23    2    1    2    0    0 -0.16088250336E+02  0.31759786789E+02 -0.92929676825E+02  0.13570729786E+03  0.92266082615E+02 0.  0.
        -13    1    3    3    0    0  0.12954847456E+02  0.37689332104E+02 -0.55680300816E+02  0.68473423501E+02  0.00000000000E+00 0.  1.
         13    1    3    3    0    0  0.11239940397E+02 -0.50900645598E+02 -0.19266320160E+03  0.19959038361E+03  0.00000000000E+00 0. -1.
        -13    1    4    4    0    0  0.29367496920E+01 -0.25779331734E+02 -0.62964780513E+02  0.68101116205E+02  0.00000000000E+00 0. -1.
         13    1    4    4    0    0 -0.19025000028E+02  0.57539118523E+02 -0.29964896312E+02  0.67606181651E+02  0.00000000000E+00 0.  1.
          3    1    1    2  501    0 -0.81065375167E+01 -0.18548473294E+02  0.56343336584E+02  0.59869302564E+02  0.00000000000E+00 0. -1.
<scales pt_clust_5="13000.00000" pt_clust_6="13000.00000" pt_clust_7="13000.00000" pt_clust_8="13000.00000" pt_clust_9="20.24257"></scales>
<clustering>
<clus scale="   20.243">  1  9  2 -1</clus>
<clus scale="   92.266">  7  8 -1 -1</clus>
<clus scale="   96.668">  1  7  2 -1</clus>
<clus scale="   97.076">  5  6 -1 -1</clus>
<clus scale="   20.243">  1  5  2 -1</clus>
</clustering>
</event>
<event>
 9    1  0.1601012E-005  0.1125088E+03  0.7546771E-02  0.1256623E+00
         21   -1    0    0  501  502  0.00000000000E+00  0.00000000000E+00  0.24358996627E+02  0.24358996627E+02  0.00000000000E+00 0.  1.
          3   -1    0    0  502    0 -0.00000000000E+00 -0.00000000000E+00 -0.76399954572E+03  0.76399954572E+03  0.00000000000E+00 0. -1.
         23    2    1    2    0    0 -0.14080824437E+02  0.56660626343E+02 -0.34563293300E+03  0.36205562013E+03  0.90628094417E+02 0.  0.
         23    2    1    2    0    0  0.16782434924E+02 -0.80419105464E+02 -0.22390269074E+03  0.25452559642E+03  0.88893091220E+02 0.  0.
        -11    1    4    4    0    0 -0.64759795584E+01 -0.82694512054E+02 -0.10740006867E+03  0.13570223058E+03  0.00000000000E+00 0.  1.
         11    1    4    4    0    0  0.23258414482E+02  0.22754065901E+01 -0.11650262207E+03  0.11882336584E+03  0.00000000000E+00 0. -1.
        -13    1    3    3    0    0 -0.34051552142E+02 -0.73446998302E+01 -0.67540047941E+02  0.75994150398E+02  0.00000000000E+00 0. -1.
         13    1    3    3    0    0  0.19970727705E+02  0.64005326173E+02 -0.27809288506E+03  0.28606146973E+03  0.00000000000E+00 0.  1.
          3    1    1    2  501    0 -0.27016104864E+01  0.23758479122E+02 -0.17010492535E+03  0.17177732580E+03  0.00000000000E+00 0. -1.
<scales pt_clust_5="13000.00000" pt_clust_6="13000.00000" pt_clust_7="13000.00000" pt_clust_8="13000.00000" pt_clust_9="23.91160"></scales>
<clustering>
<clus scale="   23.912">  1  9  2 -1</clus>
<clus scale="   88.893">  5  6 -1 -1</clus>
<clus scale="   90.628">  7  8 -1 -1</clus>
<clus scale="  111.116">  1  5  2 -1</clus>
<clus scale="   23.912">  1  5  2 -1</clus>
</clustering>
</event>
<event>
 9    1  0.1601012E-005  0.1168344E+03  0.7546771E-02  0.1249225E+00
          1   -1    0    0  502    0 -0.00000000000E+00  0.00000000000E+00  0.11664579906E+03  0.11664579906E+03  0.00000000000E+00 0. -1.
         21   -1    0    0  501  502  0.00000000000E+00 -0.00000000000E+00 -0.22302627094E+03  0.22302627094E+03  0.00000000000E+00 0. -1.
         23    2    1    2    0    0 -0.22617420047E+02  0.68714569084E+02  0.35298512414E+02  0.12139644588E+03  0.90872836425E+02 0.  0.
         23    2    1    2    0    0  0.17297129644E+01 -0.78102824572E+02 -0.57933999036E+02  0.13145593623E+03  0.88437954597E+02 0.  0.
        -11    1    3    3    0    0  0.65437008751E+01  0.22886779971E+02 -0.28808860955E+02  0.37370779870E+02  0.00000000000E+00 0.  1.
         11    1    3    3    0    0 -0.29161120923E+02  0.45827789112E+02  0.64107373368E+02  0.84025666011E+02  0.00000000000E+00 0. -1.
        -11    1    4    4    0    0  0.25297822157E+02  0.96581453257E+01 -0.14957147702E+02  0.30935026174E+02  0.00000000000E+00 0.  1.
         11    1    4    4    0    0 -0.23568109192E+02 -0.87760969898E+02 -0.42976851333E+02  0.10052091006E+03  0.00000000000E+00 0. -1.
          1    1    1    2  501    0  0.20887707083E+02  0.93882554882E+01 -0.83744985262E+02  0.86819687887E+02  0.00000000000E+00 0. -1.
<scales pt_clust_5="13000.00000" pt_clust_6="13000.00000" pt_clust_7="13000.00000" pt_clust_8="13000.00000" pt_clust_9="22.90056"></scales>
<clustering>
<clus scale="   22.901">  2  9  1 -1</clus>
<clus scale="   88.438">  7  8 -1 -1</clus>
<clus scale="   90.873">  5  6 -1 -1</clus>
<clus scale="  114.951">  2  7  1 -1</clus>
<clus scale="   22.901">  2  5  1 -1</clus>
</clustering>
</event>
<event>
 9    1  0.1601012E-005  0.1461289E+03  0.7546771E-02  0.1224193E+00
          1   -1    0    0  502    0 -0.00000000000E+00  0.00000000000E+00  0.11771524221E+03  0.11771524221E+03  0.00000000000E+00 0. -1.
         21   -1    0    0  501  502  0.00000000000E+00 -0.00000000000E+00 -0.51195423411E+03  0.51195423411E+03  0.00000000000E+00 0. -1.
         23    2    1    2    0    0 -0.27126908720E+02  0.23497603849E+02  0.28655090650E+02  0.10206067044E+03  0.91144169686E+02 0.  0.
         23    2    1    2    0    0 -0.26218047886E+02  0.84325361788E+02 -0.50890588455E+02  0.13663812163E+03  0.91005338387E+02 0.  0.
        -11    1    4    4    0    0  0.30996814076E+01  0.49702424580E+02 -0.71236085144E+02  0.86916735216E+02  0.00000000000E+00 0.  1.
         11    1    4    4    0    0 -0.29317729294E+02  0.34622937208E+02  0.20345496689E+02  0.49721386418E+02  0.00000000000E+00 0. -1.
        -11    1    3    3    0    0 -0.51213737134E+02  0.29902993691E+02  0.43046166277E+02  0.73280340707E+02  0.00000000000E+00 0. -1.
         11    1    3    3    0    0  0.24086828414E+02 -0.64053898421E+01 -0.14391075626E+02  0.28780329737E+02  0.00000000000E+00 0.  1.
          1    1    1    2  501    0  0.53344956607E+02 -0.10782296564E+03 -0.37200349410E+03  0.39097068424E+03  0.00000000000E+00 0. -1.
<scales pt_clust_5="13000.00000" pt_clust_6="13000.00000" pt_clust_7="13000.00000" pt_clust_8="13000.00000" pt_clust_9="114.33146"></scales>
<clustering>
<clus scale="   91.005">  5  6 -1 -1</clus>
<clus scale="   91.144">  7  8 -1 -1</clus>
<clus scale="   97.955">  1  7  2 -1</clus>
<clus scale="  114.331">  2  9  1 -1</clus>
<clus scale="  114.331">  2  5  1 -1</clus>
</clustering>
</event>
<event>
 9    1  0.1601012E-005  0.9840330E+02  0.7546771E-02  0.1285928E+00
         21   -1    0    0  501  502  0.00000000000E+00  0.00000000000E+00  0.12598313263E+03  0.12598313263E+03  0.00000000000E+00 0. -1.
          2   -1    0    0  502    0 -0.00000000000E+00 -0.00000000000E+00 -0.33747460251E+03  0.33747460251E+03  0.00000000000E+00 0. -1.
         23    2    1    2    0    0  0.16926285183E+02 -0.19097571462E+02 -0.28152410322E+03  0.29801282486E+03  0.94364223722E+02 0.  0.
         23    2    1    2    0    0 -0.45861418229E+02  0.18357636345E+02  0.15796277316E+02  0.10396831519E+03  0.90108910171E+02 0.  0.
        -11    1    3    3    0    0  0.20429791776E+02  0.28649534590E+02 -0.47340297060E+02  0.58985387597E+02  0.00000000000E+00 0.  1.
         11    1    3    3    0    0 -0.35035065921E+01 -0.47747106052E+02 -0.23418380616E+03  0.23902743726E+03  0.00000000000E+00 0. -1.
        -13    1    4    4    0    0  0.10257248604E+02 -0.25557603263E+02  0.17606532042E+02  0.32686269350E+02  0.00000000000E+00 0.  1.
         13    1    4    4    0    0 -0.56118666833E+02  0.43915239608E+02 -0.18102547253E+01  0.71282045840E+02  0.00000000000E+00 0. -1.
          2    1    1    2  501    0  0.28935133045E+02  0.73993511650E+00  0.54236356033E+02  0.61476595092E+02  0.00000000000E+00 0. -1.
<scales pt_clust_5="13000.00000" pt_clust_6="13000.00000" pt_clust_7="13000.00000" pt_clust_8="13000.00000" pt_clust_9="28.94459"></scales>
<clustering>
<clus scale="   28.945">  1  9  2 -1</clus>
<clus scale="   90.109">  7  8 -1 -1</clus>
<clus scale="   94.330">  1  7  2 -1</clus>
<clus scale="   94.364">  5  6 -1 -1</clus>
<clus scale="   28.945">  1  5  2 -1</clus>
</clustering>
</event>
<event>
 9    1  0.1601012E-005  0.1440838E+03  0.7546771E-02  0.1208293E+00
         -1   -1    0    0    0  501 -0.00000000000E+00  0.00000000000E+00  0.39080830247E+03  0.39080830247E+03  0.00000000000E+00 0.  1.
         21   -1    0    0  501  502  0.00000000000E+00 -0.00000000000E+00 -0.97647498516E+02  0.97647498516E+02  0.00000000000E+00 0.  1.
         23    2    1    2    0    0 -0.23966409069E+02 -0.10828205416E+03  0.17094279240E+03  0.22218309842E+03  0.88569175981E+02 0.  0.
         23    2    1    2    0    0  0.94648917222E+02  0.89255915372E+02  0.57268495639E+02  0.16841336201E+03  0.90323551471E+02 0.  0.
        -11    1    3    3    0    0  0.13072738429E+02 -0.49887186100E+02  0.18500063289E+02  0.54789416576E+02  0.00000000000E+00 0. -1.
         11    1    3    3    0    0 -0.37039147498E+02 -0.58394868063E+02  0.15244272911E+03  0.16739368185E+03  0.00000000000E+00 0.  1.
        -13    1    4    4    0    0  0.64339010009E+01  0.67109667947E+02  0.23567732341E+02  0.71418069295E+02  0.00000000000E+00 0. -1.
         13    1    4    4    0    0  0.88215016221E+02  0.22146247424E+02  0.33700763298E+02  0.96995292715E+02  0.00000000000E+00 0.  1.
         -1    1    1    2    0  502 -0.70682508154E+02  0.19026138792E+02  0.64949515915E+02  0.97859340555E+02  0.00000000000E+00 0.  1.
<scales pt_clust_5="13000.00000" pt_clust_6="13000.00000" pt_clust_7="13000.00000" pt_clust_8="13000.00000" pt_clust_9="73.19847"></scales>
<clustering>
<clus scale="   73.198">  2  9  1 -1</clus>
<clus scale="   88.569">  5  6 -1 -1</clus>
<clus scale="   90.324">  7  8 -1 -1</clus>
<clus scale="  142.991">  1  5  2 -1</clus>
<clus scale="   73.198">  2  5  1 -1</clus>
</clustering>
</event>
<event>
 9    1  0.1601012E-005  0.9695005E+02  0.7546771E-02  0.1287120E+00
          1   -1    0    0  502    0 -0.00000000000E+00  0.00000000000E+00  0.53980207513E+02  0.53980207513E+02  0.00000000000E+00 0. -1.
         21   -1    0    0  501  502  0.00000000000E+00 -0.00000000000E+00 -0.35087222988E+03  0.35087222988E+03  0.00000000000E+00 0.  1.
         23    2    1    2    0    0  0.25886897761E+02  0.92380194492E+01 -0.85927279141E+02  0.12956174410E+03  0.92990729399E+02 0.  0.
         23    2    1    2    0    0 -0.30301022192E+02  0.27268690182E+02 -0.21571642657E+03  0.23821235950E+03  0.92465226533E+02 0.  0.
        -11    1    4    4    0    0 -0.40657747575E+02 -0.18580288237E+02 -0.15564267164E+03  0.16193492763E+03  0.00000000000E+00 0.  1.
         11    1    4    4    0    0  0.10356725383E+02  0.45848978419E+02 -0.60073754921E+02  0.76277431873E+02  0.00000000000E+00 0. -1.
        -13    1    3    3    0    0 -0.70239906447E+01 -0.23972516721E+02 -0.78300086904E+02  0.82188330143E+02  0.00000000000E+00 0.  1.
         13    1    3    3    0    0  0.32910888406E+02  0.33210536170E+02 -0.76271922371E+01  0.47373413956E+02  0.00000000000E+00 0. -1.
          1    1    1    2  501    0  0.44141244302E+01 -0.36506709632E+02  0.47516833390E+01  0.37078333797E+02  0.00000000000E+00 0. -1.
<scales pt_clust_5="13000.00000" pt_clust_6="13000.00000" pt_clust_7="13000.00000" pt_clust_8="13000.00000" pt_clust_9="36.77262"></scales>
<clustering>
<clus scale="   36.773">  2  9  1 -1</clus>
<clus scale="   92.465">  5  6 -1 -1</clus>
<clus scale="   92.991">  7  8 -1 -1</clus>
<clus scale="   96.446">  2  5  1 -1</clus>
<clus scale="   36.773">  2  5  1 -1</clus>
</clustering>
</event>
<event>
 9    1  0.1601012E-005  0.1329593E+03  0.7546771E-02  0.1223187E+00
          2   -1    0    0  502    0 -0.00000000000E+00  0.00000000000E+00  0.60696211472E+03  0.60696211472E+03  0.00000000000E+00 0. -1.
         21   -1    0    0  501  502  0.00000000000E+00 -0.00000000000E+00 -0.59519430746E+02  0.59519430746E+02  0.00000000000E+00 0.  1.
         23    2    1    2    0    0  0.19997711105E+02  0.89381456911E+02  0.44029925410E+03  0.45928583554E+03  0.93226027877E+02 0.  0.
         23    2    1    2    0    0 -0.30147855825E+01 -0.11167156541E+03  0.71889415940E+02  0.16216112106E+03  0.92997384951E+02 0.  0.
        -11    1    4    4    0    0  0.27842341457E+02 -0.98341495866E+02  0.77258788448E+02  0.12812168505E+03  0.00000000000E+00 0.  1.
         11    1    4    4    0    0 -0.30857127040E+02 -0.13330069539E+02 -0.53693725076E+01  0.34039436015E+02  0.00000000000E+00 0. -1.
        -11    1    3    3    0    0  0.46047192443E+02  0.92820713172E+02  0.37008548263E+03  0.38431665743E+03  0.00000000000E+00 0. -1.
         11    1    3    3    0    0 -0.26049481338E+02 -0.34392562607E+01  0.70213771475E+02  0.74969178109E+02  0.00000000000E+00 0.  1.
          2    1    1    2  501    0 -0.16982925522E+02  0.22290108495E+02  0.35254013928E+02  0.45034588863E+02  0.00000000000E+00 0. -1.
<scales pt_clust_5="13000.00000" pt_clust_6="13000.00000" pt_clust_7="13000.00000" pt_clust_8="13000.00000" pt_clust_9="28.02265"></scales>
<clustering>
<clus scale="   28.023">  2  9  1 -1</clus>
<clus scale="   92.997">  5  6 -1 -1</clus>
<clus scale="   93.226">  7  8 -1 -1</clus>
<clus scale="  132.799">  2  5  1 -1</clus>
<clus scale="   28.023">  2  5  1 -1</clus>
</clustering>
</event>
<event>
 9    1  0.1601012E-005  0.1140293E+03  0.7546771E-02  0.1253491E+00
         21   -1    0    0  501  502  0.00000000000E+00  0.00000000000E+00  0.10474222849E+03  0.10474222849E+03  0.00000000000E+00 0. -1.
          1   -1    0    0  502    0 -0.00000000000E+00 -0.00000000000E+00 -0.32692742386E+03  0.32692742386E+03  0.00000000000E+00 0. -1.
         23    2    1    2    0    0 -0.34909291580E+02  0.42130213725E+02 -0.13187132726E+03  0.16941158223E+03  0.91195524512E+02 0.  0.
         23    2    1    2    0    0 -0.51310866018E+01 -0.12469877182E+03 -0.61992406615E+02  0.16622211928E+03  0.90612486544E+02 0.  0.
        -11    1    3    3    0    0  0.15956844024E+02 -0.20281100319E+02 -0.30315310222E+02  0.39811580416E+02  0.00000000000E+00 0.  1.
         11    1    3    3    0    0 -0.50866135604E+02  0.62411314043E+02 -0.10155601704E+03  0.12960000181E+03  0.00000000000E+00 0. -1.
        -13    1    4    4    0    0 -0.30923236602E+02 -0.76349084637E+02 -0.73304495433E+02  0.11026775747E+03  0.00000000000E+00 0. -1.
         13    1    4    4    0    0  0.25792150000E+02 -0.48349687186E+02  0.11312088818E+02  0.55954361814E+02  0.00000000000E+00 0.  1.
          1    1    1    2  501    0  0.40040378182E+02  0.82568558098E+02 -0.28321461496E+02  0.96035950834E+02  0.00000000000E+00 0. -1.
<scales pt_clust_5="13000.00000" pt_clust_6="13000.00000" pt_clust_7="13000.00000" pt_clust_8="13000.00000" pt_clust_9="91.76491"></scales>
<clustering>
<clus scale="   90.612">  7  8 -1 -1</clus>
<clus scale="   91.196">  5  6 -1 -1</clus>
<clus scale="   91.765">  1  9  2 -1</clus>
<clus scale="  113.564">  1  7  2 -1</clus>
<clus scale="   91.765">  1  5  2 -1</clus>
</clustering>
</event>
<event>
 9    1  0.1601012E-005  0.2266436E+03  0.7546771E-02  0.1163152E+00
         21   -1    0    0  501  502  0.00000000000E+00  0.00000000000E+00  0.40326463605E+03  0.40326463605E+03  0.00000000000E+00 0. -1.
          2   -1    0    0  502    0 -0.00000000000E+00 -0.00000000000E+00 -0.42068657914E+03  0.42068657914E+03  0.00000000000E+00 0. -1.
         23    2    1    2    0    0  0.19122619746E+02 -0.37845511178E+02 -0.28364358223E+02  0.10430764558E+03  0.90981266240E+02 0.  0.
         23    2    1    2    0    0 -0.43802647843E+02 -0.17709462324E+03 -0.28857499167E+03  0.35015873615E+03  0.77810263770E+02 0.  0.
        -11    1    3    3    0    0  0.25880407801E+02  0.24003597792E+02 -0.22398586962E+02  0.41805082380E+02  0.00000000000E+00 0.  1.
         11    1    3    3    0    0 -0.67577880553E+01 -0.61849108970E+02 -0.59657712615E+01  0.62502563200E+02  0.00000000000E+00 0. -1.
        -13    1    4    4    0    0 -0.32051504952E+02 -0.30562361837E+02 -0.32659168632E+02  0.55027068126E+02  0.00000000000E+00 0.  1.
         13    1    4    4    0    0 -0.11751142891E+02 -0.14653226141E+03 -0.25591582304E+03  0.29513166803E+03  0.00000000000E+00 0. -1.
          2    1    1    2  501    0  0.24680028097E+02  0.21494013442E+03  0.29951740680E+03  0.36948483345E+03  0.00000000000E+00 0. -1.
<scales pt_clust_5="13000.00000" pt_clust_6="13000.00000" pt_clust_7="13000.00000" pt_clust_8="13000.00000" pt_clust_9="212.86826"></scales>
<clustering>
<clus scale="   77.810">  7  8 -1 -1</clus>
<clus scale="   90.981">  5  6 -1 -1</clus>
<clus scale="  100.377">  2  5  1 -1</clus>
<clus scale="  212.868">  1  9  2 -1</clus>
<clus scale="  212.868">  1  5  2 -1</clus>
</clustering>
</event>
<event>
 9    1  0.1601012E-005  0.1010671E+03  0.7546771E-02  0.1279988E+00
         21   -1    0    0  501  502  0.00000000000E+00  0.00000000000E+00  0.92441939078E+02  0.92441939078E+02  0.00000000000E+00 0. -1.
          2   -1    0    0  502    0 -0.00000000000E+00 -0.00000000000E+00 -0.46541129424E+03  0.46541129424E+03  0.00000000000E+00 0. -1.
         23    2    1    2    0    0  0.23781157741E+02 -0.30758116036E+02 -0.22884674038E+03  0.24784273278E+03  0.86853810747E+02 0.  0.
         23    2    1    2    0    0  0.13646158155E+01  0.57795270500E+02 -0.20913009289E+03  0.23524894719E+03  0.90909383084E+02 0.  0.
        -11    1    3    3    0    0 -0.12783001827E+02  0.23449533479E+02 -0.97914967819E+02  0.10149200303E+03  0.00000000000E+00 0.  1.
         11    1    3    3    0    0  0.36564159568E+02 -0.54207649515E+02 -0.13093177256E+03  0.14635072975E+03  0.00000000000E+00 0. -1.
        -11    1    4    4    0    0  0.11776379085E+02  0.76670128406E+02 -0.11522914310E+03  0.13890553306E+03  0.00000000000E+00 0.  1.
         11    1    4    4    0    0 -0.10411763270E+02 -0.18874857905E+02 -0.93900949787E+02  0.96343414130E+02  0.00000000000E+00 0. -1.
          2    1    1    2  501    0 -0.25145773556E+02 -0.27037154464E+02  0.65007478110E+02  0.74761553352E+02  0.00000000000E+00 0. -1.
<scales pt_clust_5="13000.00000" pt_clust_6="13000.00000" pt_clust_7="13000.00000" pt_clust_8="13000.00000" pt_clust_9="36.92313"></scales>
<clustering>
<clus scale="   36.923">  1  9  2 -1</clus>
<clus scale="   86.854">  5  6 -1 -1</clus>
<clus scale="   90.909">  7  8 -1 -1</clus>
<clus scale="   97.435">  2  5  1 -1</clus>
<clus scale="   36.923">  1  5  2 -1</clus>
</clustering>
</event>
<event>
 9    1  0.1601012E-005  0.1115737E+03  0.7546771E-02  0.1258002E+00
          1   -1    0    0  502    0 -0.00000000000E+00  0.00000000000E+00  0.62480479019E+03  0.62480479019E+03  0.00000000000E+00 0. -1.
         21   -1    0    0  501  502  0.00000000000E+00 -0.00000000000E+00 -0.97654346175E+02  0.97654346175E+02  0.00000000000E+00 0. -1.
         23    2    1    2    0    0 -0.59519479518E+02  0.51680550541E+02  0.46675318703E+03  0.48216990732E+03  0.91737855730E+02 0.  0.
         23    2    1    2    0    0  0.14874252346E+02 -0.23301646058E+02  0.12423250950E+03  0.15738266722E+03  0.92581733789E+02 0.  0.
        -11    1    3    3    0    0  0.63901675969E+01  0.35546763868E+02  0.61870506647E+02  0.71640535007E+02  0.00000000000E+00 0.  1.
         11    1    3    3    0    0 -0.65909647115E+02  0.16133786673E+02  0.40488268039E+03  0.41052937231E+03  0.00000000000E+00 0. -1.
        -11    1    4    4    0    0 -0.38293175817E+01 -0.39054077423E+02  0.12685814893E+03  0.13278883457E+03  0.00000000000E+00 0. -1.
         11    1    4    4    0    0  0.18703569927E+02  0.15752431366E+02 -0.26256394262E+01  0.24593832649E+02  0.00000000000E+00 0.  1.
          1    1    1    2  501    0  0.44645227172E+02 -0.28378904483E+02 -0.63835252523E+02  0.82906561825E+02  0.00000000000E+00 0. -1.
<scales pt_clust_5="13000.00000" pt_clust_6="13000.00000" pt_clust_7="13000.00000" pt_clust_8="13000.00000" pt_clust_9="52.90140"></scales>
<clustering>
<clus scale="   52.901">  2  9  1 -1</clus>
<clus scale="   91.738">  5  6 -1 -1</clus>
<clus scale="   92.582">  7  8 -1 -1</clus>
<clus scale="  110.874">  1  5  2 -1</clus>
<clus scale="   52.901">  2  5  1 -1</clus>
</clustering>
</event>
<event>
 9    1  0.1601012E-005  0.1551410E+03  0.7546771E-02  0.1195429E+00
          1   -1    0    0  502    0 -0.00000000000E+00  0.00000000000E+00  0.79457616070E+03  0.79457616070E+03  0.00000000000E+00 0. -1.
         21   -1    0    0  501  502  0.00000000000E+00 -0.00000000000E+00 -0.41242905444E+02  0.41242905444E+02  0.00000000000E+00 0.  1.
         23    2    1    2    0    0  0.51116619598E+02 -0.10751613283E+03  0.41970706244E+03  0.44608630278E+03  0.93093198756E+02 0.  0.
         23    2    1    2    0    0 -0.23235640726E+02  0.13268979466E+03  0.29612513733E+03  0.33665365829E+03  0.86597413749E+02 0.  0.
        -11    1    3    3    0    0  0.24817845024E+02 -0.60337848084E+02  0.35878273142E+03  0.36466646364E+03  0.00000000000E+00 0. -1.
         11    1    3    3    0    0  0.26298774574E+02 -0.47178284743E+02  0.60924331019E+02  0.81419839139E+02  0.00000000000E+00 0.  1.
        -13    1    4    4    0    0  0.25654477565E+02  0.92689005143E+02  0.16198512567E+03  0.18838414167E+03  0.00000000000E+00 0.  1.
         13    1    4    4    0    0 -0.48890118292E+02  0.40000789521E+02  0.13414001167E+03  0.14826951662E+03  0.00000000000E+00 0. -1.
          1    1    1    2  501    0 -0.27880978872E+02 -0.25173661836E+02  0.37501055490E+02  0.53079105079E+02  0.00000000000E+00 0. -1.
<scales pt_clust_5="13000.00000" pt_clust_6="13000.00000" pt_clust_7="13000.00000" pt_clust_8="13000.00000" pt_clust_9="37.56411"></scales>
<clustering>
<clus scale="   37.564">  2  9  1 -1</clus>
<clus scale="   86.597">  7  8 -1 -1</clus>
<clus scale="   93.093">  5  6 -1 -1</clus>
<clus scale="  151.332">  2  7  1 -1</clus>
<clus scale="   37.564">  2  5  1 -1</clus>
</clustering>
</event>
<event>
 9    1  0.1601012E-005  0.1015699E+03  0.7546771E-02  0.1278013E+00
         21   -1    0    0  501  502  0.00000000000E+00  0.00000000000E+00  0.20389010335E+03  0.20389010335E+03  0.00000000000E+00 0. -1.
          1   -1    0    0  502    0 -0.00000000000E+00 -0.00000000000E+00 -0.44933415456E+03  0.44933415456E+03  0.00000000000E+00 0. -1.
         23    2    1    2    0    0  0.15773523227E+02 -0.32045837718E+02 -0.37063604946E+03  0.38397883894E+03  0.93770612880E+02 0.  0.
         23    2    1    2    0    0  0.23646300873E+01  0.69241005747E+02 -0.21404297848E+02  0.11692028263E+03  0.91718592291E+02 0.  0.
        -11    1    3    3    0    0 -0.17483380380E+02 -0.56117072502E+02 -0.19883548220E+03  0.20734112809E+03  0.00000000000E+00 0. -1.
         11    1    3    3    0    0  0.33256903607E+02  0.24071234785E+02 -0.17180056726E+03  0.17663771085E+03  0.00000000000E+00 0.  1.
        -11    1    4    4    0    0 -0.93288695204E+01  0.21421959147E+02 -0.53345294837E+02  0.58237862439E+02  0.00000000000E+00 0. -1.
         11    1    4    4    0    0  0.11693499608E+02  0.47819046601E+02  0.31940996990E+02  0.58682420192E+02  0.00000000000E+00 0.  1.
          1    1    1    2  501    0 -0.18138153314E+02 -0.37195168030E+02  0.14659629610E+03  0.15232513634E+03  0.00000000000E+00 0. -1.
<scales pt_clust_5="13000.00000" pt_clust_6="13000.00000" pt_clust_7="13000.00000" pt_clust_8="13000.00000" pt_clust_9="41.38204"></scales>
<clustering>
<clus scale="   41.382">  1  9  2 -1</clus>
<clus scale="   91.719">  7  8 -1 -1</clus>
<clus scale="   93.771">  5  6 -1 -1</clus>
<clus scale="   99.679">  1  7  2 -1</clus>
<clus scale="   41.382">  1  5  2 -1</clus>
</clustering>
</event>
<event>
 9    1  0.1601012E-005  0.9223019E+02  0.7546771E-02  0.1298782E+00
         -1   -1    0    0    0  501 -0.00000000000E+00  0.00000000000E+00  0.50604173577E+03  0.50604173577E+03  0.00000000000E+00 0.  1.
         21   -1    0    0  501  502  0.00000000000E+00 -0.00000000000E+00 -0.52361259521E+02  0.52361259521E+02  0.00000000000E+00 0.  1.
         23    2    1    2    0    0 -0.12844791662E+02 -0.29872222483E+01  0.30461765507E+03  0.31779454755E+03  0.89596576383E+02 0.  0.
         23    2    1    2    0    0 -0.81001947547E+01  0.17664818751E+02  0.17849692456E+03  0.20161497730E+03  0.91704896364E+02 0.  0.
        -11    1    4    4    0    0  0.23241368389E+02 -0.26485534180E+02  0.10184903980E+03  0.10777231385E+03  0.00000000000E+00 0. -1.
         11    1    4    4    0    0 -0.31341563144E+02  0.44150352930E+02  0.76647884768E+02  0.93842663451E+02  0.00000000000E+00 0.  1.
        -13    1    3    3    0    0 -0.16649031397E+01  0.39728132210E+02  0.20513743766E+03  0.20895565252E+03  0.00000000000E+00 0.  1.
         13    1    3    3    0    0 -0.11179888522E+02 -0.42715354459E+02  0.99480217416E+02  0.10883889503E+03  0.00000000000E+00 0. -1.
         -1    1    1    2    0  502  0.20944986417E+02 -0.14677596502E+02 -0.29434103385E+02  0.38993470443E+02  0.00000000000E+00 0.  1.
<scales pt_clust_5="13000.00000" pt_clust_6="13000.00000" pt_clust_7="13000.00000" pt_clust_8="13000.00000" pt_clust_9="25.57585"></scales>
<clustering>
<clus scale="   25.576">  2  9  1 -1</clus>
<clus scale="   89.597">  7  8 -1 -1</clus>
<clus scale="   90.134">  1  7  2 -1</clus>
<clus scale="   91.705">  5  6 -1 -1</clus>
<clus scale="   25.576">  2  5  1 -1</clus>
</clustering>
</event>
<event>
 9    1  0.1601012E-005  0.1026338E+03  0.7546771E-02  0.1275889E+00
         21   -1    0    0  501  502  0.00000000000E+00  0.00000000000E+00  0.13472023749E+03  0.13472023749E+03  0.00000000000E+00 0. -1.
         -2   -1    0    0    0  501 -0.00000000000E+00 -0.00000000000E+00 -0.25909713649E+03  0.25909713649E+03  0.00000000000E+00 0.  1.
         23    2    1    2    0    0 -0.37248647240E+02 -0.37042224475E+02 -0.14628278560E+03  0.18194339499E+03  0.94578842792E+02 0.  0.
         23    2    1    2    0    0 -0.23930773513E+02 -0.14440341014E+02  0.69393804471E+02  0.11887678324E+03  0.92384977816E+02 0.  0.
        -11    1    4    4    0    0 -0.45978459290E+02  0.19244484643E+02  0.16705993176E+02  0.52568613410E+02  0.00000000000E+00 0. -1.
         11    1    4    4    0    0  0.22047685778E+02 -0.33684825656E+02  0.52687811295E+02  0.66308169834E+02  0.00000000000E+00 0.  1.
        -13    1    3    3    0    0  0.30339507867E+02 -0.21714540107E+02 -0.37053892494E+02  0.52583247700E+02  0.00000000000E+00 0.  1.
         13    1    3    3    0    0 -0.67588155108E+02 -0.15327684368E+02 -0.10922889311E+03  0.12936014729E+03  0.00000000000E+00 0. -1.
         -2    1    1    2    0  502  0.61179420753E+02  0.51482565488E+02 -0.47487917870E+02  0.92997195746E+02  0.00000000000E+00 0.  1.
<scales pt_clust_5="13000.00000" pt_clust_6="13000.00000" pt_clust_7="13000.00000" pt_clust_8="13000.00000" pt_clust_9="79.95863"></scales>
<clustering>
<clus scale="   79.959">  1  9  2 -1</clus>
<clus scale="   92.385">  5  6 -1 -1</clus>
<clus scale="   94.579">  7  8 -1 -1</clus>
<clus scale="  100.616">  1  5  2 -1</clus>
<clus scale="   79.959">  1  5  2 -1</clus>
</clustering>
</event>
<event>
 9    1  0.1601012E-005  0.1734510E+03  0.7546771E-02  0.1175452E+00
          1   -1    0    0  502    0 -0.00000000000E+00  0.00000000000E+00  0.59264625531E+03  0.59264625531E+03  0.00000000000E+00 0. -1.
         21   -1    0    0  501  502  0.00000000000E+00 -0.00000000000E+00 -0.21841491803E+03  0.21841491803E+03  0.00000000000E+00 0.  1.
         23    2    1    2    0    0 -0.31322632613E+02 -0.12724641054E+03  0.34720316674E+03  0.38037741516E+03  0.83451678574E+02 0.  0.
         23    2    1    2    0    0  0.54831854468E+02  0.26699306136E+03  0.26703435656E+02  0.28897308329E+03  0.92198385610E+02 0.  0.
        -11    1    3    3    0    0  0.35128030856E+01 -0.11965209598E+03  0.26857540374E+03  0.29404372354E+03  0.00000000000E+00 0.  1.
         11    1    3    3    0    0 -0.34835435699E+02 -0.75943145598E+01  0.78627763004E+02  0.86333691621E+02  0.00000000000E+00 0. -1.
        -13    1    4    4    0    0  0.21778487699E+02  0.22901988432E+03  0.46802375738E+02  0.23476556885E+03  0.00000000000E+00 0. -1.
         13    1    4    4    0    0  0.33053366769E+02  0.37973177036E+02 -0.20098940083E+02  0.54207514437E+02  0.00000000000E+00 0.  1.
          1    1    1    2  501    0 -0.23509221855E+02 -0.13974665082E+03  0.32473488634E+00  0.14171067490E+03  0.00000000000E+00 0. -1.
<scales pt_clust_5="13000.00000" pt_clust_6="13000.00000" pt_clust_7="13000.00000" pt_clust_8="13000.00000" pt_clust_9="141.71030"></scales>
<clustering>
<clus scale="   83.452">  5  6 -1 -1</clus>
<clus scale="   92.198">  7  8 -1 -1</clus>
<clus scale="  141.710">  2  9  1 -1</clus>
<clus scale="  168.964">  1  5  2 -1</clus>
<clus scale="  141.710">  2  5  1 -1</clus>
</clustering>
</event>
<event>
 9    1  0.1601012E-005  0.9476275E+02  0.7546771E-02  0.1294157E+00
         21   -1    0    0  501  502  0.00000000000E+00  0.00000000000E+00  0.88834952692E+02  0.88834952692E+02  0.00000000000E+00 0.  1.
          1   -1    0    0  502    0 -0.00000000000E+00 -0.00000000000E+00 -0.18139411878E+03  0.18139411878E+03  0.00000000000E+00 0. -1.
         23    2    1    2    0    0 -0.20994335650E+01 -0.21390456602E+02 -0.91648138332E+02  0.12805667011E+03  0.86816877658E+02 0.  0.
         23    2    1    2    0    0 -0.29216731417E+02  0.31630518815E+02 -0.21755372668E+02  0.10318461124E+03  0.91212173762E+02 0.  0.
        -11    1    3    3    0    0  0.13455988000E+02 -0.40442765507E+02 -0.94135503645E+02  0.10333525024E+03  0.00000000000E+00 0. -1.
         11    1    3    3    0    0 -0.15555421565E+02  0.19052308904E+02  0.24873653130E+01  0.24721419879E+02  0.00000000000E+00 0.  1.
        -13    1    4    4    0    0 -0.66344054915E+01  0.46426494352E+02  0.21975366215E+02  0.51791422401E+02  0.00000000000E+00 0.  1.
         13    1    4    4    0    0 -0.22582325925E+02 -0.14795975537E+02 -0.43730738883E+02  0.51393188843E+02  0.00000000000E+00 0. -1.
          1    1    1    2  501    0  0.31316164982E+02 -0.10240062213E+02  0.20844344910E+02  0.38987790115E+02  0.00000000000E+00 0. -1.
<scales pt_clust_5="13000.00000" pt_clust_6="13000.00000" pt_clust_7="13000.00000" pt_clust_8="13000.00000" pt_clust_9="32.94785"></scales>
<clustering>
<clus scale="   32.948">  1  9  2 -1</clus>
<clus scale="   86.817">  5  6 -1 -1</clus>
<clus scale="   90.540">  2  5  1 -1</clus>
<clus scale="   91.212">  7  8 -1 -1</clus>
<clus scale="   32.948">  1  5  2 -1</clus>
</clustering>
</event>
<event>
 9    1  0.1601012E-005  0.1215979E+03  0.7546771E-02  0.1240954E+00
         21   -1    0    0  501  502  0.00000000000E+00  0.00000000000E+00  0.88069824633E+02  0.88069824633E+02  0.00000000000E+00 0. -1.
          1   -1    0    0  502    0 -0.00000000000E+00 -0.00000000000E+00 -0.64374441962E+03  0.64374441962E+03  0.00000000000E+00 0. -1.
         23    2    1    2    0    0  0.65943529209E+02 -0.42675779195E+02 -0.50936546034E+03  0.52362534298E+03  0.92523275173E+02 0.  0.
         23    2    1    2    0    0 -0.10071108648E+03 -0.93607667122E+01 -0.11414933190E+02  0.13653563586E+03  0.91001825618E+02 0.  0.
        -11    1    3    3    0    0 -0.15083960906E+02 -0.35012063502E+02 -0.20789995141E+03  0.21136641234E+03  0.00000000000E+00 0.  1.
         11    1    3    3    0    0  0.81027490115E+02 -0.76637156927E+01 -0.30146550893E+03  0.31225893064E+03  0.00000000000E+00 0. -1.
        -13    1    4    4    0    0 -0.47187348163E+01  0.21739647647E+02  0.20959702490E+02  0.30564487016E+02  0.00000000000E+00 0.  1.
         13    1    4    4    0    0 -0.95992351668E+02 -0.31100414359E+02 -0.32374635680E+02  0.10597114884E+03  0.00000000000E+00 0. -1.
          1    1    1    2  501    0  0.34767557275E+02  0.52036545907E+02 -0.34894201454E+02  0.71653265410E+02  0.00000000000E+00 0. -1.
<scales pt_clust_5="13000.00000" pt_clust_6="13000.00000" pt_clust_7="13000.00000" pt_clust_8="13000.00000" pt_clust_9="62.58263"></scales>
<clustering>
<clus scale="   62.583">  1  9  2 -1</clus>
<clus scale="   91.002">  7  8 -1 -1</clus>
<clus scale="   92.523">  5  6 -1 -1</clus>
<clus scale="  120.444">  1  7  2 -1</clus>
<clus scale="   62.583">  1  5  2 -1</clus>
</clustering>
</event>
<event>
 9    1  0.1601012E-005  0.1318858E+03  0.7546771E-02  0.1224698E+00
          2   -1    0    0  502    0 -0.00000000000E+00  0.00000000000E+00  0.77039721737E+03  0.77039721737E+03  0.00000000000E+00 0. -1.
         21   -1    0    0  501  502  0.00000000000E+00 -0.00000000000E+00 -0.43153519109E+02  0.43153519109E+02  0.00000000000E+00 0. -1.
         23    2    1    2    0    0  0.85766626115E+02  0.32345976017E+02  0.48008390910E+03  0.49698356691E+03  0.90055148036E+02 0.  0.
         23    2    1    2    0    0 -0.92833361131E+02 -0.53048236433E+02  0.25700252876E+03  0.29257963420E+03  0.90113230053E+02 0.  0.
        -11    1    4    4    0    0 -0.22707353061E+02  0.21769127235E+02  0.29901661212E+02  0.43400784864E+02  0.00000000000E+00 0.  1.
         11    1    4    4    0    0 -0.70126008070E+02 -0.74817363667E+02  0.22710086755E+03  0.24917884934E+03  0.00000000000E+00 0. -1.
        -13    1    3    3    0    0  0.35624741721E+02  0.60464037578E+02  0.23548060812E+03  0.24571556496E+03  0.00000000000E+00 0.  1.
         13    1    3    3    0    0  0.50141884394E+02 -0.28118061562E+02  0.24460330097E+03  0.25126800195E+03  0.00000000000E+00 0. -1.
          2    1    1    2  501    0  0.70667350159E+01  0.20702260416E+02 -0.98427395988E+01  0.23987535366E+02  0.00000000000E+00 0. -1.
<scales pt_clust_5="13000.00000" pt_clust_6="13000.00000" pt_clust_7="13000.00000" pt_clust_8="13000.00000" pt_clust_9="21.87515"></scales>
<clustering>
<clus scale="   21.875">  2  9  1 -1</clus>
<clus scale="   90.055">  7  8 -1 -1</clus>
<clus scale="   90.113">  5  6 -1 -1</clus>
<clus scale="  131.846">  1  7  2 -1</clus>
<clus scale="   21.875">  2  5  1 -1</clus>
</clustering>
</event>
<event>
 9    1  0.1601012E-005  0.1124301E+03  0.7546771E-02  0.1256278E+00
         21   -1    0    0  501  502  0.00000000000E+00  0.00000000000E+00  0.17712779049E+03  0.17712779049E+03  0.00000000000E+00 0.  1.
         -1   -1    0    0    0  501 -0.00000000000E+00 -0.00000000000E+00 -0.15832722554E+03  0.15832722554E+03  0.00000000000E+00 0.  1.
         23    2    1    2    0    0 -0.62603020125E+02 -0.49559701107E+02 -0.52479076898E+02  0.13259032980E+03  0.91928450128E+02 0.  0.
         23    2    1    2    0    0  0.24580415882E+02  0.44129663500E+02 -0.17616968176E+02  0.10602558765E+03  0.91539300972E+02 0.  0.
        -11    1    4    4    0    0  0.21247898397E+02  0.63908621149E+02 -0.38082677337E+02  0.77369731527E+02  0.00000000000E+00 0. -1.
         11    1    4    4    0    0  0.33325174849E+01 -0.19778957649E+02  0.20465709161E+02  0.28655856119E+02  0.00000000000E+00 0.  1.
        -13    1    3    3    0    0 -0.66737134948E+02 -0.69785321610E+02 -0.56036948037E+02  0.11164217769E+03  0.00000000000E+00 0.  1.
         13    1    3    3    0    0  0.41341148229E+01  0.20225620503E+02  0.35578711387E+01  0.20948152118E+02  0.00000000000E+00 0. -1.
         -1    1    1    2    0  502  0.38022604243E+02  0.54300376062E+01  0.88896610020E+02  0.96839098586E+02  0.00000000000E+00 0.  1.
<scales pt_clust_5="13000.00000" pt_clust_6="13000.00000" pt_clust_7="13000.00000" pt_clust_8="13000.00000" pt_clust_9="38.40838"></scales>
<clustering>
<clus scale="   38.408">  1  9  2 -1</clus>
<clus scale="   91.539">  5  6 -1 -1</clus>
<clus scale="   91.928">  7  8 -1 -1</clus>
<clus scale="  112.112">  1  5  2 -1</clus>
<clus scale="   38.408">  1  5  2 -1</clus>
</clustering>
</event>
<event>
 9    1  0.1601012E-005  0.1653849E+03  0.7546771E-02  0.1182993E+00
         21   -1    0    0  501  502  0.00000000000E+00  0.00000000000E+00  0.73060546078E+02  0.73060546078E+02  0.00000000000E+00 0. -1.
         -1   -1    0    0    0  501 -0.00000000000E+00 -0.00000000000E+00 -0.46725375399E+03  0.46725375399E+03  0.00000000000E+00 0.  1.
         23    2    1    2    0    0  0.11849737420E+03 -0.44030489550E+02 -0.21396836205E+03  0.26569340538E+03  0.93969218355E+02 0.  0.
         23    2    1    2    0    0 -0.13504789083E+03  0.67211172421E+02 -0.16683523444E+03  0.24314796422E+03  0.92366999176E+02 0.  0.
        -13    1    3    3    0    0  0.72924584449E+02  0.10009985712E+02 -0.55546366891E+02  0.92214932119E+02  0.00000000000E+00 0.  1.
         13    1    3    3    0    0  0.45572789750E+02 -0.54040475262E+02 -0.15842199516E+03  0.17347847326E+03  0.00000000000E+00 0. -1.
        -13    1    4    4    0    0 -0.24677153348E+02  0.25741060622E+02 -0.10315730992E+03  0.10914666596E+03  0.00000000000E+00 0.  1.
         13    1    4    4    0    0 -0.11037073748E+03  0.41470111798E+02 -0.63677924519E+02  0.13400129826E+03  0.00000000000E+00 0. -1.
         -1    1    1    2    0  502  0.16550516626E+02 -0.23180682870E+02 -0.13389611418E+02  0.31472930478E+02  0.00000000000E+00 0.  1.
<scales pt_clust_5="13000.00000" pt_clust_6="13000.00000" pt_clust_7="13000.00000" pt_clust_8="13000.00000" pt_clust_9="28.48269"></scales>
<clustering>
<clus scale="   28.483">  1  9  2 -1</clus>
<clus scale="   92.367">  7  8 -1 -1</clus>
<clus scale="   93.969">  5  6 -1 -1</clus>
<clus scale="  164.480">  1  7  2 -1</clus>
<clus scale="   28.483">  1  5  2 -1</clus>
</clustering>
</event>
<event>
 9    1  0.1601012E-005  0.1187226E+03  0.7546771E-02  0.1246787E+00
         21   -1    0    0  501  502  0.00000000000E+00  0.00000000000E+00  0.18144315085E+03  0.18144315085E+03  0.00000000000E+00 0.  1.
          3   -1    0    0  502    0 -0.00000000000E+00 -0.00000000000E+00 -0.13738875528E+03  0.13738875528E+03  0.00000000000E+00 0. -1.
         23    2    1    2    0    0 -0.15503790719E+02  0.65784014315E+02 -0.22983137444E+02  0.11327150611E+03  0.87944899932E+02 0.  0.
         23    2    1    2    0    0  0.74043880542E+02 -0.65921683503E+02  0.48915788126E+02  0.14427941841E+03  0.92712629382E+02 0.  0.
        -11    1    4    4    0    0  0.86873347041E+02 -0.32102272480E+02  0.13386234699E+02  0.93577377629E+02  0.00000000000E+00 0.  1.
         11    1    4    4    0    0 -0.12829466499E+02 -0.33819411023E+02  0.35529553427E+02  0.50702040781E+02  0.00000000000E+00 0. -1.
        -13    1    3    3    0    0  0.19710163414E+02  0.55376053093E+02  0.14769533263E+02  0.60606409815E+02  0.00000000000E+00 0.  1.
         13    1    3    3    0    0 -0.35213954132E+02  0.10407961223E+02 -0.37752670706E+02  0.52665096297E+02  0.00000000000E+00 0. -1.
          3    1    1    2  501    0 -0.58540089823E+02  0.13766918749E+00  0.18121744894E+02  0.61280981612E+02  0.00000000000E+00 0. -1.
<scales pt_clust_5="13000.00000" pt_clust_6="13000.00000" pt_clust_7="13000.00000" pt_clust_8="13000.00000" pt_clust_9="58.54025"></scales>
<clustering>
<clus scale="   58.540">  1  9  2 -1</clus>
<clus scale="   87.945">  7  8 -1 -1</clus>
<clus scale="   92.713">  5  6 -1 -1</clus>
<clus scale="  115.038">  2  7  1 -1</clus>
<clus scale="   58.540">  1  5  2 -1</clus>
</clustering>
</event>
<event>
 9    1  0.1601012E-005  0.9990500E+02  0.7546771E-02  0.1282302E+00
         21   -1    0    0  501  502  0.00000000000E+00  0.00000000000E+00  0.60706327065E+02  0.60706327065E+02  0.00000000000E+00 0.  1.
          1   -1    0    0  502    0 -0.00000000000E+00 -0.00000000000E+00 -0.23477859297E+03  0.23477859297E+03  0.00000000000E+00 0. -1.
         23    2    1    2    0    0  0.19909726417E+02 -0.39784811208E+02 -0.73633850854E+02  0.12625780241E+03  0.92411364399E+02 0.  0.
         23    2    1    2    0    0 -0.29158282780E+02  0.16653086890E+02 -0.38400545453E+02  0.10237422143E+03  0.88760061766E+02 0.  0.
        -13    1    4    4    0    0 -0.28042180745E+02 -0.23549722850E+02 -0.48629861584E+02  0.60875420203E+02  0.00000000000E+00 0. -1.
         13    1    4    4    0    0 -0.11161020343E+01  0.40202809740E+02  0.10229316131E+02  0.41498801227E+02  0.00000000000E+00 0.  1.
        -13    1    3    3    0    0  0.32542128054E+02  0.18331138971E+02 -0.49651873322E+02  0.62131548175E+02  0.00000000000E+00 0.  1.
         13    1    3    3    0    0 -0.12632401637E+02 -0.58115950180E+02 -0.23981977532E+02  0.64126254239E+02  0.00000000000E+00 0. -1.
          1    1    1    2  501    0  0.92485563631E+01  0.23131724318E+02 -0.62037869596E+02  0.66852896188E+02  0.00000000000E+00 0. -1.
<scales pt_clust_5="13000.00000" pt_clust_6="13000.00000" pt_clust_7="13000.00000" pt_clust_8="13000.00000" pt_clust_9="24.91211"></scales>
<clustering>
<clus scale="   24.912">  1  9  2 -1</clus>
<clus scale="   88.760">  5  6 -1 -1</clus>
<clus scale="   92.411">  7  8 -1 -1</clus>
<clus scale="   96.538">  1  5  2 -1</clus>
<clus scale="   24.912">  1  5  2 -1</clus>
</clustering>
</event>
<event>
 9    1  0.1601012E-005  0.1051179E+03  0.7546771E-02  0.1270911E+00
         21   -1    0    0  501  502  0.00000000000E+00  0.00000000000E+00  0.88088554046E+02  0.88088554046E+02  0.00000000000E+00 0.  1.
          3   -1    0    0  502    0 -0.00000000000E+00 -0.00000000000E+00 -0.36065757014E+03  0.36065757014E+03  0.00000000000E+00 0. -1.
         23    2    1    2    0    0  0.23849020770E+02 -0.38967685302E+02 -0.24940869626E+03  0.27016419272E+03  0.93256297198E+02 0.  0.
         23    2    1    2    0    0 -0.56538368154E+02  0.29519303392E+02 -0.61792570688E+02  0.12710071004E+03  0.90930150963E+02 0.  0.
        -11    1    3    3    0    0 -0.31896618736E+02  0.56908427763E+01 -0.80156065394E+02  0.86456779941E+02  0.00000000000E+00 0.  1.
         11    1    3    3    0    0  0.55745639506E+02 -0.44658528078E+02 -0.16925263087E+03  0.18370741278E+03  0.00000000000E+00 0. -1.
        -11    1    4    4    0    0 -0.75085227656E+02 -0.33585225703E+00 -0.49183329403E+02  0.89760259024E+02  0.00000000000E+00 0.  1.
         11    1    4    4    0    0  0.18546859503E+02  0.29855155649E+02 -0.12609241285E+02  0.37340451016E+02  0.00000000000E+00 0. -1.
          3    1    1    2  501    0  0.32689347384E+02  0.94483819092E+01  0.38632250858E+02  0.51481221425E+02  0.00000000000E+00 0. -1.
<scales pt_clust_5="13000.00000" pt_clust_6="13000.00000" pt_clust_7="13000.00000" pt_clust_8="13000.00000" pt_clust_9="34.02742"></scales>
<clustering>
<clus scale="   34.027">  1  9  2 -1</clus>
<clus scale="   90.930">  7  8 -1 -1</clus>
<clus scale="   93.256">  5  6 -1 -1</clus>
<clus scale="  103.060">  1  7  2 -1</clus>
<clus scale="   34.027">  1  5  2 -1</clus>
</clustering>
</event>
<event>
 9    1  0.1601012E-005  0.1214761E+03  0.7546771E-02  0.1241065E+00
         21   -1    0    0  501  502  0.00000000000E+00  0.00000000000E+00  0.13120653273E+04  0.13120653273E+04  0.00000000000E+00 0.  1.
         -3   -1    0    0    0  501 -0.00000000000E+00 -0.00000000000E+00 -0.25496286087E+02  0.25496286087E+02  0.00000000000E+00 0.  1.
         23    2    1    2    0    0 -0.40606075229E+00 -0.81505583672E+02  0.29239300011E+03  0.31651885662E+03  0.89706159354E+02 0.  0.
         23    2    1    2    0    0 -0.72766524327E+02  0.64605746170E+02  0.38792064276E+03  0.41015369995E+03  0.90965724356E+02 0.  0.
        -13    1    3    3    0    0  0.29134782439E+02  0.35895025725E+01  0.50686518154E+02  0.58573400098E+02  0.00000000000E+00 0.  1.
         13    1    3    3    0    0 -0.29540843191E+02 -0.85095086244E+02  0.24170648195E+03  0.25794545652E+03  0.00000000000E+00 0. -1.
        -13    1    4    4    0    0 -0.48126955222E+02  0.87298199829E+02  0.28703369211E+03  0.30385114763E+03  0.00000000000E+00 0. -1.
         13    1    4    4    0    0 -0.24639569104E+02 -0.22692453659E+02  0.10088695065E+03  0.10630255232E+03  0.00000000000E+00 0.  1.
         -3    1    1    2    0  502  0.73172585079E+02  0.16899837502E+02  0.60625539832E+03  0.61088905679E+03  0.00000000000E+00 0.  1.
<scales pt_clust_5="13000.00000" pt_clust_6="13000.00000" pt_clust_7="13000.00000" pt_clust_8="13000.00000" pt_clust_9="75.09881"></scales>
<clustering>
<clus scale="   75.099">  1  9  2 -1</clus>
<clus scale="   89.706">  5  6 -1 -1</clus>
<clus scale="   90.966">  7  8 -1 -1</clus>
<clus scale="  120.536">  2  5  1 -1</clus>
<clus scale="   75.099">  1  5  2 -1</clus>
</clustering>
</event>
<event>
 9    1  0.1601012E-005  0.1170969E+03  0.7546771E-02  0.1255713E+00
         21   -1    0    0  501  502  0.00000000000E+00  0.00000000000E+00  0.23134346500E+02  0.23134346500E+02  0.00000000000E+00 0.  1.
         -2   -1    0    0    0  501 -0.00000000000E+00 -0.00000000000E+00 -0.86722388429E+03  0.86722388429E+03  0.00000000000E+00 0.  1.
         23    2    1    2    0    0  0.24929991190E+02 -0.17759212739E+02 -0.45618549666E+03  0.47009335936E+03  0.10929622618E+03 0.  0.
         23    2    1    2    0    0 -0.27155880177E+02  0.50006846071E+02 -0.36543017614E+03  0.38089560620E+03  0.91126959254E+02 0.  0.
        -11    1    4    4    0    0 -0.44119128483E+02 -0.33445697541E+01 -0.23225465808E+03  0.23643161769E+03  0.00000000000E+00 0. -1.
         11    1    4    4    0    0  0.16963248306E+02  0.53351415825E+02 -0.13317551807E+03  0.14446398851E+03  0.00000000000E+00 0.  1.
        -11    1    3    3    0    0 -0.40304236091E+02 -0.23832816671E+02 -0.22399483905E+03  0.22883645365E+03  0.00000000000E+00 0. -1.
         11    1    3    3    0    0  0.65234227281E+02  0.60736039319E+01 -0.23219065760E+03  0.24125690571E+03  0.00000000000E+00 0.  1.
         -2    1    1    2    0  502  0.22258889871E+01 -0.32247633331E+02 -0.22473864989E+02  0.39369265230E+02  0.00000000000E+00 0.  1.
<scales pt_clust_5="13000.00000" pt_clust_6="13000.00000" pt_clust_7="13000.00000" pt_clust_8="13000.00000" pt_clust_9="32.32436"></scales>
<clustering>
<clus scale="   32.324">  1  9  2 -1</clus>
<clus scale="   91.127">  5  6 -1 -1</clus>
<clus scale="  100.350">  1  5  2 -1</clus>
<clus scale="  109.296">  7  8 -1 -1</clus>
<clus scale="   32.324">  1  5  2 -1</clus>
</clustering>
</event>
<event>
 9    1  0.1601012E-005  0.1118982E+03  0.7546771E-02  0.1257191E+00
         21   -1    0    0  501  502  0.00000000000E+00  0.00000000000E+00  0.33505301458E+02  0.33505301458E+02  0.00000000000E+00 0.  1.
          1   -1    0    0  502    0 -0.00000000000E+00 -0.00000000000E+00 -0.69208286932E+03  0.69208286932E+03  0.00000000000E+00 0. -1.
         23    2    1    2    0    0 -0.44551402930E+02 -0.43874493828E+02 -0.44542485610E+03  0.45923754908E+03  0.92660807986E+02 0.  0.
         23    2    1    2    0    0  0.62882303161E+02  0.23386856990E+02 -0.20952447593E+03  0.23862104793E+03  0.92403297401E+02 0.  0.
        -11    1    3    3    0    0 -0.73130251461E+02 -0.36189033831E+02 -0.30480228852E+03  0.31553464934E+03  0.00000000000E+00 0.  1.
         11    1    3    3    0    0  0.28578848531E+02 -0.76854599963E+01 -0.14062256759E+03  0.14370289974E+03  0.00000000000E+00 0. -1.
        -13    1    4    4    0    0  0.43336720020E+02  0.58670937555E+02 -0.14887254112E+03  0.16578113197E+03  0.00000000000E+00 0.  1.
         13    1    4    4    0    0  0.19545583141E+02 -0.35284080565E+02 -0.60651934806E+02  0.72839915962E+02  0.00000000000E+00 0. -1.
          1    1    1    2  501    0 -0.18330900231E+02  0.20487636838E+02 -0.36282358339E+01  0.27729573775E+02  0.00000000000E+00 0. -1.
<scales pt_clust_5="13000.00000" pt_clust_6="13000.00000" pt_clust_7="13000.00000" pt_clust_8="13000.00000" pt_clust_9="27.49118"></scales>
<clustering>
<clus scale="   27.491">  1  9  2 -1</clus>
<clus scale="   92.403">  7  8 -1 -1</clus>
<clus scale="   92.661">  5  6 -1 -1</clus>
<clus scale="  111.685">  1  7  2 -1</clus>
<clus scale="   27.491">  1  5  2 -1</clus>
</clustering>
</event>
<event>
 9    1  0.1601012E-005  0.1377019E+03  0.7546771E-02  0.1216578E+00
         -1   -1    0    0    0  501 -0.00000000000E+00  0.00000000000E+00  0.23690268000E+02  0.23690268000E+02  0.00000000000E+00 0.  1.
         21   -1    0    0  501  502  0.00000000000E+00 -0.00000000000E+00 -0.97389796238E+03  0.97389796238E+03  0.00000000000E+00 0.  1.
         23    2    1    2    0    0  0.70195222403E+02 -0.65376044926E+02 -0.38708259770E+03  0.40926595158E+03  0.92001549914E+02 0.  0.
         23    2    1    2    0    0 -0.91898982134E+02  0.63725392522E+02 -0.52398218510E+03  0.54353449735E+03  0.91466228403E+02 0.  0.
        -11    1    3    3    0    0  0.28323065870E+02 -0.57180122637E+02 -0.33912343827E+03  0.34507458450E+03  0.00000000000E+00 0.  1.
         11    1    3    3    0    0  0.41872156533E+02 -0.81959222888E+01 -0.47959159431E+02  0.64191367085E+02  0.00000000000E+00 0. -1.
        -11    1    4    4    0    0 -0.10826141205E+03  0.43330129160E+02 -0.45664190473E+03  0.47129593950E+03  0.00000000000E+00 0.  1.
         11    1    4    4    0    0  0.16362429914E+02  0.20395263362E+02 -0.67340280365E+02  0.72238557848E+02  0.00000000000E+00 0. -1.
         -1    1    1    2    0  502  0.21703759730E+02  0.16506524037E+01 -0.39142911586E+02  0.44787781450E+02  0.00000000000E+00 0.  1.
<scales pt_clust_5="13000.00000" pt_clust_6="13000.00000" pt_clust_7="13000.00000" pt_clust_8="13000.00000" pt_clust_9="21.76645"></scales>
<clustering>
<clus scale="   21.766">  2  9  1 -1</clus>
<clus scale="   91.466">  7  8 -1 -1</clus>
<clus scale="   92.002">  5  6 -1 -1</clus>
<clus scale="  137.345">  2  7  1 -1</clus>
<clus scale="   21.766">  2  5  1 -1</clus>
</clustering>
</event>
<event>
 9    1  0.1601012E-005  0.9725673E+02  0.7546771E-02  0.1286694E+00
         -2   -1    0    0    0  501 -0.00000000000E+00  0.00000000000E+00  0.11101663606E+03  0.11101663606E+03  0.00000000000E+00 0.  1.
         21   -1    0    0  501  502  0.00000000000E+00 -0.00000000000E+00 -0.13853247847E+03  0.13853247847E+03  0.00000000000E+00 0. -1.
         23    2    1    2    0    0 -0.29264245027E+02 -0.24878330045E+02  0.22674847061E+02  0.10211976760E+03  0.91863871582E+02 0.  0.
         23    2    1    2    0    0  0.12467165149E+02  0.12217932077E+02 -0.16199778871E+01  0.94499756041E+02  0.92859417898E+02 0.  0.
        -11    1    4    4    0    0 -0.29317138394E+02 -0.24905300582E+02  0.17252224641E+01  0.38506427947E+02  0.00000000000E+00 0.  1.
         11    1    4    4    0    0  0.41784303543E+02  0.37123232659E+02 -0.33452003512E+01  0.55993328094E+02  0.00000000000E+00 0. -1.
        -11    1    3    3    0    0  0.11368905942E+02 -0.49897063423E+02  0.17668497891E+02  0.54140047823E+02  0.00000000000E+00 0. -1.
         11    1    3    3    0    0 -0.40633150969E+02  0.25018733378E+02  0.50063491706E+01  0.47979719774E+02  0.00000000000E+00 0.  1.
         -2    1    1    2    0  502  0.16797079878E+02  0.12660397968E+02 -0.48570711577E+02  0.52929590895E+02  0.00000000000E+00 0.  1.
<scales pt_clust_5="13000.00000" pt_clust_6="13000.00000" pt_clust_7="13000.00000" pt_clust_8="13000.00000" pt_clust_9="21.03396"></scales>
<clustering>
<clus scale="   21.034">  2  9  1 -1</clus>
<clus scale="   91.864">  7  8 -1 -1</clus>
<clus scale="   92.859">  5  6 -1 -1</clus>
<clus scale="   96.307">  1  7  2 -1</clus>
<clus scale="   21.034">  2  5  1 -1</clus>
</clustering>
</event>
<event>
 9    1  0.1601012E-005  0.9823271E+02  0.7546771E-02  0.1285448E+00
          2   -1    0    0  502    0 -0.00000000000E+00  0.00000000000E+00  0.85718292514E+03  0.85718292514E+03  0.00000000000E+00 0. -1.
         21   -1    0    0  501  502  0.00000000000E+00 -0.00000000000E+00 -0.21665307818E+02  0.21665307818E+02  0.00000000000E+00 0.  1.
         23    2    1    2    0    0 -0.35287721921E+02  0.11545860242E+02  0.53334723525E+03  0.54314724606E+03  0.95766003089E+02 0.  0.
         23    2    1    2    0    0 -0.54687840951E+01  0.17528084269E+02  0.21780861003E+03  0.23760258929E+03  0.93151803495E+02 0.  0.
        -11    1    3    3    0    0 -0.47551233334E+02 -0.31774670166E+02  0.32463787781E+03  0.32963692324E+03  0.00000000000E+00 0.  1.
         11    1    3    3    0    0  0.12263511413E+02  0.43320530408E+02  0.20870935744E+03  0.21351032281E+03  0.00000000000E+00 0. -1.
        -11    1    4    4    0    0  0.24680444373E+02 -0.29866631257E+02  0.91765357342E+02  0.99609340954E+02  0.00000000000E+00 0.  1.
         11    1    4    4    0    0 -0.30149228468E+02  0.47394715526E+02  0.12604325269E+03  0.13799324833E+03  0.00000000000E+00 0. -1.
          2    1    1    2  501    0  0.40756506016E+02 -0.29073944511E+02  0.84361772047E+02  0.98098397617E+02  0.00000000000E+00 0. -1.
<scales pt_clust_5="13000.00000" pt_clust_6="13000.00000" pt_clust_7="13000.00000" pt_clust_8="13000.00000" pt_clust_9="50.06383"></scales>
<clustering>
<clus scale="   50.064">  2  9  1 -1</clus>
<clus scale="   93.152">  7  8 -1 -1</clus>
<clus scale="   95.686">  2  7  1 -1</clus>
<clus scale="   95.766">  5  6 -1 -1</clus>
<clus scale="   50.064">  2  5  1 -1</clus>
</clustering>
</event>
<event>
 9    1  0.1601012E-005  0.9880446E+02  0.7546771E-02  0.1283279E+00
          1   -1    0    0  502    0 -0.00000000000E+00  0.00000000000E+00  0.49514172405E+03  0.49514172405E+03  0.00000000000E+00 0. -1.
         21   -1    0    0  501  502  0.00000000000E+00 -0.00000000000E+00 -0.34491453896E+02  0.34491453896E+02  0.00000000000E+00 0.  1.
         23    2    1    2    0    0 -0.21451282857E+02  0.38962729227E+02  0.29209969695E+03  0.30873569847E+03  0.89539079428E+02 0.  0.
         23    2    1    2    0    0  0.40013525924E+02 -0.50754723407E+01  0.92130720789E+02  0.13526514394E+03  0.90453008660E+02 0.  0.
        -13    1    3    3    0    0  0.10169547233E+02 -0.23919039070E+02  0.12032595331E+03  0.12310107701E+03  0.00000000000E+00 0.  1.
         13    1    3    3    0    0 -0.31620830090E+02  0.62881768297E+02  0.17177374365E+03  0.18563462146E+03  0.00000000000E+00 0. -1.
        -13    1    4    4    0    0  0.39403343560E+02 -0.40610505044E+02  0.30911934050E+02  0.64477781215E+02  0.00000000000E+00 0.  1.
         13    1    4    4    0    0  0.61018236318E+00  0.35535032703E+02  0.61218786739E+02  0.70787362725E+02  0.00000000000E+00 0. -1.
          1    1    1    2  501    0 -0.18562243066E+02 -0.33887256886E+02  0.76419852411E+02  0.85632335537E+02  0.00000000000E+00 0. -1.
<scales pt_clust_5="13000.00000" pt_clust_6="13000.00000" pt_clust_7="13000.00000" pt_clust_8="13000.00000" pt_clust_9="38.63812"></scales>
<clustering>
<clus scale="   38.638">  2  9  1 -1</clus>
<clus scale="   89.539">  5  6 -1 -1</clus>
<clus scale="   90.453">  7  8 -1 -1</clus>
<clus scale="   97.968">  1  5  2 -1</clus>
<clus scale="   38.638">  2  5  1 -1</clus>
</clustering>
</event>
<event>
 9    1  0.1601012E-005  0.1494722E+03  0.7546771E-02  0.1218584E+00
          2   -1    0    0  502    0 -0.00000000000E+00  0.00000000000E+00  0.55548230410E+03  0.55548230410E+03  0.00000000000E+00 0. -1.
         21   -1    0    0  501  502  0.00000000000E+00 -0.00000000000E+00 -0.18993281284E+03  0.18993281284E+03  0.00000000000E+00 0. -1.
         23    2    1    2    0    0  0.45046461677E+02 -0.18834743945E+02 -0.13357383383E+03  0.16863743950E+03  0.90623868967E+02 0.  0.
         23    2    1    2    0    0  0.37421616855E+02 -0.68006565694E+02  0.40421164315E+03  0.42396856645E+03  0.10167114875E+03 0.  0.
        -11    1    3    3    0    0  0.32223591992E+02  0.12732273313E+02 -0.42582211168E+01  0.34908496267E+02  0.00000000000E+00 0.  1.
         11    1    3    3    0    0  0.12822869685E+02 -0.31567017258E+02 -0.12931561272E+03  0.13372894323E+03  0.00000000000E+00 0. -1.
        -13    1    4    4    0    0 -0.27006342430E+02 -0.55031140267E+02  0.17018001024E+03  0.18088395400E+03  0.00000000000E+00 0.  1.
         13    1    4    4    0    0  0.64427959284E+02 -0.12975425428E+02  0.23403163292E+03  0.24308461245E+03  0.00000000000E+00 0. -1.
          2    1    1    2  501    0 -0.82468078531E+02  0.86841309640E+02  0.94911681933E+02  0.15280911100E+03  0.00000000000E+00 0. -1.
<scales pt_clust_5="13000.00000" pt_clust_6="13000.00000" pt_clust_7="13000.00000" pt_clust_8="13000.00000" pt_clust_9="109.56692"></scales>
<clustering>
<clus scale="   90.624">  5  6 -1 -1</clus>
<clus scale="  101.671">  7  8 -1 -1</clus>
<clus scale="  102.940">  1  5  2 -1</clus>
<clus scale="  109.567">  2  9  1 -1</clus>
<clus scale="  109.567">  2  5  1 -1</clus>
</clustering>
</event>
<event>
 9    1  0.1601012E-005  0.1270955E+03  0.7546771E-02  0.1236425E+00
         -3   -1    0    0    0  501 -0.00000000000E+00  0.00000000000E+00  0.96883119891E+03  0.96883119891E+03  0.00000000000E+00 0.  1.
         21   -1    0    0  501  502  0.00000000000E+00 -0.00000000000E+00 -0.43538448752E+02  0.43538448752E+02  0.00000000000E+00 0. -1.
         23    2    1    2    0    0  0.80716790189E+02 -0.74524036931E+01  0.45313132777E+03  0.46956393715E+03  0.92690626961E+02 0.  0.
         23    2    1    2    0    0 -0.84243599699E+02 -0.72355591632E+02  0.43370197012E+03  0.45414408425E+03  0.76270142520E+02 0.  0.
        -11    1    4    4    0    0 -0.43982972096E+02  0.80303215752E+01  0.13570148434E+03  0.14287715266E+03  0.00000000000E+00 0.  1.
         11    1    4    4    0    0 -0.40260627604E+02 -0.80385913207E+02  0.29800048578E+03  0.31126693159E+03  0.00000000000E+00 0. -1.
        -11    1    3    3    0    0  0.71576335474E+02  0.18260435368E+02  0.42089477980E+03  0.42732777930E+03  0.00000000000E+00 0.  1.
         11    1    3    3    0    0  0.91404547145E+01 -0.25712839061E+02  0.32236547977E+02  0.42236157856E+02  0.00000000000E+00 0. -1.
         -3    1    1    2    0  502  0.35268095105E+01  0.79807995325E+02  0.38459452266E+02  0.88661626264E+02  0.00000000000E+00 0.  1.
<scales pt_clust_5="13000.00000" pt_clust_6="13000.00000" pt_clust_7="13000.00000" pt_clust_8="13000.00000" pt_clust_9="79.88588"></scales>
<clustering>
<clus scale="   76.270">  5  6 -1 -1</clus>
<clus scale="   79.886">  2  9  1 -1</clus>
<clus scale="   92.691">  7  8 -1 -1</clus>
<clus scale="  115.667">  2  5  1 -1</clus>
<clus scale="   79.886">  2  5  1 -1</clus>
</clustering>
</event>
<event>
 9    1  0.1601012E-005  0.1032743E+03  0.7546771E-02  0.1273832E+00
         21   -1    0    0  501  502  0.00000000000E+00  0.00000000000E+00  0.12259622794E+03  0.12259622794E+03  0.00000000000E+00 0.  1.
          1   -1    0    0  502    0 -0.00000000000E+00 -0.00000000000E+00 -0.28621034085E+03  0.28621034085E+03  0.00000000000E+00 0. -1.
         23    2    1    2    0    0  0.34061652152E+02  0.34779994405E+02 -0.20669528870E+03  0.23122249687E+03  0.91493478089E+02 0.  0.
         23    2    1    2    0    0 -0.67348283720E+02  0.12186391802E+02  0.19750398929E+02  0.11546993163E+03  0.90878640990E+02 0.  0.
        -13    1    4    4    0    0 -0.13777578903E+02  0.45509200798E+02  0.21887372748E+02  0.52344685723E+02  0.00000000000E+00 0. -1.
         13    1    4    4    0    0 -0.53570704817E+02 -0.33322808996E+02 -0.21369738183E+01  0.63125245909E+02  0.00000000000E+00 0.  1.
        -13    1    3    3    0    0 -0.18583332279E+02  0.24112052478E+02 -0.15025216178E+03  0.15330506656E+03  0.00000000000E+00 0. -1.
         13    1    3    3    0    0  0.52644984431E+02  0.10667941927E+02 -0.56443126921E+02  0.77917430317E+02  0.00000000000E+00 0.  1.
          1    1    1    2  501    0  0.33286631568E+02 -0.46966386207E+02  0.23330776860E+02  0.62114140285E+02  0.00000000000E+00 0. -1.
<scales pt_clust_5="13000.00000" pt_clust_6="13000.00000" pt_clust_7="13000.00000" pt_clust_8="13000.00000" pt_clust_9="57.56597"></scales>
<clustering>
<clus scale="   57.566">  1  9  2 -1</clus>
<clus scale="   90.879">  5  6 -1 -1</clus>
<clus scale="   91.493">  7  8 -1 -1</clus>
<clus scale="  102.730">  1  5  2 -1</clus>
<clus scale="   57.566">  1  5  2 -1</clus>
</clustering>
</event>
<event>
 9    1  0.1601012E-005  0.1043445E+03  0.7546771E-02  0.1271798E+00
         21   -1    0    0  501  502  0.00000000000E+00  0.00000000000E+00  0.19746693371E+03  0.19746693371E+03  0.00000000000E+00 0. -1.
         -3   -1    0    0    0  501 -0.00000000000E+00 -0.00000000000E+00 -0.10067748610E+03  0.10067748610E+03  0.00000000000E+00 0.  1.
         23    2    1    2    0    0 -0.30638980226E+02  0.43990969811E+02 -0.42498931312E+02  0.11356440604E+03  0.90646360228E+02 0.  0.
         23    2    1    2    0    0  0.31413279202E+02 -0.23890207525E+02  0.10459591481E+03  0.14447755438E+03  0.91520064461E+02 0.  0.
        -11    1    3    3    0    0 -0.58406434349E+02  0.46467798151E+02 -0.18782318121E+02  0.76963259496E+02  0.00000000000E+00 0.  1.
         11    1    3    3    0    0  0.27767454123E+02 -0.24768283393E+01 -0.23716613192E+02  0.36601146545E+02  0.00000000000E+00 0. -1.
        -13    1    4    4    0    0  0.10086381583E+02 -0.19926482860E+02 -0.12360780417E+02  0.25526235624E+02  0.00000000000E+00 0.  1.
         13    1    4    4    0    0  0.21326897619E+02 -0.39637246645E+01  0.11695669523E+03  0.11895131876E+03  0.00000000000E+00 0. -1.
         -3    1    1    2    0  502 -0.77429897577E+00 -0.20100762286E+02  0.34692464104E+02  0.40102459389E+02  0.00000000000E+00 0.  1.
<scales pt_clust_5="13000.00000" pt_clust_6="13000.00000" pt_clust_7="13000.00000" pt_clust_8="13000.00000" pt_clust_9="20.11567"></scales>
<clustering>
<clus scale="   20.116">  1  9  2 -1</clus>
<clus scale="   90.646">  5  6 -1 -1</clus>
<clus scale="   91.520">  7  8 -1 -1</clus>
<clus scale="  103.579">  2  5  1 -1</clus>
<clus scale="   20.116">  1  5  2 -1</clus>
</clustering>
</event>
<event>
 9    1  0.1601012E-005  0.9847040E+02  0.7546771E-02  0.1284778E+00
         -1   -1    0    0    0  501 -0.00000000000E+00  0.00000000000E+00  0.17293362583E+03  0.17293362583E+03  0.00000000000E+00 0.  1.
         21   -1    0    0  501  502  0.00000000000E+00 -0.00000000000E+00 -0.80610413113E+02  0.80610413113E+02  0.00000000000E+00 0. -1.
         23    2    1    2    0    0  0.30777358376E+02 -0.24082886878E+02  0.87102877677E+02  0.13387665480E+03  0.93855293785E+02 0.  0.
         23    2    1    2    0    0 -0.99421944199E+01  0.94799200470E+01  0.12160097140E+02  0.93294841688E+02  0.91473184098E+02 0.  0.
        -13    1    4    4    0    0 -0.50864751284E+02  0.80324031035E+01  0.51641535452E+01  0.51753366119E+02  0.00000000000E+00 0. -1.
         13    1    4    4    0    0  0.40922556864E+02  0.14475169435E+01  0.69959435948E+01  0.41541475568E+02  0.00000000000E+00 0.  1.
        -13    1    3    3    0    0 -0.68421755353E+01  0.19243030207E+02  0.71577563543E+02  0.74434247362E+02  0.00000000000E+00 0.  1.
         13    1    3    3    0    0  0.37619533912E+02 -0.43325917085E+02  0.15525314134E+02  0.59442407437E+02  0.00000000000E+00 0. -1.
         -1    1    1    2    0  502 -0.20835163956E+02  0.14602966831E+02 -0.69397621040E+01  0.26372542453E+02  0.00000000000E+00 0.  1.
<scales pt_clust_5="13000.00000" pt_clust_6="13000.00000" pt_clust_7="13000.00000" pt_clust_8="13000.00000" pt_clust_9="25.44309"></scales>
<clustering>
<clus scale="   25.443">  2  9  1 -1</clus>
<clus scale="   91.473">  5  6 -1 -1</clus>
<clus scale="   93.855">  7  8 -1 -1</clus>
<clus scale="   96.203">  2  5  1 -1</clus>
<clus scale="   25.443">  2  5  1 -1</clus>
</clustering>
</event>
<event>
 9    1  0.1601012E-005  0.1452144E+03  0.7546771E-02  0.1206973E+00
         21   -1    0    0  501  502  0.00000000000E+00  0.00000000000E+00  0.10153124438E+03  0.10153124438E+03  0.00000000000E+00 0. -1.
         -1   -1    0    0    0  501 -0.00000000000E+00 -0.00000000000E+00 -0.38429733067E+03  0.38429733067E+03  0.00000000000E+00 0.  1.
         23    2    1    2    0    0  0.98449902603E+01  0.11010522069E+03 -0.17548710002E+03  0.22515456668E+03  0.87628609294E+02 0.  0.
         23    2    1    2    0    0  0.14903716598E+02 -0.11857383948E+03 -0.14915232992E+03  0.21130202335E+03  0.90112437379E+02 0.  0.
        -11    1    4    4    0    0  0.52688387501E+02 -0.78795953062E+02 -0.96201911303E+02  0.13505434512E+03  0.00000000000E+00 0.  1.
         11    1    4    4    0    0 -0.37784670903E+02 -0.39777886423E+02 -0.52950418619E+02  0.76247678230E+02  0.00000000000E+00 0. -1.
        -11    1    3    3    0    0 -0.28326304365E+01  0.69097742438E+02 -0.16787631313E+03  0.18156260164E+03  0.00000000000E+00 0.  1.
         11    1    3    3    0    0  0.12677620697E+02  0.41007478253E+02 -0.76107868981E+01  0.43591965044E+02  0.00000000000E+00 0. -1.
         -1    1    1    2    0  502 -0.24748706858E+02  0.84686187934E+01  0.41873343656E+02  0.49371985015E+02  0.00000000000E+00 0.  1.
<scales pt_clust_5="13000.00000" pt_clust_6="13000.00000" pt_clust_7="13000.00000" pt_clust_8="13000.00000" pt_clust_9="26.15752"></scales>
<clustering>
<clus scale="   26.158">  1  9  2 -1</clus>
<clus scale="   87.629">  7  8 -1 -1</clus>
<clus scale="   90.112">  5  6 -1 -1</clus>
<clus scale="  143.686">  2  7  1 -1</clus>
<clus scale="   26.158">  1  5  2 -1</clus>
</clustering>
</event>
<event>
 9    1  0.1601012E-005  0.2471812E+03  0.7546771E-02  0.1153821E+00
         21   -1    0    0  501  502  0.00000000000E+00  0.00000000000E+00  0.54948542531E+03  0.54948542531E+03  0.00000000000E+00 0. -1.
          2   -1    0    0  502    0 -0.00000000000E+00 -0.00000000000E+00 -0.17829595838E+03  0.17829595838E+03  0.00000000000E+00 0. -1.
         23    2    1    2    0    0  0.33528883777E+02 -0.80798575218E+01  0.22160466059E+02  0.98725455320E+02  0.89811798374E+02 0.  0.
         23    2    1    2    0    0 -0.19592375221E+03 -0.14641852278E+03  0.68631530349E+02  0.27007879222E+03  0.91693874124E+02 0.  0.
        -11    1    3    3    0    0  0.56201839254E+02  0.13326673857E+02  0.31994786440E+02  0.66029639791E+02  0.00000000000E+00 0.  1.
         11    1    3    3    0    0 -0.22672955476E+02 -0.21406531379E+02 -0.98343203814E+01  0.32695815529E+02  0.00000000000E+00 0. -1.
        -13    1    4    4    0    0 -0.73491911430E+02 -0.19391096560E+02 -0.10485104429E+02  0.76726873300E+02  0.00000000000E+00 0. -1.
         13    1    4    4    0    0 -0.12243184078E+03 -0.12702742622E+03  0.79116634778E+02  0.19335191892E+03  0.00000000000E+00 0.  1.
          2    1    1    2  501    0  0.16239486844E+03  0.15449838030E+03  0.28039747051E+03  0.35897713615E+03  0.00000000000E+00 0. -1.
<scales pt_clust_5="13000.00000" pt_clust_6="13000.00000" pt_clust_7="13000.00000" pt_clust_8="13000.00000" pt_clust_9="229.54468"></scales>
<clustering>
<clus scale="   89.812">  5  6 -1 -1</clus>
<clus scale="   91.694">  7  8 -1 -1</clus>
<clus scale="   96.206">  2  5  1 -1</clus>
<clus scale="  229.545">  1  9  2 -1</clus>
<clus scale="  229.545">  1  5  2 -1</clus>
</clustering>
</event>
<event>
 9    1  0.1601012E-005  0.1550417E+03  0.7546771E-02  0.1194605E+00
         21   -1    0    0  501  502  0.00000000000E+00  0.00000000000E+00  0.40335471067E+02  0.40335471067E+02  0.00000000000E+00 0. -1.
          1   -1    0    0  502    0 -0.00000000000E+00 -0.00000000000E+00 -0.79121926910E+03  0.79121926910E+03  0.00000000000E+00 0. -1.
         23    2    1    2    0    0 -0.42019148143E+02  0.12430876823E+03 -0.54276060798E+03  0.56585041781E+03  0.91538729964E+02 0.  0.
         23    2    1    2    0    0  0.35438271542E+02 -0.10353895477E+03 -0.18145097079E+03  0.23126451446E+03  0.92642509689E+02 0.  0.
        -11    1    3    3    0    0 -0.47839250543E+02  0.14761225138E+02 -0.15642655521E+03  0.16424297499E+03  0.00000000000E+00 0.  1.
         11    1    3    3    0    0  0.58201024000E+01  0.10954754310E+03 -0.38633405277E+03  0.40160744281E+03  0.00000000000E+00 0. -1.
        -13    1    4    4    0    0  0.96270288587E+00 -0.10669186202E+03 -0.11875882350E+03  0.15964879698E+03  0.00000000000E+00 0.  1.
         13    1    4    4    0    0  0.34475568656E+02  0.31529072455E+01 -0.62692147288E+02  0.71615717478E+02  0.00000000000E+00 0. -1.
          1    1    1    2  501    0  0.65808766013E+01 -0.20769813461E+02 -0.26672219257E+02  0.34439807900E+02  0.00000000000E+00 0. -1.
<scales pt_clust_5="13000.00000" pt_clust_6="13000.00000" pt_clust_7="13000.00000" pt_clust_8="13000.00000" pt_clust_9="21.78745"></scales>
<clustering>
<clus scale="   21.787">  1  9  2 -1</clus>
<clus scale="   91.539">  5  6 -1 -1</clus>
<clus scale="   92.643">  7  8 -1 -1</clus>
<clus scale="  154.385">  2  5  1 -1</clus>
<clus scale="   21.787">  1  5  2 -1</clus>
</clustering>
</event>
<event>
 9    1  0.1601012E-005  0.1565042E+03  0.7546771E-02  0.1193004E+00
         21   -1    0    0  501  502  0.00000000000E+00  0.00000000000E+00  0.67983954504E+03  0.67983954504E+03  0.00000000000E+00 0.  1.
         -1   -1    0    0    0  501 -0.00000000000E+00 -0.00000000000E+00 -0.23311678779E+03  0.23311678779E+03  0.00000000000E+00 0.  1.
         23    2    1    2    0    0  0.94423102690E+01 -0.16371234569E+03 -0.13977381209E+03  0.23545213415E+03  0.94921544315E+02 0.  0.
         23    2    1    2    0    0 -0.22265556918E+02  0.58344679835E+02  0.37421451544E+02  0.11826340470E+03  0.93198772345E+02 0.  0.
        -11    1    3    3    0    0 -0.23192833788E+02 -0.16550529778E+02  0.19415890234E+01  0.28558664937E+02  0.00000000000E+00 0. -1.
         11    1    3    3    0    0  0.32635144057E+02 -0.14716181592E+03 -0.14171540111E+03  0.20689346921E+03  0.00000000000E+00 0.  1.
        -13    1    4    4    0    0 -0.43393708350E+02  0.30073882318E+01  0.39833066489E+02  0.58980772242E+02  0.00000000000E+00 0. -1.
         13    1    4    4    0    0  0.21128151432E+02  0.55337291603E+02 -0.24116149455E+01  0.59282632461E+02  0.00000000000E+00 0.  1.
         -1    1    1    2    0  502  0.12823246649E+02  0.10536766586E+03  0.54907511779E+03  0.55924079397E+03  0.00000000000E+00 0.  1.
<scales pt_clust_5="13000.00000" pt_clust_6="13000.00000" pt_clust_7="13000.00000" pt_clust_8="13000.00000" pt_clust_9="106.14509"></scales>
<clustering>
<clus scale="   93.199">  7  8 -1 -1</clus>
<clus scale="   94.922">  5  6 -1 -1</clus>
<clus scale="  106.145">  1  9  2 -1</clus>
<clus scale="  155.465">  1  7  2 -1</clus>
<clus scale="  106.145">  1  5  2 -1</clus>
</clustering>
</event>
<event>
 9    1  0.1601012E-005  0.1045702E+03  0.7546771E-02  0.1271579E+00
          1   -1    0    0  502    0 -0.00000000000E+00  0.00000000000E+00  0.29426899034E+03  0.29426899034E+03  0.00000000000E+00 0. -1.
         21   -1    0    0  501  502  0.00000000000E+00 -0.00000000000E+00 -0.12441006221E+03  0.12441006221E+03  0.00000000000E+00 0. -1.
         23    2    1    2    0    0  0.31015145888E+01  0.41703069351E+02  0.16994012748E+03  0.19748871287E+03  0.91506171367E+02 0.  0.
         23    2    1    2    0    0 -0.15301501260E+02 -0.59470210142E+02  0.80742031155E+02  0.13754283190E+03  0.92886560798E+02 0.  0.
        -11    1    4    4    0    0 -0.50374802136E+02 -0.12366235157E+02  0.29939217524E+02  0.59890743927E+02  0.00000000000E+00 0. -1.
         11    1    4    4    0    0  0.35073300876E+02 -0.47103974985E+02  0.50802813631E+02  0.77652087973E+02  0.00000000000E+00 0.  1.
        -13    1    3    3    0    0 -0.27383822348E+02  0.37391816837E+02  0.15767755409E+03  0.16434790159E+03  0.00000000000E+00 0. -1.
         13    1    3    3    0    0  0.30485336937E+02  0.43112525136E+01  0.12262573389E+02  0.33140811283E+02  0.00000000000E+00 0.  1.
          1    1    1    2  501    0  0.12199986671E+02  0.17767140791E+02 -0.80823230514E+02  0.83647507777E+02  0.00000000000E+00 0. -1.
<scales pt_clust_5="13000.00000" pt_clust_6="13000.00000" pt_clust_7="13000.00000" pt_clust_8="13000.00000" pt_clust_9="21.55252"></scales>
<clustering>
<clus scale="   21.553">  2  9  1 -1</clus>
<clus scale="   91.506">  7  8 -1 -1</clus>
<clus scale="   92.887">  5  6 -1 -1</clus>
<clus scale="  103.346">  1  7  2 -1</clus>
<clus scale="   21.553">  2  5  1 -1</clus>
</clustering>
</event>
<event>
 9    1  0.1601012E-005  0.2350955E+03  0.7546771E-02  0.1144717E+00
         21   -1    0    0  501  502  0.00000000000E+00  0.00000000000E+00  0.47790068693E+03  0.47790068693E+03  0.00000000000E+00 0. -1.
          2   -1    0    0  502    0 -0.00000000000E+00 -0.00000000000E+00 -0.21754950435E+03  0.21754950435E+03  0.00000000000E+00 0. -1.
         23    2    1    2    0    0  0.10575800772E+03 -0.45077528661E+01  0.22057363146E+02  0.14052097573E+03  0.89747096424E+02 0.  0.
         23    2    1    2    0    0 -0.23549169040E+03  0.14932458670E+03  0.78991748698E+02  0.30357310657E+03  0.90348028338E+02 0.  0.
        -11    1    3    3    0    0  0.86538448572E+02 -0.14519135621E+02 -0.22836071448E+02  0.90670803127E+02  0.00000000000E+00 0.  1.
         11    1    3    3    0    0  0.19219559151E+02  0.10011382755E+02  0.44893434593E+02  0.49850172599E+02  0.00000000000E+00 0. -1.
        -11    1    4    4    0    0 -0.10994234573E+03  0.26561744805E+02  0.55573437832E+01  0.11324190806E+03  0.00000000000E+00 0.  1.
         11    1    4    4    0    0 -0.12554934467E+03  0.12276284190E+03  0.73434404915E+02  0.19033119851E+03  0.00000000000E+00 0. -1.
          2    1    1    2  501    0  0.12973368268E+03 -0.14481683384E+03  0.15930207073E+03  0.25135610899E+03  0.00000000000E+00 0. -1.
<scales pt_clust_5="13000.00000" pt_clust_6="13000.00000" pt_clust_7="13000.00000" pt_clust_8="13000.00000" pt_clust_9="217.04173"></scales>
<clustering>
<clus scale="   89.747">  5  6 -1 -1</clus>
<clus scale="   90.348">  7  8 -1 -1</clus>
<clus scale="  138.779">  2  5  1 -1</clus>
<clus scale="  217.042">  1  9  2 -1</clus>
<clus scale="  217.042">  1  5  2 -1</clus>
</clustering>
</event>
<event>
 9    1  0.1601012E-005  0.1120011E+03  0.7546771E-02  0.1257280E+00
         21   -1    0    0  501  502  0.00000000000E+00  0.00000000000E+00  0.41202590485E+02  0.41202590485E+02  0.00000000000E+00 0. -1.
          1   -1    0    0  502    0 -0.00000000000E+00 -0.00000000000E+00 -0.70185280802E+03  0.70185280802E+03  0.00000000000E+00 0. -1.
         23    2    1    2    0    0  0.64931936722E+02 -0.42813480306E+02 -0.47836033096E+03  0.49430697997E+03  0.97270929405E+02 0.  0.
         23    2    1    2    0    0 -0.12668305746E+02 -0.37940378378E+01 -0.12441153522E+03  0.15789880970E+03  0.96327168107E+02 0.  0.
        -11    1    4    4    0    0 -0.33601102127E+02  0.37499085882E+02 -0.73416454972E+02  0.89023543891E+02  0.00000000000E+00 0.  1.
         11    1    4    4    0    0  0.20932796381E+02 -0.41293123720E+02 -0.50995080245E+02  0.68875265808E+02  0.00000000000E+00 0. -1.
        -11    1    3    3    0    0  0.90707754251E+02 -0.37581688788E+02 -0.38321799061E+03  0.39559614298E+03  0.00000000000E+00 0. -1.
         11    1    3    3    0    0 -0.25775817529E+02 -0.52317915179E+01 -0.95142340357E+02  0.98710836996E+02  0.00000000000E+00 0.  1.
          1    1    1    2  501    0 -0.52263630976E+02  0.46607518144E+02 -0.57878351359E+02  0.90849608840E+02  0.00000000000E+00 0. -1.
<scales pt_clust_5="13000.00000" pt_clust_6="13000.00000" pt_clust_7="13000.00000" pt_clust_8="13000.00000" pt_clust_9="70.02677"></scales>
<clustering>
<clus scale="   70.027">  1  9  2 -1</clus>
<clus scale="   96.327">  5  6 -1 -1</clus>
<clus scale="   97.271">  7  8 -1 -1</clus>
<clus scale="  111.182">  1  5  2 -1</clus>
<clus scale="   70.027">  1  5  2 -1</clus>
</clustering>
</event>
<event>
 9    1  0.1601012E-005  0.1047425E+03  0.7546771E-02  0.1274585E+00
          1   -1    0    0  502    0 -0.00000000000E+00  0.00000000000E+00  0.57758079073E+03  0.57758079073E+03  0.00000000000E+00 0. -1.
         21   -1    0    0  501  502  0.00000000000E+00 -0.00000000000E+00 -0.56329949627E+02  0.56329949627E+02  0.00000000000E+00 0. -1.
         23    2    1    2    0    0  0.45139050183E+02 -0.15835738047E+02  0.23993112165E+03  0.25789452427E+03  0.81574126165E+02 0.  0.
         23    2    1    2    0    0 -0.81820326213E+02 -0.71167586380E+01  0.36789016517E+02  0.12768660087E+03  0.90582681963E+02 0.  0.
        -13    1    4    4    0    0 -0.29812791877E+02 -0.47491040775E+02  0.12055809809E+02  0.57354547017E+02  0.00000000000E+00 0. -1.
         13    1    4    4    0    0 -0.52007534335E+02  0.40374282137E+02  0.24733206708E+02  0.70332053857E+02  0.00000000000E+00 0.  1.
        -13    1    3    3    0    0  0.18379189703E+02 -0.43464079752E+02  0.18440758200E+03  0.19034988085E+03  0.00000000000E+00 0. -1.
         13    1    3    3    0    0  0.26759860480E+02  0.27628341705E+02  0.55523539656E+02  0.67544643416E+02  0.00000000000E+00 0.  1.
          1    1    1    2  501    0  0.36681276029E+02  0.22952496685E+02  0.24453070293E+03  0.24832961521E+03  0.00000000000E+00 0. -1.
<scales pt_clust_5="13000.00000" pt_clust_6="13000.00000" pt_clust_7="13000.00000" pt_clust_8="13000.00000" pt_clust_9="43.27049"></scales>
<clustering>
<clus scale="   43.270">  2  9  1 -1</clus>
<clus scale="   81.574">  7  8 -1 -1</clus>
<clus scale="   90.583">  5  6 -1 -1</clus>
<clus scale="   97.057">  1  7  2 -1</clus>
<clus scale="   43.270">  2  5  1 -1</clus>
</clustering>
</event>
<event>
 9    1  0.1601012E-005  0.1009920E+03  0.7546771E-02  0.1280664E+00
          1   -1    0    0  502    0 -0.00000000000E+00  0.00000000000E+00  0.54981524150E+03  0.54981524150E+03  0.00000000000E+00 0. -1.
         21   -1    0    0  501  502  0.00000000000E+00 -0.00000000000E+00 -0.47459144232E+02  0.47459144232E+02  0.00000000000E+00 0. -1.
         23    2    1    2    0    0 -0.33991475950E+02  0.24560258325E+01  0.32257372076E+03  0.33708364245E+03  0.91706729205E+02 0.  0.
         23    2    1    2    0    0  0.53566808714E+02 -0.24195842075E+02  0.19923146757E+03  0.22506126270E+03  0.86628820421E+02 0.  0.
        -11    1    4    4    0    0 -0.10471861524E+02 -0.22502674559E+02  0.12790948849E+02  0.27922009572E+02  0.00000000000E+00 0.  1.
         11    1    4    4    0    0  0.64038670238E+02 -0.16931675155E+01  0.18644051872E+03  0.19713925312E+03  0.00000000000E+00 0. -1.
        -13    1    3    3    0    0 -0.47901591254E+02 -0.33436529848E+02  0.21644148785E+03  0.22418626550E+03  0.00000000000E+00 0.  1.
         13    1    3    3    0    0  0.13910115305E+02  0.35892555680E+02  0.10613223291E+03  0.11289737696E+03  0.00000000000E+00 0. -1.
          1    1    1    2  501    0 -0.19575332764E+02  0.21739816242E+02 -0.19449091062E+02  0.35129480585E+02  0.00000000000E+00 0. -1.
<scales pt_clust_5="13000.00000" pt_clust_6="13000.00000" pt_clust_7="13000.00000" pt_clust_8="13000.00000" pt_clust_9="29.25429"></scales>
<clustering>
<clus scale="   29.254">  2  9  1 -1</clus>
<clus scale="   86.629">  5  6 -1 -1</clus>
<clus scale="   91.707">  7  8 -1 -1</clus>
<clus scale="   96.404">  2  5  1 -1</clus>
<clus scale="   29.254">  2  5  1 -1</clus>
</clustering>
</event>
<event>
 9    1  0.1601012E-005  0.9371747E+02  0.7546771E-02  0.1294253E+00
         21   -1    0    0  501  502  0.00000000000E+00  0.00000000000E+00  0.31003336831E+03  0.31003336831E+03  0.00000000000E+00 0.  1.
          1   -1    0    0  502    0 -0.00000000000E+00 -0.00000000000E+00 -0.47261067497E+02  0.47261067497E+02  0.00000000000E+00 0. -1.
         23    2    1    2    0    0 -0.80051500213E+00 -0.16277898392E+02  0.54737199164E+02  0.10730526531E+03  0.90844087268E+02 0.  0.
         23    2    1    2    0    0 -0.16200351589E+02  0.27690501547E+02  0.96368751328E+02  0.13646097677E+03  0.91134223437E+02 0.  0.
        -13    1    4    4    0    0 -0.43227886482E+02  0.24013030537E+02  0.97325710486E+02  0.10916762216E+03  0.00000000000E+00 0. -1.
         13    1    4    4    0    0  0.27027534893E+02  0.36774710094E+01 -0.95695915888E+00  0.27293354617E+02  0.00000000000E+00 0.  1.
        -13    1    3    3    0    0  0.14456073857E+02  0.33317482575E+02  0.38518604418E+02  0.52940680037E+02  0.00000000000E+00 0.  1.
         13    1    3    3    0    0 -0.15256588859E+02 -0.49595380967E+02  0.16218594746E+02  0.54364585278E+02  0.00000000000E+00 0. -1.
          1    1    1    2  501    0  0.17000866591E+02 -0.11412603154E+02  0.11166635032E+03  0.11352819372E+03  0.00000000000E+00 0. -1.
<scales pt_clust_5="13000.00000" pt_clust_6="13000.00000" pt_clust_7="13000.00000" pt_clust_8="13000.00000" pt_clust_9="20.47625"></scales>
<clustering>
<clus scale="   20.476">  1  9  2 -1</clus>
<clus scale="   90.844">  7  8 -1 -1</clus>
<clus scale="   91.134">  5  6 -1 -1</clus>
<clus scale="   93.435">  2  7  1 -1</clus>
<clus scale="   20.476">  1  5  2 -1</clus>
</clustering>
</event>
<event>
 9    1  0.6627921E-005  0.2135849E+03  0.7546771E-02  0.1140987E+00
          2   -1    0    0  502    0 -0.00000000000E+00  0.00000000000E+00  0.10701258477E+04  0.10701258477E+04  0.00000000000E+00 0. -1.
         21   -1    0    0  501  502  0.00000000000E+00 -0.00000000000E+00 -0.12894375224E+03  0.12894375224E+03  0.00000000000E+00 0.  1.
         23    2    1    2    0    0 -0.11347639116E+03  0.13447167293E+03  0.85638501508E+03  0.87909904471E+03  0.91979966250E+02 0.  0.
         23    2    1    2    0    0  0.12789059921E+03 -0.18137216219E+03  0.38814427628E+02  0.25272600422E+03  0.11450767149E+03 0.  0.
        -11    1    3    3    0    0  0.10225591424E+02  0.39885425179E+02  0.13703591966E+03  0.14308827044E+03  0.00000000000E+00 0.  1.
         11    1    3    3    0    0 -0.12370198258E+03  0.94586247749E+02  0.71934909542E+03  0.73601077427E+03  0.00000000000E+00 0. -1.
        -11    1    4    4    0    0  0.31304214204E+02 -0.95018816650E+02 -0.32051219210E+02  0.10505146357E+03  0.00000000000E+00 0.  1.
         11    1    4    4    0    0  0.96586385008E+02 -0.86353345542E+02  0.70865646838E+02  0.14767454065E+03  0.00000000000E+00 0. -1.
          2    1    1    2  501    0 -0.14414208054E+02  0.46900489264E+02  0.45982652797E+02  0.67244551045E+02  0.00000000000E+00 0. -1.
<scales pt_clust_5="13000.00000" pt_clust_6="13000.00000" pt_clust_7="13000.00000" pt_clust_8="13000.00000" pt_clust_9="49.06552"></scales>
<clustering>
<clus scale="   49.066">  2  9  1 -1</clus>
<clus scale="   91.980">  5  6 -1 -1</clus>
<clus scale="  114.508">  7  8 -1 -1</clus>
<clus scale="  202.403">  1  5  2 -1</clus>
<clus scale="   49.066">  2  5  1 -1</clus>
</clustering>
</event>
<event>
 9    1  0.1601012E-005  0.1364900E+03  0.7546771E-02  0.1218149E+00
         -1   -1    0    0    0  501 -0.00000000000E+00  0.00000000000E+00  0.94616710187E+03  0.94616710187E+03  0.00000000000E+00 0.  1.
         21   -1    0    0  501  502  0.00000000000E+00 -0.00000000000E+00 -0.30893692810E+02  0.30893692810E+02  0.00000000000E+00 0.  1.
         23    2    1    2    0    0 -0.52473982626E+01  0.96167329672E+02  0.55802732203E+03  0.57350874005E+03  0.90785969754E+02 0.  0.
         23    2    1    2    0    0  0.79304412751E+01 -0.11753292547E+03  0.22613294281E+03  0.27068240425E+03  0.90862399699E+02 0.  0.
        -13    1    4    4    0    0  0.37667877085E+02 -0.12963673777E+02  0.67309332004E+02  0.78214269649E+02  0.00000000000E+00 0. -1.
         13    1    4    4    0    0 -0.29737435810E+02 -0.10456925169E+03  0.15882361080E+03  0.19246813460E+03  0.00000000000E+00 0.  1.
        -13    1    3    3    0    0 -0.40370162834E+02  0.81954923941E+02  0.33258114540E+03  0.34490082326E+03  0.00000000000E+00 0.  1.
         13    1    3    3    0    0  0.35122764571E+02  0.14212405731E+02  0.22544617662E+03  0.22860791680E+03  0.00000000000E+00 0. -1.
         -1    1    1    2    0  502 -0.26830430125E+01  0.21365595794E+02  0.13111314423E+03  0.13286965038E+03  0.00000000000E+00 0.  1.
<scales pt_clust_5="13000.00000" pt_clust_6="13000.00000" pt_clust_7="13000.00000" pt_clust_8="13000.00000" pt_clust_9="21.53341"></scales>
<clustering>
<clus scale="   21.533">  2  9  1 -1</clus>
<clus scale="   90.786">  7  8 -1 -1</clus>
<clus scale="   90.862">  5  6 -1 -1</clus>
<clus scale="  136.439">  1  7  2 -1</clus>
<clus scale="   21.533">  2  5  1 -1</clus>
</clustering>
</event>
<event>
 9    1  0.1601012E-005  0.9119896E+02  0.7546771E-02  0.1300117E+00
          2   -1    0    0  502    0 -0.00000000000E+00  0.00000000000E+00  0.54396774462E+03  0.54396774462E+03  0.00000000000E+00 0. -1.
         21   -1    0    0  501  502  0.00000000000E+00 -0.00000000000E+00 -0.26317812313E+02  0.26317812313E+02  0.00000000000E+00 0.  1.
         23    2    1    2    0    0 -0.80513878886E+01  0.14157409497E+02  0.29738382506E+03  0.31140414117E+03  0.90940324595E+02 0.  0.
         23    2    1    2    0    0 -0.32779342989E+01  0.42460794213E+01  0.21915370984E+03  0.23724165205E+03  0.90699938727E+02 0.  0.
        -13    1    4    4    0    0  0.11941482637E+02  0.40372285032E+02  0.16563367767E+03  0.17090065999E+03  0.00000000000E+00 0.  1.
         13    1    4    4    0    0 -0.15219416936E+02 -0.36126205610E+02  0.53520032174E+02  0.66340992061E+02  0.00000000000E+00 0. -1.
        -13    1    3    3    0    0  0.33474195912E+02  0.23679284476E+02  0.80117772848E+02  0.90000487951E+02  0.00000000000E+00 0.  1.
         13    1    3    3    0    0 -0.41525583801E+02 -0.95218749798E+01  0.21726605221E+03  0.22140365321E+03  0.00000000000E+00 0. -1.
          2    1    1    2  501    0  0.11329322187E+02 -0.18403488918E+02  0.11123973995E+01  0.21639763713E+02  0.00000000000E+00 0. -1.
<scales pt_clust_5="13000.00000" pt_clust_6="13000.00000" pt_clust_7="13000.00000" pt_clust_8="13000.00000" pt_clust_9="21.61115"></scales>
<clustering>
<clus scale="   21.611">  2  9  1 -1</clus>
<clus scale="   90.700">  5  6 -1 -1</clus>
<clus scale="   90.940">  7  8 -1 -1</clus>
<clus scale="   90.959">  2  5  1 -1</clus>
<clus scale="   21.611">  2  5  1 -1</clus>
</clustering>
</event>
<event>
 9    1  0.1601012E-005  0.1136945E+03  0.7546771E-02  0.1253915E+00
         21   -1    0    0  501  502  0.00000000000E+00  0.00000000000E+00  0.21352774434E+03  0.21352774434E+03  0.00000000000E+00 0. -1.
          1   -1    0    0  502    0 -0.00000000000E+00 -0.00000000000E+00 -0.37086270627E+03  0.37086270627E+03  0.00000000000E+00 0. -1.
         23    2    1    2    0    0  0.38901890322E+02 -0.63207233231E+02 -0.25600674052E+03  0.28143872081E+03  0.90331561351E+02 0.  0.
         23    2    1    2    0    0 -0.44226247333E+02  0.39345696252E+02 -0.72526391448E+02  0.13001666930E+03  0.90223123825E+02 0.  0.
        -11    1    3    3    0    0  0.57308679756E+02 -0.26233311750E+02 -0.21162753148E+03  0.22081368504E+03  0.00000000000E+00 0.  1.
         11    1    3    3    0    0 -0.18406789434E+02 -0.36973921481E+02 -0.44379209035E+02  0.60625035765E+02  0.00000000000E+00 0. -1.
        -13    1    4    4    0    0  0.14738481452E+02  0.39394661836E+02 -0.83822124556E+01  0.42888503149E+02  0.00000000000E+00 0.  1.
         13    1    4    4    0    0 -0.58964728785E+02 -0.48965583425E-01 -0.64144178993E+02  0.87128166152E+02  0.00000000000E+00 0. -1.
          1    1    1    2  501    0  0.53243570104E+01  0.23861536978E+02  0.17119817004E+03  0.17293506050E+03  0.00000000000E+00 0. -1.
<scales pt_clust_5="13000.00000" pt_clust_6="13000.00000" pt_clust_7="13000.00000" pt_clust_8="13000.00000" pt_clust_9="24.44835"></scales>
<clustering>
<clus scale="   24.448">  1  9  2 -1</clus>
<clus scale="   90.223">  7  8 -1 -1</clus>
<clus scale="   90.332">  5  6 -1 -1</clus>
<clus scale="  113.608">  1  7  2 -1</clus>
<clus scale="   24.448">  1  5  2 -1</clus>
</clustering>
</event>
<event>
 9    1  0.1601012E-005  0.1562766E+03  0.7546771E-02  0.1193599E+00
         -2   -1    0    0    0  501 -0.00000000000E+00  0.00000000000E+00  0.11189789598E+03  0.11189789598E+03  0.00000000000E+00 0.  1.
         21   -1    0    0  501  502  0.00000000000E+00 -0.00000000000E+00 -0.60588664917E+03  0.60588664917E+03  0.00000000000E+00 0.  1.
         23    2    1    2    0    0 -0.13611003371E+03  0.39517985416E+02  0.17536629210E+02  0.16719480290E+03  0.86942258444E+02 0.  0.
         23    2    1    2    0    0  0.48808893835E+02 -0.35478897715E+02 -0.35472273686E+03  0.37107686556E+03  0.90712511842E+02 0.  0.
        -13    1    4    4    0    0  0.99497240619E+00 -0.55291443668E+02 -0.14862096312E+03  0.15857592627E+03  0.00000000000E+00 0.  1.
         13    1    4    4    0    0  0.47813921429E+02  0.19812545953E+02 -0.20610177374E+03  0.21250093928E+03  0.00000000000E+00 0. -1.
        -13    1    3    3    0    0 -0.63596323905E+02 -0.32977150115E+01 -0.30107826084E+02  0.70440389905E+02  0.00000000000E+00 0. -1.
         13    1    3    3    0    0 -0.72513709809E+02  0.42815700427E+02  0.47644455294E+02  0.96754412993E+02  0.00000000000E+00 0.  1.
         -2    1    1    2    0  502  0.87301139879E+02 -0.40390877010E+01 -0.15680264553E+03  0.17951287669E+03  0.00000000000E+00 0.  1.
<scales pt_clust_5="13000.00000" pt_clust_6="13000.00000" pt_clust_7="13000.00000" pt_clust_8="13000.00000" pt_clust_9="87.39453"></scales>
<clustering>
<clus scale="   86.942">  7  8 -1 -1</clus>
<clus scale="   87.395">  2  9  1 -1</clus>
<clus scale="   90.713">  5  6 -1 -1</clus>
<clus scale="  154.119">  1  7  2 -1</clus>
<clus scale="   87.395">  2  5  1 -1</clus>
</clustering>
</event>
<event>
 9    1  0.1601012E-005  0.1008096E+03  0.7546771E-02  0.1280741E+00
         -3   -1    0    0    0  501 -0.00000000000E+00  0.00000000000E+00  0.97755637847E+02  0.97755637847E+02  0.00000000000E+00 0.  1.
         21   -1    0    0  501  502  0.00000000000E+00 -0.00000000000E+00 -0.15539871632E+03  0.15539871632E+03  0.00000000000E+00 0. -1.
         23    2    1    2    0    0 -0.19934227825E+02 -0.17191060568E+02  0.28798835182E+01  0.99184399752E+02  0.95584232082E+02 0.  0.
         23    2    1    2    0    0  0.12436513667E+02  0.39668084763E+02 -0.13419199752E+02  0.10124238334E+03  0.91333024923E+02 0.  0.
        -13    1    3    3    0    0 -0.32428786249E+02 -0.52396157565E+02 -0.99255031253E+00  0.61627661494E+02  0.00000000000E+00 0.  1.
         13    1    3    3    0    0  0.12494558424E+02  0.35205096997E+02  0.38724338308E+01  0.37556738258E+02  0.00000000000E+00 0. -1.
        -13    1    4    4    0    0  0.40749818635E+02  0.64111153490E+01  0.20384047562E+02  0.46012601685E+02  0.00000000000E+00 0.  1.
         13    1    4    4    0    0 -0.28313304968E+02  0.33256969414E+02 -0.33803247314E+02  0.55229781656E+02  0.00000000000E+00 0. -1.
         -3    1    1    2    0  502  0.74977141574E+01 -0.22477024195E+02 -0.47103762240E+02  0.52727571075E+02  0.00000000000E+00 0.  1.
<scales pt_clust_5="13000.00000" pt_clust_6="13000.00000" pt_clust_7="13000.00000" pt_clust_8="13000.00000" pt_clust_9="23.69456"></scales>
<clustering>
<clus scale="   23.695">  2  9  1 -1</clus>
<clus scale="   91.333">  7  8 -1 -1</clus>
<clus scale="   95.584">  5  6 -1 -1</clus>
<clus scale="   96.788">  2  7  1 -1</clus>
<clus scale="   23.695">  2  5  1 -1</clus>
</clustering>
</event>
<event>
 9    1  0.1601012E-005  0.1865412E+03  0.7546771E-02  0.1161729E+00
         21   -1    0    0  501  502  0.00000000000E+00  0.00000000000E+00  0.78738735912E+02  0.78738735912E+02  0.00000000000E+00 0. -1.
          2   -1    0    0  502    0 -0.00000000000E+00 -0.00000000000E+00 -0.66464077836E+03  0.66464077836E+03  0.00000000000E+00 0. -1.
         23    2    1    2    0    0  0.12824318556E+03 -0.10919574762E+03 -0.39609813946E+03  0.43968555772E+03  0.89775428938E+02 0.  0.
         23    2    1    2    0    0 -0.14574829677E+03  0.60931994813E+02 -0.16831889982E+03  0.24803944987E+03  0.90758154727E+02 0.  0.
        -11    1    3    3    0    0  0.45005851694E+02  0.84042278711E+01 -0.11590293118E+03  0.12461800508E+03  0.00000000000E+00 0.  1.
         11    1    3    3    0    0  0.83237333870E+02 -0.11759997550E+03 -0.28019520827E+03  0.31506755264E+03  0.00000000000E+00 0. -1.
        -11    1    4    4    0    0 -0.95612116284E+02  0.20373153117E+02 -0.42379073258E+02  0.10654918113E+03  0.00000000000E+00 0.  1.
         11    1    4    4    0    0 -0.50136180486E+02  0.40558841696E+02 -0.12593982656E+03  0.14149026874E+03  0.00000000000E+00 0. -1.
          2    1    1    2  501    0  0.17505111207E+02  0.48263752812E+02 -0.21485003172E+02  0.55654506692E+02  0.00000000000E+00 0. -1.
<scales pt_clust_5="13000.00000" pt_clust_6="13000.00000" pt_clust_7="13000.00000" pt_clust_8="13000.00000" pt_clust_9="51.34023"></scales>
<clustering>
<clus scale="   51.340">  1  9  2 -1</clus>
<clus scale="   89.775">  5  6 -1 -1</clus>
<clus scale="   90.758">  7  8 -1 -1</clus>
<clus scale="  186.065">  2  5  1 -1</clus>
<clus scale="   51.340">  1  5  2 -1</clus>
</clustering>
</event>
<event>
 9    1  0.1601012E-005  0.1102133E+03  0.7546771E-02  0.1261061E+00
          3   -1    0    0  502    0 -0.00000000000E+00  0.00000000000E+00  0.66266245615E+02  0.66266245615E+02  0.00000000000E+00 0. -1.
         21   -1    0    0  501  502  0.00000000000E+00 -0.00000000000E+00 -0.61782711275E+03  0.61782711275E+03  0.00000000000E+00 0.  1.
         23    2    1    2    0    0  0.56370408292E+02 -0.68460752474E+01  0.18609881748E+01  0.10881523828E+03  0.92805178343E+02 0.  0.
         23    2    1    2    0    0 -0.80215545952E+02  0.27580558485E+02 -0.46911393616E+03  0.48524293465E+03  0.90540595925E+02 0.  0.
        -11    1    4    4    0    0 -0.55894244922E+02 -0.26794387186E+02 -0.19042567303E+03  0.20025993796E+03  0.00000000000E+00 0. -1.
         11    1    4    4    0    0 -0.24321301031E+02  0.54374945671E+02 -0.27868826313E+03  0.28498299670E+03  0.00000000000E+00 0.  1.
        -11    1    3    3    0    0  0.65415951232E+02  0.13852388456E+02  0.29529732711E+02  0.73096788271E+02  0.00000000000E+00 0. -1.
         11    1    3    3    0    0 -0.90455429400E+01 -0.20698463703E+02 -0.27668744536E+02  0.35718450008E+02  0.00000000000E+00 0.  1.
          3    1    1    2  501    0  0.23845137660E+02 -0.20734483238E+02 -0.84307919147E+02  0.90035185434E+02  0.00000000000E+00 0. -1.
<scales pt_clust_5="13000.00000" pt_clust_6="13000.00000" pt_clust_7="13000.00000" pt_clust_8="13000.00000" pt_clust_9="31.59920"></scales>
<clustering>
<clus scale="   31.599">  2  9  1 -1</clus>
<clus scale="   90.541">  5  6 -1 -1</clus>
<clus scale="   92.805">  7  8 -1 -1</clus>
<clus scale="  108.313">  2  5  1 -1</clus>
<clus scale="   31.599">  2  5  1 -1</clus>
</clustering>
</event>
<event>
 9    1  0.1601012E-005  0.1977084E+03  0.7546771E-02  0.1151913E+00
         21   -1    0    0  501  502  0.00000000000E+00  0.00000000000E+00  0.83763500662E+02  0.83763500662E+02  0.00000000000E+00 0.  1.
         -4   -1    0    0    0  501 -0.00000000000E+00 -0.00000000000E+00 -0.59922418685E+03  0.59922418685E+03  0.00000000000E+00 0.  1.
         23    2    1    2    0    0 -0.15170927794E+03 -0.26243340559E+02 -0.20302504957E+03  0.27073325420E+03  0.91503585935E+02 0.  0.
         23    2    1    2    0    0  0.19311517126E+03  0.26767845258E+02 -0.29832928601E+03  0.36850843653E+03  0.93744962488E+02 0.  0.
        -13    1    3    3    0    0 -0.18101362364E+02 -0.30433266600E+02 -0.11612711684E+02  0.37265239943E+02  0.00000000000E+00 0.  1.
         13    1    3    3    0    0 -0.13360791558E+03  0.41899260410E+01 -0.19141233789E+03  0.23346801425E+03  0.00000000000E+00 0. -1.
        -13    1    4    4    0    0  0.60863086485E+02 -0.31128553345E+02 -0.66297356118E+02  0.95229415403E+02  0.00000000000E+00 0.  1.
         13    1    4    4    0    0  0.13225208478E+03  0.57896398603E+02 -0.23203192989E+03  0.27327902113E+03  0.00000000000E+00 0. -1.
         -4    1    1    2    0  502 -0.41405893323E+02 -0.52450469882E+00 -0.14106350612E+02  0.43745996784E+02  0.00000000000E+00 0.  1.
<scales pt_clust_5="13000.00000" pt_clust_6="13000.00000" pt_clust_7="13000.00000" pt_clust_8="13000.00000" pt_clust_9="41.40922"></scales>
<clustering>
<clus scale="   41.409">  1  9  2 -1</clus>
<clus scale="   91.504">  5  6 -1 -1</clus>
<clus scale="   93.745">  7  8 -1 -1</clus>
<clus scale="  196.656">  2  5  1 -1</clus>
<clus scale="   41.409">  1  5  2 -1</clus>
</clustering>
</event>
<event>
 9    1  0.1601012E-005  0.9626663E+02  0.7546771E-02  0.1289284E+00
          1   -1    0    0  502    0 -0.00000000000E+00  0.00000000000E+00  0.59841211065E+03  0.59841211065E+03  0.00000000000E+00 0. -1.
         21   -1    0    0  501  502  0.00000000000E+00 -0.00000000000E+00 -0.97552966685E+02  0.97552966685E+02  0.00000000000E+00 0.  1.
         23    2    1    2    0    0  0.32516910892E+02  0.11021009956E+02  0.42898535943E+03  0.43991966529E+03  0.91225331750E+02 0.  0.
         23    2    1    2    0    0  0.27189685698E+02 -0.35824145259E+02  0.13210808345E+03  0.16768114345E+03  0.92961130408E+02 0.  0.
        -13    1    4    4    0    0  0.11917711689E+02 -0.65552881608E+02  0.66963532537E+02  0.94463362363E+02  0.00000000000E+00 0.  1.
         13    1    4    4    0    0  0.15271974009E+02  0.29728736348E+02  0.65144550909E+02  0.73217781092E+02  0.00000000000E+00 0. -1.
        -13    1    3    3    0    0  0.58174637058E+02  0.29780166900E+02  0.30520174121E+03  0.31212056897E+03  0.00000000000E+00 0. -1.
         13    1    3    3    0    0 -0.25657726166E+02 -0.18759156944E+02  0.12378361822E+03  0.12779909632E+03  0.00000000000E+00 0.  1.
          1    1    1    2  501    0 -0.59706596590E+02  0.24803135304E+02 -0.60234298912E+02  0.88364268585E+02  0.00000000000E+00 0. -1.
<scales pt_clust_5="13000.00000" pt_clust_6="13000.00000" pt_clust_7="13000.00000" pt_clust_8="13000.00000" pt_clust_9="64.65349"></scales>
<clustering>
<clus scale="   64.653">  2  9  1 -1</clus>
<clus scale="   91.225">  7  8 -1 -1</clus>
<clus scale="   92.961">  5  6 -1 -1</clus>
<clus scale="   94.592">  1  7  2 -1</clus>
<clus scale="   64.653">  2  5  1 -1</clus>
</clustering>
</event>
<event>
 9    1  0.1601012E-005  0.9923751E+02  0.7546771E-02  0.1282496E+00
         -1   -1    0    0    0  501 -0.00000000000E+00  0.00000000000E+00  0.27776503809E+03  0.27776503809E+03  0.00000000000E+00 0.  1.
         21   -1    0    0  501  502  0.00000000000E+00 -0.00000000000E+00 -0.95077111046E+02  0.95077111046E+02  0.00000000000E+00 0.  1.
         23    2    1    2    0    0  0.42219005208E+02 -0.10634808839E+02  0.13960645939E+03  0.17207870419E+03  0.90694946780E+02 0.  0.
         23    2    1    2    0    0 -0.24571948980E+02  0.20829375441E+02  0.10044246879E+03  0.13988954058E+03  0.91884440849E+02 0.  0.
        -11    1    3    3    0    0  0.60693294950E+02 -0.19579842292E+02  0.13734467977E+03  0.15142855523E+03  0.00000000000E+00 0.  1.
         11    1    3    3    0    0 -0.18474289742E+02  0.89450334534E+01  0.22617796130E+01  0.20650148957E+02  0.00000000000E+00 0. -1.
        -13    1    4    4    0    0  0.28537935930E+02  0.32222738157E+02  0.43642483407E+02  0.61297512179E+02  0.00000000000E+00 0.  1.
         13    1    4    4    0    0 -0.53109884910E+02 -0.11393362716E+02  0.56799985378E+02  0.78592028401E+02  0.00000000000E+00 0. -1.
         -1    1    1    2    0  502 -0.17647056228E+02 -0.10194566602E+02 -0.57361001133E+02  0.60873904366E+02  0.00000000000E+00 0.  1.
<scales pt_clust_5="13000.00000" pt_clust_6="13000.00000" pt_clust_7="13000.00000" pt_clust_8="13000.00000" pt_clust_9="20.38008"></scales>
<clustering>
<clus scale="   20.380">  2  9  1 -1</clus>
<clus scale="   90.695">  5  6 -1 -1</clus>
<clus scale="   91.884">  7  8 -1 -1</clus>
<clus scale="   98.137">  1  5  2 -1</clus>
<clus scale="   20.380">  2  5  1 -1</clus>
</clustering>
</event>
<event>
 9    1  0.1601012E-005  0.9822627E+02  0.7546771E-02  0.1284593E+00
         -3   -1    0    0    0  501 -0.00000000000E+00  0.00000000000E+00  0.15294172766E+03  0.15294172766E+03  0.00000000000E+00 0.  1.
         21   -1    0    0  501  502  0.00000000000E+00 -0.00000000000E+00 -0.31372691186E+03  0.31372691186E+03  0.00000000000E+00 0. -1.
         23    2    1    2    0    0  0.11512321839E+02 -0.39968494844E+02  0.97490514614E+02  0.14038759439E+03  0.92055755303E+02 0.  0.
         23    2    1    2    0    0  0.40419587490E+02 -0.56663735193E+01 -0.64076304736E+02  0.12014305960E+03  0.93073793834E+02 0.  0.
        -13    1    4    4    0    0  0.46095496641E+02  0.13919767697E+02  0.47256902172E+01  0.48382712732E+02  0.00000000000E+00 0. -1.
         13    1    4    4    0    0 -0.56759091505E+01 -0.19586141216E+02 -0.68801994953E+02  0.71760346863E+02  0.00000000000E+00 0.  1.
        -13    1    3    3    0    0 -0.28841783205E+02 -0.29963009444E+02  0.88594651025E+02  0.97870539917E+02  0.00000000000E+00 0.  1.
         13    1    3    3    0    0  0.40354105044E+02 -0.10005485399E+02  0.88958635888E+01  0.42517054472E+02  0.00000000000E+00 0. -1.
         -3    1    1    2    0  502 -0.51931909330E+02  0.45634868363E+02 -0.19419939408E+03  0.20613798553E+03  0.00000000000E+00 0.  1.
<scales pt_clust_5="13000.00000" pt_clust_6="13000.00000" pt_clust_7="13000.00000" pt_clust_8="13000.00000" pt_clust_9="69.13367"></scales>
<clustering>
<clus scale="   69.134">  2  9  1 -1</clus>
<clus scale="   92.056">  7  8 -1 -1</clus>
<clus scale="   93.074">  5  6 -1 -1</clus>
<clus scale="   97.262">  1  7  2 -1</clus>
<clus scale="   69.134">  2  5  1 -1</clus>
</clustering>
</event>
<event>
 9    1  0.1601012E-005  0.9481889E+02  0.7546771E-02  0.1291997E+00
         21   -1    0    0  501  502  0.00000000000E+00  0.00000000000E+00  0.10362835581E+03  0.10362835581E+03  0.00000000000E+00 0. -1.
          1   -1    0    0  502    0 -0.00000000000E+00 -0.00000000000E+00 -0.54327364173E+03  0.54327364173E+03  0.00000000000E+00 0. -1.
         23    2    1    2    0    0  0.25676095741E+02  0.16540655441E+02 -0.37981688835E+03  0.39189492181E+03  0.91585511354E+02 0.  0.
         23    2    1    2    0    0 -0.20930048598E+02  0.47002885332E+02 -0.12567527587E+03  0.16337674276E+03  0.90831420472E+02 0.  0.
        -11    1    4    4    0    0 -0.47651395732E+02  0.26677719591E+02 -0.30714097073E+02  0.62655502526E+02  0.00000000000E+00 0. -1.
         11    1    4    4    0    0  0.26721347134E+02  0.20325165742E+02 -0.94961178801E+02  0.10072124023E+03  0.00000000000E+00 0.  1.
        -13    1    3    3    0    0  0.15239728141E+02 -0.36618296654E+02 -0.11660964069E+03  0.12317043990E+03  0.00000000000E+00 0.  1.
         13    1    3    3    0    0  0.10436367601E+02  0.53158952095E+02 -0.26320724767E+03  0.26872448191E+03  0.00000000000E+00 0. -1.
          1    1    1    2  501    0 -0.47460471435E+01 -0.63543540773E+02  0.65846878306E+02  0.91630332970E+02  0.00000000000E+00 0. -1.
<scales pt_clust_5="13000.00000" pt_clust_6="13000.00000" pt_clust_7="13000.00000" pt_clust_8="13000.00000" pt_clust_9="63.72053"></scales>
<clustering>
<clus scale="   63.721">  1  9  2 -1</clus>
<clus scale="   90.831">  5  6 -1 -1</clus>
<clus scale="   91.586">  7  8 -1 -1</clus>
<clus scale="   94.091">  1  5  2 -1</clus>
<clus scale="   63.721">  1  5  2 -1</clus>
</clustering>
</event>
<event>
 9    1  0.1601012E-005  0.1923567E+03  0.7546771E-02  0.1156406E+00
         21   -1    0    0  501  502  0.00000000000E+00  0.00000000000E+00  0.39007342694E+03  0.39007342694E+03  0.00000000000E+00 0.  1.
          2   -1    0    0  502    0 -0.00000000000E+00 -0.00000000000E+00 -0.16415973621E+03  0.16415973621E+03  0.00000000000E+00 0. -1.
         23    2    1    2    0    0 -0.34218244603E+02 -0.14657983487E+03  0.76062075917E+01  0.17531464253E+03  0.89559104710E+02 0.  0.
         23    2    1    2    0    0  0.22364368111E+02  0.21825245912E+03  0.16002495853E+03  0.28578242595E+03  0.89046654939E+02 0.  0.
        -11    1    4    4    0    0 -0.12597857202E+02  0.13320702842E+03  0.51080495097E+02  0.14322023393E+03  0.00000000000E+00 0.  1.
         11    1    4    4    0    0  0.34962225313E+02  0.85045430703E+02  0.10894446343E+03  0.14256219202E+03  0.00000000000E+00 0. -1.
        -13    1    3    3    0    0  0.14315698828E+02 -0.37854267923E+02  0.34578862506E+02  0.53231405816E+02  0.00000000000E+00 0.  1.
         13    1    3    3    0    0 -0.48533943431E+02 -0.10872556695E+03 -0.26972654915E+02  0.12208323671E+03  0.00000000000E+00 0. -1.
          2    1    1    2  501    0  0.11853876492E+02 -0.71672624251E+02  0.58282524615E+02  0.93136094670E+02  0.00000000000E+00 0. -1.
<scales pt_clust_5="13000.00000" pt_clust_6="13000.00000" pt_clust_7="13000.00000" pt_clust_8="13000.00000" pt_clust_9="72.64626"></scales>
<clustering>
<clus scale="   72.646">  1  9  2 -1</clus>
<clus scale="   89.047">  5  6 -1 -1</clus>
<clus scale="   89.559">  7  8 -1 -1</clus>
<clus scale="  192.119">  1  5  2 -1</clus>
<clus scale="   72.646">  1  5  2 -1</clus>
</clustering>
</event>
<event>
 9    1  0.1601012E-005  0.9611984E+02  0.7546771E-02  0.1288912E+00
         21   -1    0    0  501  502  0.00000000000E+00  0.00000000000E+00  0.74422083373E+02  0.74422083373E+02  0.00000000000E+00 0.  1.
         -2   -1    0    0    0  501 -0.00000000000E+00 -0.00000000000E+00 -0.40200092582E+03  0.40200092582E+03  0.00000000000E+00 0.  1.
         23    2    1    2    0    0  0.48927573673E+02 -0.89484102778E+01 -0.19786920720E+03  0.22355176182E+03  0.91373877800E+02 0.  0.
         23    2    1    2    0    0 -0.51151793002E+01 -0.32593212148E+02 -0.15873371765E+03  0.18588147462E+03  0.90923302563E+02 0.  0.
        -11    1    3    3    0    0  0.78324335567E+01  0.25193538709E+02 -0.99692609303E+01  0.28203680108E+02  0.00000000000E+00 0. -1.
         11    1    3    3    0    0  0.41095140117E+02 -0.34141948987E+02 -0.18789994627E+03  0.19534808172E+03  0.00000000000E+00 0.  1.
        -13    1    4    4    0    0 -0.35729327071E+02  0.12781085393E+02 -0.92346481871E+02  0.99838938650E+02  0.00000000000E+00 0. -1.
         13    1    4    4    0    0  0.30614147771E+02 -0.45374297541E+02 -0.66387235779E+02  0.86042535966E+02  0.00000000000E+00 0.  1.
         -2    1    1    2    0  502 -0.43812394373E+02  0.41541622426E+02  0.29024082401E+02  0.66989772755E+02  0.00000000000E+00 0.  1.
<scales pt_clust_5="13000.00000" pt_clust_6="13000.00000" pt_clust_7="13000.00000" pt_clust_8="13000.00000" pt_clust_9="60.37576"></scales>
<clustering>
<clus scale="   60.376">  1  9  2 -1</clus>
<clus scale="   90.923">  7  8 -1 -1</clus>
<clus scale="   91.374">  5  6 -1 -1</clus>
<clus scale="   95.692">  1  7  2 -1</clus>
<clus scale="   60.376">  1  5  2 -1</clus>
</clustering>
</event>
<event>
 9    1  0.1601012E-005  0.9431854E+02  0.7546771E-02  0.1293294E+00
         21   -1    0    0  501  502  0.00000000000E+00  0.00000000000E+00  0.36614974496E+03  0.36614974496E+03  0.00000000000E+00 0.  1.
          2   -1    0    0  502    0 -0.00000000000E+00 -0.00000000000E+00 -0.33014304408E+02  0.33014304408E+02  0.00000000000E+00 0. -1.
         23    2    1    2    0    0  0.12502737008E+02  0.15050922138E+01  0.11522121513E+03  0.14759368380E+03  0.91374960170E+02 0.  0.
         23    2    1    2    0    0 -0.36513873516E+02 -0.12005695299E+00  0.14420698373E+03  0.17403836909E+03  0.90335056253E+02 0.  0.
        -11    1    3    3    0    0  0.22890643249E+02  0.42545075046E+02  0.74903796540E+02  0.89132730773E+02  0.00000000000E+00 0. -1.
         11    1    3    3    0    0 -0.10387906241E+02 -0.41039982832E+02  0.40317418588E+02  0.58460953024E+02  0.00000000000E+00 0.  1.
        -13    1    4    4    0    0 -0.55106759898E+02  0.16554670920E+02  0.48894691350E+02  0.75508297279E+02  0.00000000000E+00 0.  1.
         13    1    4    4    0    0  0.18592886382E+02 -0.16674727873E+02  0.95312292378E+02  0.98530071816E+02  0.00000000000E+00 0. -1.
          2    1    1    2  501    0  0.24011136508E+02 -0.13850352609E+01  0.73707241692E+02  0.77531996472E+02  0.00000000000E+00 0. -1.
<scales pt_clust_5="13000.00000" pt_clust_6="13000.00000" pt_clust_7="13000.00000" pt_clust_8="13000.00000" pt_clust_9="24.05105"></scales>
<clustering>
<clus scale="   24.051">  1  9  2 -1</clus>
<clus scale="   90.335">  7  8 -1 -1</clus>
<clus scale="   91.375">  5  6 -1 -1</clus>
<clus scale="   93.311">  1  7  2 -1</clus>
<clus scale="   24.051">  1  5  2 -1</clus>
</clustering>
</event>
<event>
 9    1  0.1601012E-005  0.9334569E+02  0.7546771E-02  0.1296158E+00
          2   -1    0    0  502    0 -0.00000000000E+00  0.00000000000E+00  0.15074426949E+03  0.15074426949E+03  0.00000000000E+00 0. -1.
         21   -1    0    0  501  502  0.00000000000E+00 -0.00000000000E+00 -0.17977562802E+03  0.17977562802E+03  0.00000000000E+00 0. -1.
         23    2    1    2    0    0  0.16023134463E+02 -0.17474537158E+02  0.52692111141E+02  0.10619323435E+03  0.89097946996E+02 0.  0.
         23    2    1    2    0    0  0.72916693955E+02  0.25429965491E+02 -0.50114412608E+02  0.12960225021E+03  0.91223689394E+02 0.  0.
        -11    1    3    3    0    0 -0.33276399862E+02  0.68666143373E+01  0.69703408224E+01  0.34685080819E+02  0.00000000000E+00 0.  1.
         11    1    3    3    0    0  0.49299534325E+02 -0.24341151495E+02  0.45721770319E+02  0.71508153534E+02  0.00000000000E+00 0. -1.
        -13    1    4    4    0    0  0.88702965183E+02  0.13079958594E+02 -0.59358394659E+02  0.10753009051E+03  0.00000000000E+00 0. -1.
         13    1    4    4    0    0 -0.15786271228E+02  0.12350006897E+02  0.92439820506E+01  0.22072159699E+02  0.00000000000E+00 0.  1.
          2    1    1    2  501    0 -0.88939828418E+02 -0.79554283335E+01 -0.31609057061E+02  0.94724412943E+02  0.00000000000E+00 0. -1.
<scales pt_clust_5="13000.00000" pt_clust_6="13000.00000" pt_clust_7="13000.00000" pt_clust_8="13000.00000" pt_clust_9="89.29492"></scales>
<clustering>
<clus scale="   89.098">  5  6 -1 -1</clus>
<clus scale="   89.295">  2  9  1 -1</clus>
<clus scale="   91.224">  7  8 -1 -1</clus>
<clus scale="   91.269">  1  5  2 -1</clus>
<clus scale="   89.295">  2  5  1 -1</clus>
</clustering>
</event>
<event>
 9    1  0.1601012E-005  0.8780268E+02  0.7546771E-02  0.1310775E+00
         21   -1    0    0  501  502  0.00000000000E+00  0.00000000000E+00  0.15288590772E+03  0.15288590772E+03  0.00000000000E+00 0.  1.
          1   -1    0    0  502    0 -0.00000000000E+00 -0.00000000000E+00 -0.79278622091E+02  0.79278622091E+02  0.00000000000E+00 0. -1.
         23    2    1    2    0    0 -0.86483496858E+01 -0.39814757519E+00 -0.16451742215E+02  0.85862288939E+02  0.83825535287E+02 0.  0.
         23    2    1    2    0    0 -0.14069770702E+02  0.74610840694E+01  0.58006690091E+02  0.10638544715E+03  0.87746572847E+02 0.  0.
        -11    1    3    3    0    0 -0.68882239066E+01  0.33205973030E+02 -0.33905563782E+02  0.47954890562E+02  0.00000000000E+00 0. -1.
         11    1    3    3    0    0 -0.17601257792E+01 -0.33604120605E+02  0.17453821567E+02  0.37907398377E+02  0.00000000000E+00 0.  1.
        -13    1    4    4    0    0 -0.81421906580E+01  0.40521825151E+02  0.23741938554E+01  0.41399883801E+02  0.00000000000E+00 0. -1.
         13    1    4    4    0    0 -0.59275800438E+01 -0.33060741082E+02  0.55632496236E+02  0.64985563346E+02  0.00000000000E+00 0.  1.
          1    1    1    2  501    0  0.22718120388E+02 -0.70629364942E+01  0.32052337755E+02  0.39916793727E+02  0.00000000000E+00 0. -1.
<scales pt_clust_5="13000.00000" pt_clust_6="13000.00000" pt_clust_7="13000.00000" pt_clust_8="13000.00000" pt_clust_9="23.79071"></scales>
<clustering>
<clus scale="   23.791">  1  9  2 -1</clus>
<clus scale="   83.826">  5  6 -1 -1</clus>
<clus scale="   83.884">  2  5  1 -1</clus>
<clus scale="   87.747">  7  8 -1 -1</clus>
<clus scale="   23.791">  1  5  2 -1</clus>
</clustering>
</event>
<event>
 9    1  0.1601012E-005  0.2081264E+03  0.7546771E-02  0.1143597E+00
          1   -1    0    0  502    0 -0.00000000000E+00  0.00000000000E+00  0.63698141284E+03  0.63698141284E+03  0.00000000000E+00 0. -1.
         21   -1    0    0  501  502  0.00000000000E+00 -0.00000000000E+00 -0.10056188960E+03  0.10056188960E+03  0.00000000000E+00 0. -1.
         23    2    1    2    0    0 -0.16159859836E+03 -0.94171706202E+02  0.23933887973E+03  0.31847016032E+03  0.95696010489E+02 0.  0.
         23    2    1    2    0    0  0.19137537653E+03  0.16224662268E+02  0.21901580431E+03  0.30480802366E+03  0.89734242851E+02 0.  0.
        -11    1    3    3    0    0 -0.12515306381E+03 -0.11162768273E+03  0.17412541165E+03  0.24175129351E+03  0.00000000000E+00 0. -1.
         11    1    3    3    0    0 -0.36445534546E+02  0.17455976530E+02  0.65213468076E+02  0.76718866803E+02  0.00000000000E+00 0.  1.
        -13    1    4    4    0    0  0.44162719367E+02 -0.34752887581E+02  0.57203312794E+02  0.80189325796E+02  0.00000000000E+00 0.  1.
         13    1    4    4    0    0  0.14721265717E+03  0.50977549848E+02  0.16181249152E+03  0.22461869786E+03  0.00000000000E+00 0. -1.
          1    1    1    2  501    0 -0.29776778177E+02  0.77947043934E+02  0.78064839204E+02  0.11426511846E+03  0.00000000000E+00 0. -1.
<scales pt_clust_5="13000.00000" pt_clust_6="13000.00000" pt_clust_7="13000.00000" pt_clust_8="13000.00000" pt_clust_9="83.44099"></scales>
<clustering>
<clus scale="   83.441">  2  9  1 -1</clus>
<clus scale="   89.734">  7  8 -1 -1</clus>
<clus scale="   95.696">  5  6 -1 -1</clus>
<clus scale="  205.453">  2  7  1 -1</clus>
<clus scale="   83.441">  2  5  1 -1</clus>
</clustering>
</event>
<event>
 9    1  0.1601012E-005  0.1274005E+03  0.7546771E-02  0.1232539E+00
          2   -1    0    0  502    0 -0.00000000000E+00  0.00000000000E+00  0.49562334236E+03  0.49562334236E+03  0.00000000000E+00 0. -1.
         21   -1    0    0  501  502  0.00000000000E+00 -0.00000000000E+00 -0.56036701378E+02  0.56036701378E+02  0.00000000000E+00 0. -1.
         23    2    1    2    0    0  0.54822389170E+02 -0.78368151827E+02  0.30942626753E+03  0.33770085435E+03  0.95656627670E+02 0.  0.
         23    2    1    2    0    0 -0.34782828325E+02  0.58478346140E+02  0.14301205660E+03  0.18293735629E+03  0.91564544892E+02 0.  0.
        -11    1    4    4    0    0  0.97866312734E+00  0.74269041380E+02  0.83735147665E+02  0.11193043931E+03  0.00000000000E+00 0.  1.
         11    1    4    4    0    0 -0.35761491453E+02 -0.15790695240E+02  0.59276908934E+02  0.71006916986E+02  0.00000000000E+00 0. -1.
        -13    1    3    3    0    0  0.42581126929E+02 -0.12851117299E+02  0.38912881535E+02  0.59097512095E+02  0.00000000000E+00 0.  1.
         13    1    3    3    0    0  0.12241262241E+02 -0.65517034527E+02  0.27051338599E+03  0.27860334226E+03  0.00000000000E+00 0. -1.
          2    1    1    2  501    0 -0.20039560844E+02  0.19889805687E+02 -0.12851683143E+02  0.31021833097E+02  0.00000000000E+00 0. -1.
<scales pt_clust_5="13000.00000" pt_clust_6="13000.00000" pt_clust_7="13000.00000" pt_clust_8="13000.00000" pt_clust_9="28.23452"></scales>
<clustering>
<clus scale="   28.235">  2  9  1 -1</clus>
<clus scale="   91.565">  5  6 -1 -1</clus>
<clus scale="   95.657">  7  8 -1 -1</clus>
<clus scale="  124.357">  2  5  1 -1</clus>
<clus scale="   28.235">  2  5  1 -1</clus>
</clustering>
</event>
<event>
 9    1  0.1601012E-005  0.1319171E+03  0.7546771E-02  0.1241989E+00
         21   -1    0    0  501  502  0.00000000000E+00  0.00000000000E+00  0.16835673304E+03  0.16835673304E+03  0.00000000000E+00 0. -1.
          2   -1    0    0  502    0 -0.00000000000E+00 -0.00000000000E+00 -0.10362870672E+04  0.10362870672E+04  0.00000000000E+00 0. -1.
         23    2    1    2    0    0  0.69688509268E+00 -0.79711240591E+01 -0.31283805713E+03  0.32619130232E+03  0.92027665687E+02 0.  0.
         23    2    1    2    0    0  0.82819026779E+02 -0.39329774528E+02 -0.69607006827E+03  0.70790332571E+03  0.90596667929E+02 0.  0.
        -11    1    3    3    0    0 -0.14337376790E+02  0.38102637005E+02 -0.18614621655E+03  0.19054601873E+03  0.00000000000E+00 0.  1.
         11    1    3    3    0    0  0.15034261882E+02 -0.46073761064E+02 -0.12669184058E+03  0.13564528359E+03  0.00000000000E+00 0. -1.
        -11    1    4    4    0    0  0.74623921245E+02 -0.66492993159E+02 -0.56812565487E+03  0.57685076708E+03  0.00000000000E+00 0. -1.
         11    1    4    4    0    0  0.81951055336E+01  0.27163218631E+02 -0.12794441341E+03  0.13105255863E+03  0.00000000000E+00 0.  1.
          2    1    1    2  501    0 -0.83515911872E+02  0.47300898587E+02  0.14097779121E+03  0.17054917225E+03  0.00000000000E+00 0. -1.
<scales pt_clust_5="13000.00000" pt_clust_6="13000.00000" pt_clust_7="13000.00000" pt_clust_8="13000.00000" pt_clust_9="95.88719"></scales>
<clustering>
<clus scale="   90.597">  7  8 -1 -1</clus>
<clus scale="   92.028">  5  6 -1 -1</clus>
<clus scale="   92.375">  2  5  1 -1</clus>
<clus scale="   95.887">  1  9  2 -1</clus>
<clus scale="   95.887">  1  5  2 -1</clus>
</clustering>
</event>
<event>
 9    1  0.1601012E-005  0.1027825E+03  0.7546771E-02  0.1275466E+00
         21   -1    0    0  501  502  0.00000000000E+00  0.00000000000E+00  0.87539415141E+02  0.87539415141E+02  0.00000000000E+00 0. -1.
          2   -1    0    0  502    0 -0.00000000000E+00 -0.00000000000E+00 -0.57651775456E+03  0.57651775456E+03  0.00000000000E+00 0. -1.
         23    2    1    2    0    0  0.20350249021E+02  0.45374078187E+02 -0.36537109106E+03  0.37916149172E+03  0.88286256064E+02 0.  0.
         23    2    1    2    0    0  0.13472433071E+01 -0.51035276486E+02 -0.18908694092E+03  0.21568281445E+03  0.90326024571E+02 0.  0.
        -11    1    3    3    0    0 -0.32289541790E+02  0.14248779534E+02 -0.82102079483E+02  0.89366625105E+02  0.00000000000E+00 0.  1.
         11    1    3    3    0    0  0.52639790812E+02  0.31125298653E+02 -0.28326901158E+03  0.28979486661E+03  0.00000000000E+00 0. -1.
        -13    1    4    4    0    0 -0.13201277846E+02 -0.73454913731E+02 -0.11674235243E+03  0.13855928312E+03  0.00000000000E+00 0.  1.
         13    1    4    4    0    0  0.14548521153E+02  0.22419637246E+02 -0.72344588482E+02  0.77123531329E+02  0.00000000000E+00 0. -1.
          2    1    1    2  501    0 -0.21697492329E+02  0.56611982986E+01  0.65479692564E+02  0.69212863528E+02  0.00000000000E+00 0. -1.
<scales pt_clust_5="13000.00000" pt_clust_6="13000.00000" pt_clust_7="13000.00000" pt_clust_8="13000.00000" pt_clust_9="22.42388"></scales>
<clustering>
<clus scale="   22.424">  1  9  2 -1</clus>
<clus scale="   88.286">  5  6 -1 -1</clus>
<clus scale="   90.326">  7  8 -1 -1</clus>
<clus scale="  100.995">  2  5  1 -1</clus>
<clus scale="   22.424">  1  5  2 -1</clus>
</clustering>
</event>
<event>
 9    1  0.1601012E-005  0.1457782E+03  0.7546771E-02  0.1207594E+00
          1   -1    0    0  502    0 -0.00000000000E+00  0.00000000000E+00  0.31464763075E+03  0.31464763075E+03  0.00000000000E+00 0. -1.
         21   -1    0    0  501  502  0.00000000000E+00 -0.00000000000E+00 -0.80569155194E+02  0.80569155194E+02  0.00000000000E+00 0. -1.
         23    2    1    2    0    0 -0.10050159680E+03 -0.66875477384E+02  0.15997936742E+03  0.21705297873E+03  0.83340849182E+02 0.  0.
         23    2    1    2    0    0  0.77834204379E+02  0.65012462035E+02  0.72824331585E+02  0.15538428657E+03  0.92499241353E+02 0.  0.
        -11    1    3    3    0    0 -0.58735013996E+02 -0.28661189598E+02  0.23762323028E+02  0.69540733775E+02  0.00000000000E+00 0.  1.
         11    1    3    3    0    0 -0.41766582805E+02 -0.38214287785E+02  0.13621704439E+03  0.14751224496E+03  0.00000000000E+00 0. -1.
        -11    1    4    4    0    0  0.71366215126E+02  0.35731790548E+02  0.90428787081E+02  0.12061203526E+03  0.00000000000E+00 0. -1.
         11    1    4    4    0    0  0.64679892530E+01  0.29280671486E+02 -0.17604455496E+02  0.34772251307E+02  0.00000000000E+00 0.  1.
          1    1    1    2  501    0  0.22667392421E+02  0.18630153489E+01  0.12747765528E+01  0.22779520641E+02  0.00000000000E+00 0. -1.
<scales pt_clust_5="13000.00000" pt_clust_6="13000.00000" pt_clust_7="13000.00000" pt_clust_8="13000.00000" pt_clust_9="22.74382"></scales>
<clustering>
<clus scale="   22.744">  2  9  1 -1</clus>
<clus scale="   83.341">  5  6 -1 -1</clus>
<clus scale="   92.499">  7  8 -1 -1</clus>
<clus scale="  140.146">  1  5  2 -1</clus>
<clus scale="   22.744">  2  5  1 -1</clus>
</clustering>
</event>
<event>
 9    1  0.1601012E-005  0.1315447E+03  0.7546771E-02  0.1242599E+00
         -1   -1    0    0    0  501 -0.00000000000E+00  0.00000000000E+00  0.38755809149E+03  0.38755809149E+03  0.00000000000E+00 0.  1.
         21   -1    0    0  501  502  0.00000000000E+00 -0.00000000000E+00 -0.19233691093E+03  0.19233691093E+03  0.00000000000E+00 0.  1.
         23    2    1    2    0    0  0.11537231457E+02  0.99027324147E+01  0.74129286952E+02  0.11816402461E+03  0.90754689740E+02 0.  0.
         23    2    1    2    0    0  0.36025697614E+02  0.72619709075E+02  0.26346542286E+03  0.29043472157E+03  0.91470352646E+02 0.  0.
        -11    1    4    4    0    0  0.10825338654E+02  0.53368173435E+02  0.25020367452E+03  0.25606098617E+03  0.00000000000E+00 0.  1.
         11    1    4    4    0    0  0.25200358960E+02  0.19251535639E+02  0.13261748338E+02  0.34373735397E+02  0.00000000000E+00 0. -1.
        -11    1    3    3    0    0  0.49726912191E+02 -0.66696340898E+01  0.36461090201E+02  0.62021455269E+02  0.00000000000E+00 0.  1.
         11    1    3    3    0    0 -0.38189680734E+02  0.16572366505E+02  0.37668196751E+02  0.56142569345E+02  0.00000000000E+00 0. -1.
         -1    1    1    2    0  502 -0.47562929072E+02 -0.82522441489E+02 -0.14237352925E+03  0.17129625624E+03  0.00000000000E+00 0.  1.
<scales pt_clust_5="13000.00000" pt_clust_6="13000.00000" pt_clust_7="13000.00000" pt_clust_8="13000.00000" pt_clust_9="94.53668"></scales>
<clustering>
<clus scale="   90.755">  7  8 -1 -1</clus>
<clus scale="   91.470">  5  6 -1 -1</clus>
<clus scale="   92.019">  1  7  2 -1</clus>
<clus scale="   94.537">  2  9  1 -1</clus>
<clus scale="   94.537">  2  5  1 -1</clus>
</clustering>
</event>
<event>
 9    1  0.1601012E-005  0.9489633E+02  0.7546771E-02  0.1293965E+00
          1   -1    0    0  502    0 -0.00000000000E+00  0.00000000000E+00  0.80124376775E+02  0.80124376775E+02  0.00000000000E+00 0. -1.
         21   -1    0    0  501  502  0.00000000000E+00 -0.00000000000E+00 -0.16525737856E+03  0.16525737856E+03  0.00000000000E+00 0.  1.
         23    2    1    2    0    0 -0.94817633308E+00  0.10045180253E+02 -0.17659687534E+01  0.94336762762E+02  0.93779003397E+02 0.  0.
         23    2    1    2    0    0  0.22125380673E+02 -0.11883783784E+02 -0.36705576704E+02  0.99769794346E+02  0.89308206318E+02 0.  0.
        -11    1    4    4    0    0 -0.26582357239E+02  0.19426573793E+02 -0.37294380163E+01  0.33134908987E+02  0.00000000000E+00 0. -1.
         11    1    4    4    0    0  0.48707737912E+02 -0.31310357577E+02 -0.32976138687E+02  0.66634885359E+02  0.00000000000E+00 0.  1.
        -13    1    3    3    0    0 -0.11028185755E+02 -0.38483813250E+02  0.13864717496E+02  0.42365730898E+02  0.00000000000E+00 0.  1.
         13    1    3    3    0    0  0.10080009422E+02  0.48528993503E+02 -0.15630686249E+02  0.51971031864E+02  0.00000000000E+00 0. -1.
          1    1    1    2  501    0 -0.21177204340E+02  0.18386035312E+01 -0.46661456329E+02  0.51275198228E+02  0.00000000000E+00 0. -1.
<scales pt_clust_5="13000.00000" pt_clust_6="13000.00000" pt_clust_7="13000.00000" pt_clust_8="13000.00000" pt_clust_9="21.25687"></scales>
<clustering>
<clus scale="   21.257">  2  9  1 -1</clus>
<clus scale="   89.308">  5  6 -1 -1</clus>
<clus scale="   90.481">  2  5  1 -1</clus>
<clus scale="   93.779">  7  8 -1 -1</clus>
<clus scale="   21.257">  2  5  1 -1</clus>
</clustering>
</event>
<event>
 9    1  0.1601012E-005  0.1015312E+03  0.7546771E-02  0.1277514E+00
         21   -1    0    0  501  502  0.00000000000E+00  0.00000000000E+00  0.40190607064E+03  0.40190607064E+03  0.00000000000E+00 0. -1.
          3   -1    0    0  502    0 -0.00000000000E+00 -0.00000000000E+00 -0.10511760888E+03  0.10511760888E+03  0.00000000000E+00 0. -1.
         23    2    1    2    0    0  0.29132828262E+01  0.44358963740E+02 -0.28760419197E+02  0.10773253597E+03  0.93823945310E+02 0.  0.
         23    2    1    2    0    0  0.62154778952E+02 -0.13323048030E+02  0.67378088820E+02  0.13124406068E+03  0.92975676685E+02 0.  0.
        -11    1    4    4    0    0  0.46597908183E+02  0.19206136797E+02 -0.47308380765E+01  0.50622342564E+02  0.00000000000E+00 0.  1.
         11    1    4    4    0    0  0.15556870769E+02 -0.32529184827E+02  0.72108926896E+02  0.80621718115E+02  0.00000000000E+00 0. -1.
        -11    1    3    3    0    0 -0.40053754914E+02  0.16260088936E+02  0.88068833920E+01  0.44116379837E+02  0.00000000000E+00 0. -1.
         11    1    3    3    0    0  0.42967037740E+02  0.28098874804E+02 -0.37567302589E+02  0.63616156134E+02  0.00000000000E+00 0.  1.
          3    1    1    2  501    0 -0.65068061779E+02 -0.31035915710E+02  0.25817079214E+03  0.26804708288E+03  0.00000000000E+00 0. -1.
<scales pt_clust_5="13000.00000" pt_clust_6="13000.00000" pt_clust_7="13000.00000" pt_clust_8="13000.00000" pt_clust_9="72.09078"></scales>
<clustering>
<clus scale="   72.091">  1  9  2 -1</clus>
<clus scale="   92.976">  5  6 -1 -1</clus>
<clus scale="   93.824">  7  8 -1 -1</clus>
<clus scale="  100.748">  1  5  2 -1</clus>
<clus scale="   72.091">  1  5  2 -1</clus>
</clustering>
</event>
<event>
 9    1  0.1601012E-005  0.1222889E+03  0.7546771E-02  0.1239849E+00
         21   -1    0    0  501  502  0.00000000000E+00  0.00000000000E+00  0.27110087630E+02  0.27110087630E+02  0.00000000000E+00 0.  1.
          2   -1    0    0  502    0 -0.00000000000E+00 -0.00000000000E+00 -0.93919184305E+03  0.93919184305E+03  0.00000000000E+00 0. -1.
         23    2    1    2    0    0 -0.61392756408E+02  0.44348539303E+02 -0.64474081295E+03  0.65580194991E+03  0.93003323318E+02 0.  0.
         23    2    1    2    0    0  0.61735529848E+02 -0.66781777802E+02 -0.25271206447E+03  0.28371618427E+03  0.91435245927E+02 0.  0.
        -13    1    3    3    0    0 -0.70199507562E+02 -0.34436410014E+01 -0.42290157512E+03  0.42870219473E+03  0.00000000000E+00 0.  1.
         13    1    3    3    0    0  0.88067511536E+01  0.47792180304E+02 -0.22183923782E+03  0.22709975518E+03  0.00000000000E+00 0. -1.
        -13    1    4    4    0    0  0.83692167051E+02 -0.47957021753E+02 -0.16240100076E+03  0.18888710863E+03  0.00000000000E+00 0.  1.
         13    1    4    4    0    0 -0.21956637203E+02 -0.18824756049E+02 -0.90311063714E+02  0.94829075640E+02  0.00000000000E+00 0. -1.
          2    1    1    2  501    0 -0.34277343969E+00  0.22433238499E+02 -0.14628878002E+02  0.26783796497E+02  0.00000000000E+00 0. -1.
<scales pt_clust_5="13000.00000" pt_clust_6="13000.00000" pt_clust_7="13000.00000" pt_clust_8="13000.00000" pt_clust_9="22.43586"></scales>
<clustering>
<clus scale="   22.436">  1  9  2 -1</clus>
<clus scale="   91.435">  7  8 -1 -1</clus>
<clus scale="   93.003">  5  6 -1 -1</clus>
<clus scale="  121.101">  1  7  2 -1</clus>
<clus scale="   22.436">  1  5  2 -1</clus>
</clustering>
</event>
<event>
 9    1  0.1601012E-005  0.1320007E+03  0.7546771E-02  0.1225193E+00
          1   -1    0    0  502    0 -0.00000000000E+00  0.00000000000E+00  0.48743296225E+02  0.48743296225E+02  0.00000000000E+00 0. -1.
         21   -1    0    0  501  502  0.00000000000E+00 -0.00000000000E+00 -0.53820962574E+03  0.53820962574E+03  0.00000000000E+00 0.  1.
         23    2    1    2    0    0 -0.91400195570E+02 -0.57896472688E+02 -0.14518195736E+03  0.20177682832E+03  0.89051055041E+02 0.  0.
         23    2    1    2    0    0  0.47957712137E+02  0.66081186680E+02 -0.20420728081E+03  0.23828895864E+03  0.91729760099E+02 0.  0.
        -11    1    3    3    0    0 -0.32541879885E+02 -0.64223786783E+02 -0.43500855022E+02  0.84118922501E+02  0.00000000000E+00 0.  1.
         11    1    3    3    0    0 -0.58858315686E+02  0.63273140945E+01 -0.10168110234E+03  0.11765790582E+03  0.00000000000E+00 0. -1.
        -11    1    4    4    0    0  0.31620682993E+02 -0.18214113030E+02 -0.70530221652E+02  0.79411168438E+02  0.00000000000E+00 0.  1.
         11    1    4    4    0    0  0.16337029144E+02  0.84295299710E+02 -0.13367705916E+03  0.15887779020E+03  0.00000000000E+00 0. -1.
          1    1    1    2  501    0  0.43442483433E+02 -0.81847139922E+01 -0.14007709134E+03  0.14688713500E+03  0.00000000000E+00 0. -1.
<scales pt_clust_5="13000.00000" pt_clust_6="13000.00000" pt_clust_7="13000.00000" pt_clust_8="13000.00000" pt_clust_9="44.20677"></scales>
<clustering>
<clus scale="   44.207">  2  9  1 -1</clus>
<clus scale="   89.051">  5  6 -1 -1</clus>
<clus scale="   91.730">  7  8 -1 -1</clus>
<clus scale="  130.154">  1  5  2 -1</clus>
<clus scale="   44.207">  2  5  1 -1</clus>
</clustering>
</event>
<event>
 9    1  0.1601012E-005  0.9837295E+02  0.7546771E-02  0.1284670E+00
         21   -1    0    0  501  502  0.00000000000E+00  0.00000000000E+00  0.12703699737E+03  0.12703699737E+03  0.00000000000E+00 0.  1.
          1   -1    0    0  502    0 -0.00000000000E+00 -0.00000000000E+00 -0.11910193840E+03  0.11910193840E+03  0.00000000000E+00 0. -1.
         23    2    1    2    0    0  0.21394007939E+02 -0.19280947677E+02 -0.42935519510E+02  0.10353100821E+03  0.89698117635E+02 0.  0.
         23    2    1    2    0    0 -0.34915108037E+02  0.42097116104E+02  0.38592994091E+02  0.11338230921E+03  0.91514462768E+02 0.  0.
        -13    1    3    3    0    0 -0.99881738775E+01  0.27992280823E+02  0.38753468961E+01  0.29972482658E+02  0.00000000000E+00 0.  1.
         13    1    3    3    0    0  0.31382181816E+02 -0.47273228500E+02 -0.46810866406E+02  0.73558525556E+02  0.00000000000E+00 0. -1.
        -13    1    4    4    0    0  0.25972821866E+02  0.30409918946E+02 -0.66774972698E+00  0.39997456615E+02  0.00000000000E+00 0. -1.
         13    1    4    4    0    0 -0.60887929903E+02  0.11687197158E+02  0.39260743818E+02  0.73384852596E+02  0.00000000000E+00 0.  1.
          1    1    1    2  501    0  0.13521100098E+02 -0.22816168427E+02  0.12277584390E+02  0.29225618351E+02  0.00000000000E+00 0. -1.
<scales pt_clust_5="13000.00000" pt_clust_6="13000.00000" pt_clust_7="13000.00000" pt_clust_8="13000.00000" pt_clust_9="26.52165"></scales>
<clustering>
<clus scale="   26.522">  1  9  2 -1</clus>
<clus scale="   89.698">  5  6 -1 -1</clus>
<clus scale="   91.514">  7  8 -1 -1</clus>
<clus scale="   96.686">  2  5  1 -1</clus>
<clus scale="   26.522">  1  5  2 -1</clus>
</clustering>
</event>
<event>
 9    1  0.1601012E-005  0.1333176E+03  0.7546771E-02  0.1224757E+00
         -4   -1    0    0    0  501 -0.00000000000E+00  0.00000000000E+00  0.55880735541E+03  0.55880735541E+03  0.00000000000E+00 0.  1.
         21   -1    0    0  501  502  0.00000000000E+00 -0.00000000000E+00 -0.49524997936E+02  0.49524997936E+02  0.00000000000E+00 0. -1.
         23    2    1    2    0    0 -0.79929124451E+02  0.32366336964E+02  0.35120969984E+03  0.37492922828E+03  0.98931432074E+02 0.  0.
         23    2    1    2    0    0  0.75253177353E+02 -0.67545538601E+02  0.13033333132E+03  0.18835969122E+03  0.90923899687E+02 0.  0.
        -11    1    3    3    0    0  0.58313792619E+01  0.41304514954E+02  0.15684205049E+03  0.16229447539E+03  0.00000000000E+00 0. -1.
         11    1    3    3    0    0 -0.85760503713E+02 -0.89381779900E+01  0.19436764934E+03  0.21263475289E+03  0.00000000000E+00 0.  1.
        -11    1    4    4    0    0  0.76068977677E+02 -0.40566570673E+02  0.13576841810E+03  0.16082661277E+03  0.00000000000E+00 0.  1.
         11    1    4    4    0    0 -0.81580032462E+00 -0.26978967928E+02 -0.54350867747E+01  0.27533078449E+02  0.00000000000E+00 0. -1.
         -4    1    1    2    0  502  0.46759470983E+01  0.35179201637E+02  0.27739326311E+02  0.45043433853E+02  0.00000000000E+00 0.  1.
<scales pt_clust_5="13000.00000" pt_clust_6="13000.00000" pt_clust_7="13000.00000" pt_clust_8="13000.00000" pt_clust_9="35.48860"></scales>
<clustering>
<clus scale="   35.489">  2  9  1 -1</clus>
<clus scale="   90.924">  7  8 -1 -1</clus>
<clus scale="   98.931">  5  6 -1 -1</clus>
<clus scale="  127.488">  2  7  1 -1</clus>
<clus scale="   35.489">  2  5  1 -1</clus>
</clustering>
</event>
<event>
 9    1  0.1601012E-005  0.1937114E+03  0.7546771E-02  0.1155234E+00
          1   -1    0    0  502    0 -0.00000000000E+00  0.00000000000E+00  0.89799609541E+03  0.89799609541E+03  0.00000000000E+00 0. -1.
         21   -1    0    0  501  502  0.00000000000E+00 -0.00000000000E+00 -0.24930851741E+03  0.24930851741E+03  0.00000000000E+00 0. -1.
         23    2    1    2    0    0  0.16859764308E+03  0.13587890828E+02  0.81354788709E+03  0.83599614400E+03  0.91758335613E+02 0.  0.
         23    2    1    2    0    0 -0.20000615333E+03  0.84065270858E+01 -0.16147342542E+03  0.27281535363E+03  0.91002302132E+02 0.  0.
        -11    1    3    3    0    0  0.10355845870E+03  0.44871959369E+02  0.37730318010E+03  0.39382170689E+03  0.00000000000E+00 0.  1.
         11    1    3    3    0    0  0.65039184379E+02 -0.31284068541E+02  0.43624470699E+03  0.44217443710E+03  0.00000000000E+00 0. -1.
        -13    1    4    4    0    0 -0.31001326265E+02 -0.32556035107E+02 -0.22868482073E+02  0.50437536859E+02  0.00000000000E+00 0.  1.
         13    1    4    4    0    0 -0.16900482707E+03  0.40962562193E+02 -0.13860494334E+03  0.22237781677E+03  0.00000000000E+00 0. -1.
          1    1    1    2  501    0  0.31408510255E+02 -0.21994417914E+02 -0.33868836820E+01  0.38493115188E+02  0.00000000000E+00 0. -1.
<scales pt_clust_5="13000.00000" pt_clust_6="13000.00000" pt_clust_7="13000.00000" pt_clust_8="13000.00000" pt_clust_9="38.34383"></scales>
<clustering>
<clus scale="   38.344">  2  9  1 -1</clus>
<clus scale="   91.002">  7  8 -1 -1</clus>
<clus scale="   91.758">  5  6 -1 -1</clus>
<clus scale="  193.354">  2  7  1 -1</clus>
<clus scale="   38.344">  2  5  1 -1</clus>
</clustering>
</event>
<event>
 9    1  0.1601012E-005  0.1125176E+03  0.7546771E-02  0.1256848E+00
         21   -1    0    0  501  502  0.00000000000E+00  0.00000000000E+00  0.64229519576E+03  0.64229519576E+03  0.00000000000E+00 0. -1.
         -3   -1    0    0    0  501 -0.00000000000E+00 -0.00000000000E+00 -0.29308641409E+02  0.29308641409E+02  0.00000000000E+00 0.  1.
         23    2    1    2    0    0  0.85576521753E+01 -0.58617955448E+02  0.14515798180E+03  0.18108704429E+03  0.90622181694E+02 0.  0.
         23    2    1    2    0    0 -0.33273726459E+02  0.68521757602E+02  0.39943471820E+03  0.41712272679E+03  0.92956457355E+02 0.  0.
        -11    1    4    4    0    0 -0.31615957997E+02 -0.43759665083E+01  0.44423969743E+02  0.54701069191E+02  0.00000000000E+00 0.  1.
         11    1    4    4    0    0 -0.16577684628E+01  0.72897724110E+02  0.35501074846E+03  0.36242165760E+03  0.00000000000E+00 0. -1.
        -11    1    3    3    0    0  0.46576577939E+02 -0.40387422466E+02  0.11038826826E+03  0.12643611539E+03  0.00000000000E+00 0.  1.
         11    1    3    3    0    0 -0.38018925763E+02 -0.18230532982E+02  0.34769713543E+02  0.54650928893E+02  0.00000000000E+00 0. -1.
         -3    1    1    2    0  502  0.24716074284E+02 -0.99038021538E+01  0.68393854344E+02  0.73394066090E+02  0.00000000000E+00 0.  1.
<scales pt_clust_5="13000.00000" pt_clust_6="13000.00000" pt_clust_7="13000.00000" pt_clust_8="13000.00000" pt_clust_9="26.62648"></scales>
<clustering>
<clus scale="   26.626">  1  9  2 -1</clus>
<clus scale="   90.622">  7  8 -1 -1</clus>
<clus scale="   92.956">  5  6 -1 -1</clus>
<clus scale="  110.597">  2  7  1 -1</clus>
<clus scale="   26.626">  1  5  2 -1</clus>
</clustering>
</event>
<event>
 9    1  0.1601012E-005  0.1536721E+03  0.7546771E-02  0.1201611E+00
         -1   -1    0    0    0  501 -0.00000000000E+00  0.00000000000E+00  0.12873687623E+03  0.12873687623E+03  0.00000000000E+00 0.  1.
         21   -1    0    0  501  502  0.00000000000E+00 -0.00000000000E+00 -0.23764668283E+03  0.23764668283E+03  0.00000000000E+00 0. -1.
         23    2    1    2    0    0  0.10062779983E+03  0.10438812022E+02  0.23896642825E+02  0.13887699417E+03  0.92091514685E+02 0.  0.
         23    2    1    2    0    0 -0.99066001815E+02  0.12486532165E+02 -0.87310478713E+02  0.17653702526E+03  0.11649985148E+03 0.  0.
        -11    1    4    4    0    0 -0.37283915128E+02  0.62747673540E+02 -0.32768793859E+02  0.80007216631E+02  0.00000000000E+00 0.  1.
         11    1    4    4    0    0 -0.61782086687E+02 -0.50261141375E+02 -0.54541684853E+02  0.96529808631E+02  0.00000000000E+00 0. -1.
        -13    1    3    3    0    0  0.50877045538E+02  0.50608244183E+02  0.38469527968E+01  0.71864227456E+02  0.00000000000E+00 0.  1.
         13    1    3    3    0    0  0.49750754293E+02 -0.40169432161E+02  0.20049690028E+02  0.67012766717E+02  0.00000000000E+00 0. -1.
         -1    1    1    2    0  502 -0.15617980167E+01 -0.22925344187E+02 -0.45495970705E+02  0.50969539625E+02  0.00000000000E+00 0.  1.
<scales pt_clust_5="13000.00000" pt_clust_6="13000.00000" pt_clust_7="13000.00000" pt_clust_8="13000.00000" pt_clust_9="22.97848"></scales>
<clustering>
<clus scale="   22.978">  2  9  1 -1</clus>
<clus scale="   92.092">  7  8 -1 -1</clus>
<clus scale="  116.500">  5  6 -1 -1</clus>
<clus scale="  136.102">  1  7  2 -1</clus>
<clus scale="   22.978">  2  5  1 -1</clus>
</clustering>
</event>
<event>
 9    1  0.1601012E-005  0.9537488E+02  0.7546771E-02  0.1291312E+00
         21   -1    0    0  501  502  0.00000000000E+00  0.00000000000E+00  0.20903269080E+03  0.20903269080E+03  0.00000000000E+00 0. -1.
          1   -1    0    0  502    0 -0.00000000000E+00 -0.00000000000E+00 -0.18259673382E+03  0.18259673382E+03  0.00000000000E+00 0. -1.
         23    2    1    2    0    0  0.29759615544E+02  0.35307280783E+00 -0.13466184914E+03  0.16577275169E+03  0.91983869294E+02 0.  0.
         23    2    1    2    0    0  0.98905916998E+00  0.30473224455E+02  0.52197434432E+02  0.10857482201E+03  0.90190488229E+02 0.  0.
        -13    1    4    4    0    0 -0.38046482398E+02 -0.84618180870E+01  0.13629762393E+02  0.41290526893E+02  0.00000000000E+00 0.  1.
         13    1    4    4    0    0  0.39035541568E+02  0.38935042542E+02  0.38567672039E+02  0.67284295120E+02  0.00000000000E+00 0. -1.
        -13    1    3    3    0    0 -0.12957486775E+02 -0.21771452705E+02 -0.28968697708E+01  0.25500675891E+02  0.00000000000E+00 0.  1.
         13    1    3    3    0    0  0.42717102319E+02  0.22124525513E+02 -0.13176497937E+03  0.14027207580E+03  0.00000000000E+00 0. -1.
          1    1    1    2  501    0 -0.30748674714E+02 -0.30826297263E+02  0.10890037169E+03  0.11728185092E+03  0.00000000000E+00 0. -1.
<scales pt_clust_5="13000.00000" pt_clust_6="13000.00000" pt_clust_7="13000.00000" pt_clust_8="13000.00000" pt_clust_9="43.54011"></scales>
<clustering>
<clus scale="   43.540">  1  9  2 -1</clus>
<clus scale="   90.190">  5  6 -1 -1</clus>
<clus scale="   91.984">  7  8 -1 -1</clus>
<clus scale="   93.646">  1  5  2 -1</clus>
<clus scale="   43.540">  1  5  2 -1</clus>
</clustering>
</event>
<event>
 9    1  0.1601012E-005  0.9180743E+02  0.7546771E-02  0.1299262E+00
         21   -1    0    0  501  502  0.00000000000E+00  0.00000000000E+00  0.28797721250E+02  0.28797721250E+02  0.00000000000E+00 0.  1.
          1   -1    0    0  502    0 -0.00000000000E+00 -0.00000000000E+00 -0.57847916353E+03  0.57847916353E+03  0.00000000000E+00 0. -1.
         23    2    1    2    0    0  0.95488522402E+01  0.10548261973E+02 -0.40571147110E+03  0.41600388818E+03  0.90856979872E+02 0.  0.
         23    2    1    2    0    0 -0.20015746339E+02  0.11697056404E+02 -0.13766584373E+03  0.16589284520E+03  0.89616406590E+02 0.  0.
        -13    1    4    4    0    0 -0.10754672370E+02  0.50144412390E+02 -0.93251440200E+02  0.10642347566E+03  0.00000000000E+00 0.  1.
         13    1    4    4    0    0 -0.92610739688E+01 -0.38447355986E+02 -0.44414403529E+02  0.59469369546E+02  0.00000000000E+00 0. -1.
        -13    1    3    3    0    0  0.18732777746E+02 -0.37147685191E+02 -0.22848892666E+03  0.23224568260E+03  0.00000000000E+00 0. -1.
         13    1    3    3    0    0 -0.91839255060E+01  0.47695947164E+02 -0.17722254444E+03  0.18375820559E+03  0.00000000000E+00 0.  1.
          1    1    1    2  501    0  0.10466894099E+02 -0.22245318377E+02 -0.63041274494E+01  0.25380151392E+02  0.00000000000E+00 0. -1.
<scales pt_clust_5="13000.00000" pt_clust_6="13000.00000" pt_clust_7="13000.00000" pt_clust_8="13000.00000" pt_clust_9="24.58475"></scales>
<clustering>
<clus scale="   24.585">  1  9  2 -1</clus>
<clus scale="   89.616">  5  6 -1 -1</clus>
<clus scale="   90.580">  1  5  2 -1</clus>
<clus scale="   90.857">  7  8 -1 -1</clus>
<clus scale="   24.585">  1  5  2 -1</clus>
</clustering>
</event>
<event>
 9    1  0.1601012E-005  0.1139319E+03  0.7546771E-02  0.1261387E+00
         21   -1    0    0  501  502  0.00000000000E+00  0.00000000000E+00  0.35991997514E+03  0.35991997514E+03  0.00000000000E+00 0.  1.
          3   -1    0    0  502    0 -0.00000000000E+00 -0.00000000000E+00 -0.53018980966E+02  0.53018980966E+02  0.00000000000E+00 0. -1.
         23    2    1    2    0    0 -0.19221393368E+02  0.15088587305E+02  0.49291119043E+02  0.10715772204E+03  0.91956704738E+02 0.  0.
         23    2    1    2    0    0  0.41689487410E+02 -0.23393205261E+02  0.13203623081E+03  0.17794335988E+03  0.10929326450E+03 0.  0.
        -11    1    3    3    0    0  0.17827592263E+02 -0.20567062963E+02 -0.97067978062E+01  0.28897215237E+02  0.00000000000E+00 0.  1.
         11    1    3    3    0    0 -0.37048985632E+02  0.35655650268E+02  0.58997916849E+02  0.78260506802E+02  0.00000000000E+00 0. -1.
        -11    1    4    4    0    0 -0.21477465992E+02  0.72560399850E+01  0.96739538240E+02  0.99360303545E+02  0.00000000000E+00 0.  1.
         11    1    4    4    0    0  0.63166953402E+02 -0.30649245246E+02  0.35296692573E+02  0.78583056335E+02  0.00000000000E+00 0. -1.
          3    1    1    2  501    0 -0.22468094042E+02  0.83046179555E+01  0.12557364431E+03  0.12783787418E+03  0.00000000000E+00 0. -1.
<scales pt_clust_5="13000.00000" pt_clust_6="13000.00000" pt_clust_7="13000.00000" pt_clust_8="13000.00000" pt_clust_9="23.95375"></scales>
<clustering>
<clus scale="   23.954">  1  9  2 -1</clus>
<clus scale="   91.957">  5  6 -1 -1</clus>
<clus scale="   97.424">  2  5  1 -1</clus>
<clus scale="  109.293">  7  8 -1 -1</clus>
<clus scale="   23.954">  1  5  2 -1</clus>
</clustering>
</event>
<event>
 9    1  0.1601012E-005  0.1393960E+03  0.7546771E-02  0.1214238E+00
         21   -1    0    0  501  502  0.00000000000E+00  0.00000000000E+00  0.76813402402E+02  0.76813402402E+02  0.00000000000E+00 0. -1.
          1   -1    0    0  502    0 -0.00000000000E+00 -0.00000000000E+00 -0.60088039808E+03  0.60088039808E+03  0.00000000000E+00 0. -1.
         23    2    1    2    0    0  0.10122090150E+03 -0.39331848616E+02 -0.38087043945E+03  0.40655236520E+03  0.91814316879E+02 0.  0.
         23    2    1    2    0    0 -0.83889354288E+02  0.53936943167E+02 -0.18166154155E+03  0.22649564701E+03  0.91393352259E+02 0.  0.
        -11    1    4    4    0    0 -0.21105472646E+02 -0.23852030705E+02 -0.24272497982E+02  0.40043907185E+02  0.00000000000E+00 0.  1.
         11    1    4    4    0    0 -0.62783881642E+02  0.77788973872E+02 -0.15738904356E+03  0.18645173983E+03  0.00000000000E+00 0. -1.
        -11    1    3    3    0    0  0.34676923195E+02 -0.50246667007E+02 -0.95682284382E+02  0.11350029115E+03  0.00000000000E+00 0.  1.
         11    1    3    3    0    0  0.66543978303E+02  0.10914818391E+02 -0.28518815507E+03  0.29305207404E+03  0.00000000000E+00 0. -1.
          1    1    1    2  501    0 -0.17331547210E+02 -0.14605094551E+02  0.38464985316E+02  0.44645788277E+02  0.00000000000E+00 0. -1.
<scales pt_clust_5="13000.00000" pt_clust_6="13000.00000" pt_clust_7="13000.00000" pt_clust_8="13000.00000" pt_clust_9="22.66476"></scales>
<clustering>
<clus scale="   22.665">  1  9  2 -1</clus>
<clus scale="   91.393">  5  6 -1 -1</clus>
<clus scale="   91.814">  7  8 -1 -1</clus>
<clus scale="  139.119">  1  5  2 -1</clus>
<clus scale="   22.665">  1  5  2 -1</clus>
</clustering>
</event>
<event>
 9    1  0.1601012E-005  0.1283110E+03  0.7546771E-02  0.1230163E+00
          1   -1    0    0  502    0 -0.00000000000E+00  0.00000000000E+00  0.55423635690E+03  0.55423635690E+03  0.00000000000E+00 0. -1.
         21   -1    0    0  501  502  0.00000000000E+00 -0.00000000000E+00 -0.18458648570E+03  0.18458648570E+03  0.00000000000E+00 0. -1.
         23    2    1    2    0    0  0.63854037267E+01  0.10419063010E+03  0.30326948123E+03  0.33245949232E+03  0.87524139574E+02 0.  0.
         23    2    1    2    0    0 -0.98237681861E+02 -0.50002475634E+02  0.19407322982E+03  0.23999430739E+03  0.88215414410E+02 0.  0.
        -11    1    3    3    0    0 -0.29064756774E+02  0.74466457673E+02  0.24700335716E+03  0.25961639365E+03  0.00000000000E+00 0. -1.
         11    1    3    3    0    0  0.35450160500E+02  0.29724172424E+02  0.56266124069E+02  0.72843098667E+02  0.00000000000E+00 0.  1.
        -13    1    4    4    0    0 -0.31401016798E+02 -0.57593147237E+02  0.13653924064E+03  0.15147923521E+03  0.00000000000E+00 0.  1.
         13    1    4    4    0    0 -0.66836665063E+02  0.75906716034E+01  0.57533989175E+02  0.88515072177E+02  0.00000000000E+00 0. -1.
          1    1    1    2  501    0  0.91852278134E+02 -0.54188154463E+02 -0.12769283986E+03  0.16636904289E+03  0.00000000000E+00 0. -1.
<scales pt_clust_5="13000.00000" pt_clust_6="13000.00000" pt_clust_7="13000.00000" pt_clust_8="13000.00000" pt_clust_9="106.64519"></scales>
<clustering>
<clus scale="   87.524">  5  6 -1 -1</clus>
<clus scale="   88.215">  7  8 -1 -1</clus>
<clus scale="  106.645">  2  9  1 -1</clus>
<clus scale="  127.837">  1  5  2 -1</clus>
<clus scale="  106.645">  2  5  1 -1</clus>
</clustering>
</event>
<event>
 9    1  0.1601012E-005  0.1000366E+03  0.7546771E-02  0.1280364E+00
          1   -1    0    0  502    0 -0.00000000000E+00  0.00000000000E+00  0.51233536460E+03  0.51233536460E+03  0.00000000000E+00 0. -1.
         21   -1    0    0  501  502  0.00000000000E+00 -0.00000000000E+00 -0.38911735511E+02  0.38911735511E+02  0.00000000000E+00 0.  1.
         23    2    1    2    0    0  0.10847982874E+02  0.42755895961E+02  0.37460248737E+03  0.38802728216E+03  0.91062631096E+02 0.  0.
         23    2    1    2    0    0  0.15924314106E+02 -0.36026300215E+02  0.91253080031E+02  0.13459607078E+03  0.90760671924E+02 0.  0.
        -11    1    3    3    0    0 -0.24112359033E+02  0.49995726678E+02  0.30272135890E+03  0.30776809399E+03  0.00000000000E+00 0. -1.
         11    1    3    3    0    0  0.34960341907E+02 -0.72398307170E+01  0.71881128474E+02  0.80259188170E+02  0.00000000000E+00 0.  1.
        -13    1    4    4    0    0  0.17296656348E+01 -0.59255728813E+02  0.89453792698E+02  0.10731362527E+03  0.00000000000E+00 0.  1.
         13    1    4    4    0    0  0.14194648471E+02  0.23229428599E+02  0.17992873325E+01  0.27282445512E+02  0.00000000000E+00 0. -1.
          1    1    1    2  501    0 -0.26772296979E+02 -0.67295957467E+01  0.75680616882E+01  0.28623747172E+02  0.00000000000E+00 0. -1.
<scales pt_clust_5="13000.00000" pt_clust_6="13000.00000" pt_clust_7="13000.00000" pt_clust_8="13000.00000" pt_clust_9="27.60513"></scales>
<clustering>
<clus scale="   27.605">  2  9  1 -1</clus>
<clus scale="   90.761">  7  8 -1 -1</clus>
<clus scale="   91.063">  5  6 -1 -1</clus>
<clus scale="   99.762">  2  7  1 -1</clus>
<clus scale="   27.605">  2  5  1 -1</clus>
</clustering>
</event>
<event>
 9    1  0.1601012E-005  0.1399869E+03  0.7546771E-02  0.1214044E+00
          3   -1    0    0  502    0 -0.00000000000E+00  0.00000000000E+00  0.49334757585E+03  0.49334757585E+03  0.00000000000E+00 0. -1.
         21   -1    0    0  501  502  0.00000000000E+00 -0.00000000000E+00 -0.59561962299E+02  0.59561962299E+02  0.00000000000E+00 0.  1.
         23    2    1    2    0    0 -0.13727449470E+02 -0.11681788217E+03  0.28340313135E+03  0.32002939158E+03  0.90920933510E+02 0.  0.
         23    2    1    2    0    0  0.20435576369E+02  0.84095868350E+02  0.15304073770E+03  0.19937200611E+03  0.94010646048E+02 0.  0.
        -13    1    4    4    0    0 -0.26131057511E+01  0.42391239199E+02  0.37218184154E+01  0.42634462760E+02  0.00000000000E+00 0.  1.
         13    1    4    4    0    0  0.23048682120E+02  0.41704629151E+02  0.14931891928E+03  0.15673754335E+03  0.00000000000E+00 0. -1.
        -13    1    3    3    0    0 -0.48745285763E+02 -0.89238993896E+02  0.16877632022E+03  0.19704097843E+03  0.00000000000E+00 0.  1.
         13    1    3    3    0    0  0.35017836293E+02 -0.27578888273E+02  0.11462681114E+03  0.12298841315E+03  0.00000000000E+00 0. -1.
          3    1    1    2  501    0 -0.67081268987E+01  0.32722013818E+02 -0.26582554982E+01  0.33508140460E+02  0.00000000000E+00 0. -1.
<scales pt_clust_5="13000.00000" pt_clust_6="13000.00000" pt_clust_7="13000.00000" pt_clust_8="13000.00000" pt_clust_9="33.40253"></scales>
<clustering>
<clus scale="   33.403">  2  9  1 -1</clus>
<clus scale="   90.921">  7  8 -1 -1</clus>
<clus scale="   94.011">  5  6 -1 -1</clus>
<clus scale="  137.931">  1  7  2 -1</clus>
<clus scale="   33.403">  2  5  1 -1</clus>
</clustering>
</event>
<event>
 9    1  0.1601012E-005  0.9939625E+02  0.7546771E-02  0.1281899E+00
         21   -1    0    0  501  502  0.00000000000E+00  0.00000000000E+00  0.22983482609E+02  0.22983482609E+02  0.00000000000E+00 0. -1.
          1   -1    0    0  502    0 -0.00000000000E+00 -0.00000000000E+00 -0.71722909198E+03  0.71722909198E+03  0.00000000000E+00 0. -1.
         23    2    1    2    0    0 -0.24592851982E+02 -0.17255298663E+02 -0.34499931318E+03  0.35805167716E+03  0.90961111045E+02 0.  0.
         23    2    1    2    0    0  0.59304712798E+02  0.10719024070E+02 -0.19312533276E+03  0.22209406329E+03  0.91632048760E+02 0.  0.
        -13    1    3    3    0    0  0.25471672972E+02 -0.29747706362E+02 -0.20805328583E+03  0.21170711349E+03  0.00000000000E+00 0.  1.
         13    1    3    3    0    0 -0.50064524953E+02  0.12492407699E+02 -0.13694602735E+03  0.14634456367E+03  0.00000000000E+00 0. -1.
        -13    1    4    4    0    0  0.49862017729E+02 -0.33447715022E+02 -0.14020930463E+03  0.15252416057E+03  0.00000000000E+00 0. -1.
         13    1    4    4    0    0  0.94426950691E+01  0.44166739092E+02 -0.52916028123E+02  0.69569902721E+02  0.00000000000E+00 0.  1.
          1    1    1    2  501    0 -0.34711860817E+02  0.65362745926E+01 -0.15612096344E+03  0.16006683414E+03  0.00000000000E+00 0. -1.
<scales pt_clust_5="13000.00000" pt_clust_6="13000.00000" pt_clust_7="13000.00000" pt_clust_8="13000.00000" pt_clust_9="35.32191"></scales>
<clustering>
<clus scale="   35.322">  1  9  2 -1</clus>
<clus scale="   90.961">  5  6 -1 -1</clus>
<clus scale="   91.632">  7  8 -1 -1</clus>
<clus scale="   98.778">  2  5  1 -1</clus>
<clus scale="   35.322">  1  5  2 -1</clus>
</clustering>
</event>
<event>
 9    1  0.1601012E-005  0.1154698E+03  0.7546771E-02  0.1251248E+00
         21   -1    0    0  501  502  0.00000000000E+00  0.00000000000E+00  0.52576461074E+03  0.52576461074E+03  0.00000000000E+00 0.  1.
          1   -1    0    0  502    0 -0.00000000000E+00 -0.00000000000E+00 -0.42099296807E+02  0.42099296807E+02  0.00000000000E+00 0. -1.
         23    2    1    2    0    0  0.72502950815E+02 -0.23675751988E+02  0.96585051248E+02  0.15328102734E+03  0.91373859002E+02 0.  0.
         23    2    1    2    0    0 -0.61585629685E+02  0.31989860294E+01  0.21642011200E+03  0.24235229966E+03  0.89966376916E+02 0.  0.
        -11    1    3    3    0    0  0.46971051984E+02 -0.48056936003E+02  0.96966586502E+02  0.11797570818E+03  0.00000000000E+00 0.  1.
         11    1    3    3    0    0  0.25531898831E+02  0.24381184016E+02 -0.38153525394E+00  0.35305319161E+02  0.00000000000E+00 0. -1.
        -11    1    4    4    0    0 -0.51359707909E+02 -0.38124326374E+02  0.15443484372E+03  0.16715682700E+03  0.00000000000E+00 0.  1.
         11    1    4    4    0    0 -0.10225921776E+02  0.41323312404E+02  0.61985268278E+02  0.75195472655E+02  0.00000000000E+00 0. -1.
          1    1    1    2  501    0 -0.10917321130E+02  0.20476765958E+02  0.17066015068E+03  0.17223058055E+03  0.00000000000E+00 0. -1.
<scales pt_clust_5="13000.00000" pt_clust_6="13000.00000" pt_clust_7="13000.00000" pt_clust_8="13000.00000" pt_clust_9="23.20530"></scales>
<clustering>
<clus scale="   23.205">  1  9  2 -1</clus>
<clus scale="   89.966">  7  8 -1 -1</clus>
<clus scale="   91.374">  5  6 -1 -1</clus>
<clus scale="  114.359">  1  7  2 -1</clus>
<clus scale="   23.205">  1  5  2 -1</clus>
</clustering>
</event>
<event>
 9    1  0.1601012E-005  0.9710156E+02  0.7546771E-02  0.1286787E+00
         21   -1    0    0  501  502  0.00000000000E+00  0.00000000000E+00  0.40817499643E+03  0.40817499643E+03  0.00000000000E+00 0. -1.
         -1   -1    0    0    0  501 -0.00000000000E+00 -0.00000000000E+00 -0.52815331129E+02  0.52815331129E+02  0.00000000000E+00 0.  1.
         23    2    1    2    0    0  0.11586333465E+00  0.30649908778E+02  0.28500961323E+02  0.10087021329E+03  0.91777256440E+02 0.  0.
         23    2    1    2    0    0  0.29949936803E+02 -0.30452016315E+02  0.14980756631E+03  0.18053421046E+03  0.91246754518E+02 0.  0.
        -11    1    4    4    0    0  0.48546873794E+02 -0.79231151638E+01  0.14202557615E+03  0.15030249163E+03  0.00000000000E+00 0.  1.
         11    1    4    4    0    0 -0.18596936991E+02 -0.22528901151E+02  0.77819901592E+01  0.30231718829E+02  0.00000000000E+00 0. -1.
        -13    1    3    3    0    0  0.10987332108E+02 -0.26950805555E+02 -0.99596488600E+01  0.30761371756E+02  0.00000000000E+00 0. -1.
         13    1    3    3    0    0 -0.10871468774E+02  0.57600714333E+02  0.38460610183E+02  0.70108841530E+02  0.00000000000E+00 0.  1.
         -1    1    1    2    0  502 -0.30065800137E+02 -0.19789246382E+00  0.17705113766E+03  0.17958590381E+03  0.00000000000E+00 0.  1.
<scales pt_clust_5="13000.00000" pt_clust_6="13000.00000" pt_clust_7="13000.00000" pt_clust_8="13000.00000" pt_clust_9="30.06645"></scales>
<clustering>
<clus scale="   30.066">  1  9  2 -1</clus>
<clus scale="   91.247">  5  6 -1 -1</clus>
<clus scale="   91.777">  7  8 -1 -1</clus>
<clus scale="   96.600">  1  5  2 -1</clus>
<clus scale="   30.066">  1  5  2 -1</clus>
</clustering>
</event>
<event>
 9    1  0.1601012E-005  0.1574202E+03  0.7546771E-02  0.1191718E+00
         21   -1    0    0  501  502  0.00000000000E+00  0.00000000000E+00  0.59459664142E+03  0.59459664142E+03  0.00000000000E+00 0. -1.
          2   -1    0    0  502    0 -0.00000000000E+00 -0.00000000000E+00 -0.95703855804E+02  0.95703855804E+02  0.00000000000E+00 0. -1.
         23    2    1    2    0    0  0.11486843477E+03  0.70712163027E+02  0.37944929962E+02  0.16664262931E+03  0.90194128893E+02 0.  0.
         23    2    1    2    0    0 -0.65959638710E+02 -0.10624661379E+03  0.18423332614E+03  0.24041645433E+03  0.90659451639E+02 0.  0.
        -13    1    3    3    0    0  0.49899074404E+02  0.77449270970E+02  0.21439556822E+01  0.92156951697E+02  0.00000000000E+00 0.  1.
         13    1    3    3    0    0  0.64969360370E+02 -0.67371079427E+01  0.35800974280E+02  0.74485677615E+02  0.00000000000E+00 0. -1.
        -13    1    4    4    0    0 -0.66591394077E+01 -0.73832123104E+02  0.47924430436E+02  0.88273878199E+02  0.00000000000E+00 0. -1.
         13    1    4    4    0    0 -0.59300499302E+02 -0.32414490688E+02  0.13630889570E+03  0.15214257613E+03  0.00000000000E+00 0.  1.
          2    1    1    2  501    0 -0.48908796065E+02  0.35534450764E+02  0.27671452952E+03  0.28324141359E+03  0.00000000000E+00 0. -1.
<scales pt_clust_5="13000.00000" pt_clust_6="13000.00000" pt_clust_7="13000.00000" pt_clust_8="13000.00000" pt_clust_9="60.45467"></scales>
<clustering>
<clus scale="   60.455">  1  9  2 -1</clus>
<clus scale="   90.194">  5  6 -1 -1</clus>
<clus scale="   90.659">  7  8 -1 -1</clus>
<clus scale="  157.153">  2  5  1 -1</clus>
<clus scale="   60.455">  1  5  2 -1</clus>
</clustering>
</event>
<event>
 9    1  0.1601012E-005  0.2863478E+03  0.7546771E-02  0.1092300E+00
         21   -1    0    0  501  502  0.00000000000E+00  0.00000000000E+00  0.30003309404E+03  0.30003309404E+03  0.00000000000E+00 0. -1.
          2   -1    0    0  502    0 -0.00000000000E+00 -0.00000000000E+00 -0.16448070679E+04  0.16448070679E+04  0.00000000000E+00 0. -1.
         23    2    1    2    0    0  0.19017822724E+03  0.21423866303E+03 -0.14507418265E+04  0.14814856137E+04  0.89898907283E+02 0.  0.
         23    2    1    2    0    0 -0.13716119842E+03 -0.14854217190E+03 -0.98266021678E+02  0.24236063493E+03  0.90578668353E+02 0.  0.
        -13    1    4    4    0    0 -0.92729915038E+02 -0.10911904023E+03 -0.20736553138E+02  0.14469211008E+03  0.00000000000E+00 0.  1.
         13    1    4    4    0    0 -0.44431283384E+02 -0.39423131675E+02 -0.77529468540E+02  0.97668524850E+02  0.00000000000E+00 0. -1.
        -13    1    3    3    0    0  0.10436547694E+03  0.17327581357E+03 -0.10774453466E+04  0.10962687331E+04  0.00000000000E+00 0. -1.
         13    1    3    3    0    0  0.85812750297E+02  0.40962849458E+02 -0.37329647999E+03  0.38521688063E+03  0.00000000000E+00 0.  1.
          2    1    1    2  501    0 -0.53017028816E+02 -0.65696491128E+02  0.20423387435E+03  0.22099391331E+03  0.00000000000E+00 0. -1.
<scales pt_clust_5="13000.00000" pt_clust_6="13000.00000" pt_clust_7="13000.00000" pt_clust_8="13000.00000" pt_clust_9="84.42058"></scales>
<clustering>
<clus scale="   84.421">  1  9  2 -1</clus>
<clus scale="   89.899">  7  8 -1 -1</clus>
<clus scale="   90.579">  5  6 -1 -1</clus>
<clus scale="  286.134">  2  7  1 -1</clus>
<clus scale="   84.421">  1  5  2 -1</clus>
</clustering>
</event>
<event>
 9    1  0.1601012E-005  0.1053284E+03  0.7546771E-02  0.1281663E+00
         21   -1    0    0  501  502  0.00000000000E+00  0.00000000000E+00  0.17642721315E+02  0.17642721315E+02  0.00000000000E+00 0.  1.
          2   -1    0    0  502    0 -0.00000000000E+00 -0.00000000000E+00 -0.84413871385E+03  0.84413871385E+03  0.00000000000E+00 0. -1.
         23    2    1    2    0    0 -0.63172033621E+02  0.24265075468E+02 -0.50548484413E+03  0.51835349956E+03  0.92714201411E+02 0.  0.
         23    2    1    2    0    0  0.37226143908E+02  0.56259987443E+01 -0.25687462380E+03  0.26806110405E+03  0.66743879857E+02 0.  0.
        -11    1    3    3    0    0  0.81166123948E+01 -0.26141835749E+02 -0.11157076322E+03  0.11487954639E+03  0.00000000000E+00 0.  1.
         11    1    3    3    0    0 -0.71288646016E+02  0.50406911217E+02 -0.39391408090E+03  0.40347395317E+03  0.00000000000E+00 0. -1.
        -13    1    4    4    0    0  0.14840500490E+02 -0.28641186395E+02 -0.75093266502E+02  0.81728554905E+02  0.00000000000E+00 0.  1.
         13    1    4    4    0    0  0.22385643418E+02  0.34267185139E+02 -0.18178135730E+03  0.18633254914E+03  0.00000000000E+00 0. -1.
          2    1    1    2  501    0  0.25945889713E+02 -0.29891074212E+02 -0.64136524608E+02  0.75366831560E+02  0.00000000000E+00 0. -1.
<scales pt_clust_5="13000.00000" pt_clust_6="13000.00000" pt_clust_7="13000.00000" pt_clust_8="13000.00000" pt_clust_9="39.58113"></scales>
<clustering>
<clus scale="   39.581">  1  9  2 -1</clus>
<clus scale="   66.744">  7  8 -1 -1</clus>
<clus scale="   83.384">  1  7  2 -1</clus>
<clus scale="   92.714">  5  6 -1 -1</clus>
<clus scale="   39.581">  1  5  2 -1</clus>
</clustering>
</event>
<event>
 9    1  0.1601012E-005  0.1474242E+03  0.7546771E-02  0.1203980E+00
         21   -1    0    0  501  502  0.00000000000E+00  0.00000000000E+00  0.17237459679E+03  0.17237459679E+03  0.00000000000E+00 0. -1.
          2   -1    0    0  502    0 -0.00000000000E+00 -0.00000000000E+00 -0.20440865548E+03  0.20440865548E+03  0.00000000000E+00 0. -1.
         23    2    1    2    0    0  0.87721230006E+02 -0.84914484176E+02 -0.10279504929E+03  0.18376463932E+03  0.91088619978E+02 0.  0.
         23    2    1    2    0    0 -0.72365107439E+02  0.69330564925E+02  0.20243104056E+02  0.13796658393E+03  0.92636704454E+02 0.  0.
        -13    1    4    4    0    0 -0.94957471691E+02  0.56213088764E+02  0.16243779054E+02  0.11153785517E+03  0.00000000000E+00 0.  1.
         13    1    4    4    0    0  0.22592364252E+02  0.13117476162E+02  0.39993250022E+01  0.26428728759E+02  0.00000000000E+00 0. -1.
        -13    1    3    3    0    0  0.39507666797E+02 -0.82994078142E+02 -0.30499304498E+02  0.96845652031E+02  0.00000000000E+00 0.  1.
         13    1    3    3    0    0  0.48213563210E+02 -0.19204060333E+01 -0.72295744787E+02  0.86918987287E+02  0.00000000000E+00 0. -1.
          2    1    1    2  501    0 -0.15356122568E+02  0.15583919250E+02  0.50517886532E+02  0.55052029020E+02  0.00000000000E+00 0. -1.
<scales pt_clust_5="13000.00000" pt_clust_6="13000.00000" pt_clust_7="13000.00000" pt_clust_8="13000.00000" pt_clust_9="21.87851"></scales>
<clustering>
<clus scale="   21.879">  1  9  2 -1</clus>
<clus scale="   91.089">  7  8 -1 -1</clus>
<clus scale="   92.637">  5  6 -1 -1</clus>
<clus scale="  146.456">  2  7  1 -1</clus>
<clus scale="   21.879">  1  5  2 -1</clus>
</clustering>
</event>
<event>
 9    1  0.1601012E-005  0.9520942E+02  0.7546771E-02  0.1293121E+00
          1   -1    0    0  502    0 -0.00000000000E+00  0.00000000000E+00  0.50195792769E+03  0.50195792769E+03  0.00000000000E+00 0. -1.
         21   -1    0    0  501  502  0.00000000000E+00 -0.00000000000E+00 -0.27922236836E+02  0.27922236836E+02  0.00000000000E+00 0. -1.
         23    2    1    2    0    0  0.93072330987E+01 -0.32406957683E+02  0.25030446074E+03  0.26714004590E+03  0.87032439707E+02 0.  0.
         23    2    1    2    0    0  0.15352907495E+02  0.19518251790E+02  0.21264004909E+03  0.23278589405E+03  0.91415578932E+02 0.  0.
        -11    1    3    3    0    0 -0.23971520147E+02 -0.44845720429E+02  0.19408358167E+03  0.20063451620E+03  0.00000000000E+00 0.  1.
         11    1    3    3    0    0  0.33278753246E+02  0.12438762746E+02  0.56220879070E+02  0.66505529692E+02  0.00000000000E+00 0. -1.
        -11    1    4    4    0    0  0.53082953395E+02  0.15254972197E+02  0.14584625552E+03  0.15595398156E+03  0.00000000000E+00 0. -1.
         11    1    4    4    0    0 -0.37730045900E+02  0.42632795933E+01  0.66793793571E+02  0.76831912485E+02  0.00000000000E+00 0.  1.
          1    1    1    2  501    0 -0.24660140593E+02  0.12888705894E+02  0.11091181032E+02  0.29954224583E+02  0.00000000000E+00 0. -1.
<scales pt_clust_5="13000.00000" pt_clust_6="13000.00000" pt_clust_7="13000.00000" pt_clust_8="13000.00000" pt_clust_9="27.82519"></scales>
<clustering>
<clus scale="   27.825">  2  9  1 -1</clus>
<clus scale="   87.032">  5  6 -1 -1</clus>
<clus scale="   91.009">  1  5  2 -1</clus>
<clus scale="   91.416">  7  8 -1 -1</clus>
<clus scale="   27.825">  2  5  1 -1</clus>
</clustering>
</event>
<event>
 9    1  0.1601012E-005  0.1010981E+03  0.7546771E-02  0.1281072E+00
         21   -1    0    0  501  502  0.00000000000E+00  0.00000000000E+00  0.86696533905E+03  0.86696533905E+03  0.00000000000E+00 0. -1.
         -1   -1    0    0    0  501 -0.00000000000E+00 -0.00000000000E+00 -0.15233937344E+02  0.15233937344E+02  0.00000000000E+00 0.  1.
         23    2    1    2    0    0 -0.23102574392E+02 -0.25822331961E+02  0.28980533718E+03  0.30623462242E+03  0.92692981070E+02 0.  0.
         23    2    1    2    0    0  0.17985838524E+02  0.48604919845E+02  0.49304641353E+03  0.50323478653E+03  0.86397661197E+02 0.  0.
        -11    1    3    3    0    0 -0.46547207978E+02  0.17360187090E+02  0.13750798289E+03  0.14620692195E+03  0.00000000000E+00 0.  1.
         11    1    3    3    0    0  0.23444633586E+02 -0.43182519051E+02  0.15229735429E+03  0.16002770048E+03  0.00000000000E+00 0. -1.
        -13    1    4    4    0    0  0.43363328274E+02  0.58905173971E+02  0.37292918394E+03  0.38003470104E+03  0.00000000000E+00 0. -1.
         13    1    4    4    0    0 -0.25377489750E+02 -0.10300254126E+02  0.12011722959E+03  0.12320008549E+03  0.00000000000E+00 0.  1.
         -1    1    1    2    0  502  0.51167358678E+01 -0.22782587884E+02  0.68879650995E+02  0.72729867440E+02  0.00000000000E+00 0.  1.
<scales pt_clust_5="13000.00000" pt_clust_6="13000.00000" pt_clust_7="13000.00000" pt_clust_8="13000.00000" pt_clust_9="23.35011"></scales>
<clustering>
<clus scale="   23.350">  1  9  2 -1</clus>
<clus scale="   86.398">  7  8 -1 -1</clus>
<clus scale="   92.693">  5  6 -1 -1</clus>
<clus scale="   95.359">  1  7  2 -1</clus>
<clus scale="   23.350">  1  5  2 -1</clus>
</clustering>
</event>
<event>
 9    1  0.1601012E-005  0.1632376E+03  0.7546771E-02  0.1185488E+00
         21   -1    0    0  501  502  0.00000000000E+00  0.00000000000E+00  0.10023958539E+03  0.10023958539E+03  0.00000000000E+00 0.  1.
         -3   -1    0    0    0  501 -0.00000000000E+00 -0.00000000000E+00 -0.46857512347E+03  0.46857512347E+03  0.00000000000E+00 0.  1.
         23    2    1    2    0    0  0.94220562644E+02 -0.96967059851E+02 -0.19464029473E+03  0.25262076459E+03  0.87477318466E+02 0.  0.
         23    2    1    2    0    0 -0.12425295124E+03  0.71188137216E+02 -0.20620770197E+03  0.26497327283E+03  0.84750647153E+02 0.  0.
        -11    1    4    4    0    0 -0.11998214735E+03  0.51622528147E+02 -0.20718755056E+03  0.24492301280E+03  0.00000000000E+00 0.  1.
         11    1    4    4    0    0 -0.42708038914E+01  0.19565609069E+02  0.97984858614E+00  0.20050260032E+02  0.00000000000E+00 0. -1.
        -11    1    3    3    0    0 -0.14794641764E+02 -0.25894715865E+02 -0.25700748105E+02  0.39369355949E+02  0.00000000000E+00 0.  1.
         11    1    3    3    0    0  0.10901520441E+03 -0.71072343985E+02 -0.16893954662E+03  0.21325140864E+03  0.00000000000E+00 0. -1.
         -3    1    1    2    0  502  0.30032388593E+02  0.25778922635E+02  0.32512458624E+02  0.51220671438E+02  0.00000000000E+00 0.  1.
<scales pt_clust_5="13000.00000" pt_clust_6="13000.00000" pt_clust_7="13000.00000" pt_clust_8="13000.00000" pt_clust_9="39.57900"></scales>
<clustering>
<clus scale="   39.579">  1  9  2 -1</clus>
<clus scale="   84.751">  5  6 -1 -1</clus>
<clus scale="   87.477">  7  8 -1 -1</clus>
<clus scale="  161.793">  1  5  2 -1</clus>
<clus scale="   39.579">  1  5  2 -1</clus>
</clustering>
</event>
<event>
 9    1  0.1601012E-005  0.2605007E+03  0.7546771E-02  0.1107386E+00
          1   -1    0    0  502    0 -0.00000000000E+00  0.00000000000E+00  0.99466146035E+03  0.99466146035E+03  0.00000000000E+00 0. -1.
         21   -1    0    0  501  502  0.00000000000E+00 -0.00000000000E+00 -0.22906847847E+03  0.22906847847E+03  0.00000000000E+00 0. -1.
         23    2    1    2    0    0  0.22971102620E+02  0.23868332711E+03  0.45972389550E+03  0.52498403158E+03  0.82248228666E+02 0.  0.
         23    2    1    2    0    0 -0.40217552682E+02 -0.25214901091E+03  0.46662634123E+03  0.53650639397E+03  0.70017092129E+02 0.  0.
        -11    1    3    3    0    0  0.94703861759E+01  0.13122774729E+03  0.16527086513E+03  0.21124599105E+03  0.00000000000E+00 0.  1.
         11    1    3    3    0    0  0.13500716445E+02  0.10745557982E+03  0.29445303037E+03  0.31373804053E+03  0.00000000000E+00 0. -1.
        -13    1    4    4    0    0 -0.51115889161E+02 -0.11722801524E+03  0.19813002857E+03  0.23581931622E+03  0.00000000000E+00 0. -1.
         13    1    4    4    0    0  0.10898336479E+02 -0.13492099567E+03  0.26849631267E+03  0.30068707775E+03  0.00000000000E+00 0.  1.
          1    1    1    2  501    0  0.17246450062E+02  0.13465683803E+02 -0.16075725485E+03  0.16223951327E+03  0.00000000000E+00 0. -1.
<scales pt_clust_5="13000.00000" pt_clust_6="13000.00000" pt_clust_7="13000.00000" pt_clust_8="13000.00000" pt_clust_9="21.88069"></scales>
<clustering>
<clus scale="   21.881">  2  9  1 -1</clus>
<clus scale="   70.017">  7  8 -1 -1</clus>
<clus scale="   82.248">  5  6 -1 -1</clus>
<clus scale="  256.901">  2  7  1 -1</clus>
<clus scale="   21.881">  2  5  1 -1</clus>
</clustering>
</event>
<event>
 9    1  0.1601012E-005  0.1400803E+03  0.7546771E-02  0.1219566E+00
         21   -1    0    0  501  502  0.00000000000E+00  0.00000000000E+00  0.14798255959E+03  0.14798255959E+03  0.00000000000E+00 0.  1.
          3   -1    0    0  502    0 -0.00000000000E+00 -0.00000000000E+00 -0.18703096243E+03  0.18703096243E+03  0.00000000000E+00 0. -1.
         23    2    1    2    0    0  0.17732250570E+02 -0.69650859378E+02 -0.40365892800E+02  0.14048860516E+03  0.11376277052E+03 0.  0.
         23    2    1    2    0    0 -0.49005686467E+02  0.78652177416E+02 -0.45256638324E+02  0.13770765765E+03  0.91255209953E+02 0.  0.
        -11    1    3    3    0    0 -0.29244000061E+02 -0.67208516243E+02  0.71297817775E+01  0.73641224755E+02  0.00000000000E+00 0.  1.
         11    1    3    3    0    0  0.46976250631E+02 -0.24423431349E+01 -0.47495674577E+02  0.66847380404E+02  0.00000000000E+00 0. -1.
        -13    1    4    4    0    0 -0.35417700940E+02 -0.50629392999E+01  0.91711005608E+01  0.36934482259E+02  0.00000000000E+00 0. -1.
         13    1    4    4    0    0 -0.13587985527E+02  0.83715116716E+02 -0.54427738885E+02  0.10077317539E+03  0.00000000000E+00 0.  1.
          3    1    1    2  501    0  0.31273435897E+02 -0.90013180381E+01  0.46574128280E+02  0.56817259211E+02  0.00000000000E+00 0. -1.
<scales pt_clust_5="13000.00000" pt_clust_6="13000.00000" pt_clust_7="13000.00000" pt_clust_8="13000.00000" pt_clust_9="32.54307"></scales>
<clustering>
<clus scale="   32.543">  1  9  2 -1</clus>
<clus scale="   91.255">  7  8 -1 -1</clus>
<clus scale="  113.763">  5  6 -1 -1</clus>
<clus scale="  122.507">  1  7  2 -1</clus>
<clus scale="   32.543">  1  5  2 -1</clus>
</clustering>
</event>
<event>
 9    1  0.1601012E-005  0.9539310E+02  0.7546771E-02  0.1292950E+00
         21   -1    0    0  501  502  0.00000000000E+00  0.00000000000E+00  0.82627263810E+02  0.82627263810E+02  0.00000000000E+00 0. -1.
          1   -1    0    0  502    0 -0.00000000000E+00 -0.00000000000E+00 -0.53788177003E+03  0.53788177003E+03  0.00000000000E+00 0. -1.
         23    2    1    2    0    0  0.17896453067E+02  0.32368591152E+02 -0.46256558210E+03  0.47261604309E+03  0.89615834081E+02 0.  0.
         23    2    1    2    0    0 -0.24654294584E+02  0.98938424036E+01 -0.27295181515E+02  0.92853234541E+02  0.84681602912E+02 0.  0.
        -11    1    3    3    0    0  0.52274042873E+02  0.32214598799E+02 -0.33008949397E+03  0.33575203643E+03  0.00000000000E+00 0. -1.
         11    1    3    3    0    0 -0.34377589806E+02  0.15399235293E+00 -0.13247608813E+03  0.13686400666E+03  0.00000000000E+00 0.  1.
        -11    1    4    4    0    0  0.24504615521E+02 -0.19311575301E+02 -0.56134376928E+01  0.31700533200E+02  0.00000000000E+00 0.  1.
         11    1    4    4    0    0 -0.49158910106E+02  0.29205417704E+02 -0.21681743822E+02  0.61152701340E+02  0.00000000000E+00 0. -1.
          1    1    1    2  501    0  0.67578415174E+01 -0.42262433556E+02  0.34606257398E+02  0.55039756205E+02  0.00000000000E+00 0. -1.
<scales pt_clust_5="13000.00000" pt_clust_6="13000.00000" pt_clust_7="13000.00000" pt_clust_8="13000.00000" pt_clust_9="42.79932"></scales>
<clustering>
<clus scale="   42.799">  1  9  2 -1</clus>
<clus scale="   84.682">  7  8 -1 -1</clus>
<clus scale="   89.616">  5  6 -1 -1</clus>
<clus scale="   90.773">  1  7  2 -1</clus>
<clus scale="   42.799">  1  5  2 -1</clus>
</clustering>
</event>
<event>
 9    1  0.1601012E-005  0.1170181E+03  0.7546771E-02  0.1249252E+00
         21   -1    0    0  501  502  0.00000000000E+00  0.00000000000E+00  0.92480220437E+02  0.92480220437E+02  0.00000000000E+00 0. -1.
         -2   -1    0    0    0  501 -0.00000000000E+00 -0.00000000000E+00 -0.23960698440E+03  0.23960698440E+03  0.00000000000E+00 0.  1.
         23    2    1    2    0    0 -0.64440593475E+02  0.12228558387E+01 -0.13546639929E+03  0.17485342114E+03  0.89824763188E+02 0.  0.
         23    2    1    2    0    0  0.89407936696E+02  0.90218389488E+01 -0.13586241320E+02  0.13017771230E+03  0.93201277368E+02 0.  0.
        -11    1    3    3    0    0  0.11374489239E+02  0.27668568913E+02 -0.30818086263E+02  0.42949774761E+02  0.00000000000E+00 0. -1.
         11    1    3    3    0    0 -0.75815082714E+02 -0.26445713075E+02 -0.10464831303E+03  0.13190364638E+03  0.00000000000E+00 0.  1.
        -11    1    4    4    0    0  0.25189154935E+02 -0.40410023704E+02  0.19658419056E+01  0.47658452309E+02  0.00000000000E+00 0.  1.
         11    1    4    4    0    0  0.64218781761E+02  0.49431862652E+02 -0.15552083226E+02  0.82519259987E+02  0.00000000000E+00 0. -1.
         -2    1    1    2    0  502 -0.24967343220E+02 -0.10244694788E+02  0.19258766547E+01  0.27056071401E+02  0.00000000000E+00 0.  1.
<scales pt_clust_5="13000.00000" pt_clust_6="13000.00000" pt_clust_7="13000.00000" pt_clust_8="13000.00000" pt_clust_9="26.98744"></scales>
<clustering>
<clus scale="   26.987">  1  9  2 -1</clus>
<clus scale="   89.825">  5  6 -1 -1</clus>
<clus scale="   93.201">  7  8 -1 -1</clus>
<clus scale="  114.347">  2  5  1 -1</clus>
<clus scale="   26.987">  1  5  2 -1</clus>
</clustering>
</event>
<event>
 9    1  0.1601012E-005  0.9697215E+02  0.7546771E-02  0.1287474E+00
          1   -1    0    0  502    0 -0.00000000000E+00  0.00000000000E+00  0.65458050910E+02  0.65458050910E+02  0.00000000000E+00 0. -1.
         21   -1    0    0  501  502  0.00000000000E+00 -0.00000000000E+00 -0.24797944072E+03  0.24797944072E+03  0.00000000000E+00 0.  1.
         23    2    1    2    0    0  0.16100510182E+02 -0.13578269452E+02 -0.33832108452E+02  0.99003319013E+02  0.90628084962E+02 0.  0.
         23    2    1    2    0    0 -0.41418627079E+02  0.15307360132E+02 -0.52007949006E+02  0.11447779802E+03  0.91926718291E+02 0.  0.
        -11    1    3    3    0    0  0.47669054267E+02  0.15479733438E+02 -0.17267434103E+02  0.53010613678E+02  0.00000000000E+00 0.  1.
         11    1    3    3    0    0 -0.31568544086E+02 -0.29058002891E+02 -0.16564674349E+02  0.45992705334E+02  0.00000000000E+00 0. -1.
        -13    1    4    4    0    0  0.20639986123E+02  0.74730138306E+01  0.11969830031E+02  0.25002635738E+02  0.00000000000E+00 0.  1.
         13    1    4    4    0    0 -0.62058613202E+02  0.78343463011E+01 -0.63977779037E+02  0.89475162280E+02  0.00000000000E+00 0. -1.
          1    1    1    2  501    0  0.25318116898E+02 -0.17290906796E+01 -0.96681332349E+02  0.99956374598E+02  0.00000000000E+00 0. -1.
<scales pt_clust_5="13000.00000" pt_clust_6="13000.00000" pt_clust_7="13000.00000" pt_clust_8="13000.00000" pt_clust_9="25.37709"></scales>
<clustering>
<clus scale="   25.377">  2  9  1 -1</clus>
<clus scale="   90.628">  5  6 -1 -1</clus>
<clus scale="   91.927">  7  8 -1 -1</clus>
<clus scale="   95.742">  1  5  2 -1</clus>
<clus scale="   25.377">  2  5  1 -1</clus>
</clustering>
</event>
<event>
 9    1  0.1601012E-005  0.1318028E+03  0.7546771E-02  0.1228312E+00
          2   -1    0    0  502    0 -0.00000000000E+00  0.00000000000E+00  0.64095966166E+03  0.64095966166E+03  0.00000000000E+00 0. -1.
         21   -1    0    0  501  502  0.00000000000E+00 -0.00000000000E+00 -0.41825289529E+02  0.41825289529E+02  0.00000000000E+00 0.  1.
         23    2    1    2    0    0 -0.55662093673E+02  0.68702812671E+02  0.43023288550E+03  0.45097262014E+03  0.10226252104E+03 0.  0.
         23    2    1    2    0    0  0.19475291126E+02 -0.74911933646E+02  0.14740142881E+03  0.18926482409E+03  0.90016152195E+02 0.  0.
        -11    1    3    3    0    0  0.12603662612E+02  0.53068467105E+02  0.10541336828E+03  0.11868905899E+03  0.00000000000E+00 0.  1.
         11    1    3    3    0    0 -0.68265756285E+02  0.15634345566E+02  0.32481951723E+03  0.33228356115E+03  0.00000000000E+00 0. -1.
        -13    1    4    4    0    0  0.44150246933E+02 -0.48233843439E+02  0.41854713279E+02  0.77637394217E+02  0.00000000000E+00 0.  1.
         13    1    4    4    0    0 -0.24674955807E+02 -0.26678090207E+02  0.10554671553E+03  0.11162742987E+03  0.00000000000E+00 0. -1.
          2    1    1    2  501    0  0.36186802547E+02  0.62091209752E+01  0.21500057821E+02  0.42547506956E+02  0.00000000000E+00 0. -1.
<scales pt_clust_5="13000.00000" pt_clust_6="13000.00000" pt_clust_7="13000.00000" pt_clust_8="13000.00000" pt_clust_9="36.71564"></scales>
<clustering>
<clus scale="   36.716">  2  9  1 -1</clus>
<clus scale="   90.016">  7  8 -1 -1</clus>
<clus scale="  102.263">  5  6 -1 -1</clus>
<clus scale="  122.545">  2  7  1 -1</clus>
<clus scale="   36.716">  2  5  1 -1</clus>
</clustering>
</event>
<event>
 9    1  0.1601012E-005  0.1586038E+03  0.7546771E-02  0.1192953E+00
         -1   -1    0    0    0  501 -0.00000000000E+00  0.00000000000E+00  0.14858060577E+03  0.14858060577E+03  0.00000000000E+00 0.  1.
         21   -1    0    0  501  502  0.00000000000E+00 -0.00000000000E+00 -0.20162302628E+03  0.20162302628E+03  0.00000000000E+00 0. -1.
         23    2    1    2    0    0  0.54059496971E+02  0.10406518952E+03 -0.29357808207E+02  0.16203189970E+03  0.10789097615E+03 0.  0.
         23    2    1    2    0    0 -0.22487526131E+02 -0.11547077436E+03 -0.31092825753E+02  0.15379502025E+03  0.94058257879E+02 0.  0.
        -11    1    3    3    0    0  0.85325156726E+01  0.45601433589E+02  0.39460360610E+02  0.60904963907E+02  0.00000000000E+00 0.  1.
         11    1    3    3    0    0  0.45526981299E+02  0.58463755931E+02 -0.68818168817E+02  0.10112693579E+03  0.00000000000E+00 0. -1.
        -13    1    4    4    0    0 -0.28137323985E+02 -0.43667059536E+02 -0.57121965814E+02  0.77210362439E+02  0.00000000000E+00 0.  1.
         13    1    4    4    0    0  0.56497978543E+01 -0.71803714829E+02  0.26029140061E+02  0.76584657807E+02  0.00000000000E+00 0. -1.
         -1    1    1    2    0  502 -0.31571970840E+02  0.11405584846E+02  0.74082134432E+01  0.34376712100E+02  0.00000000000E+00 0.  1.
<scales pt_clust_5="13000.00000" pt_clust_6="13000.00000" pt_clust_7="13000.00000" pt_clust_8="13000.00000" pt_clust_9="33.56900"></scales>
<clustering>
<clus scale="   33.569">  2  9  1 -1</clus>
<clus scale="   94.058">  7  8 -1 -1</clus>
<clus scale="  107.891">  5  6 -1 -1</clus>
<clus scale="  149.538">  2  7  1 -1</clus>
<clus scale="   33.569">  2  5  1 -1</clus>
</clustering>
</event>
<event>
 9    1  0.1601012E-005  0.9361387E+02  0.7546771E-02  0.1296004E+00
         21   -1    0    0  501  502  0.00000000000E+00  0.00000000000E+00  0.98782587818E+02  0.98782587818E+02  0.00000000000E+00 0. -1.
          1   -1    0    0  502    0 -0.00000000000E+00 -0.00000000000E+00 -0.33123227444E+03  0.33123227444E+03  0.00000000000E+00 0. -1.
         23    2    1    2    0    0  0.17755914330E+02  0.97218539872E+01 -0.21644040223E+03  0.23514117057E+03  0.89638916985E+02 0.  0.
         23    2    1    2    0    0 -0.53551200284E+01  0.16992173931E+02 -0.80521581857E+02  0.12395644759E+03  0.92542230731E+02 0.  0.
        -11    1    3    3    0    0  0.15777572201E+02  0.49553327724E+02 -0.12067459416E+03  0.13140327907E+03  0.00000000000E+00 0. -1.
         11    1    3    3    0    0  0.19783421288E+01 -0.39831473737E+02 -0.95765808072E+02  0.10373789150E+03  0.00000000000E+00 0.  1.
        -11    1    4    4    0    0 -0.28383347548E+02  0.82074241447E+01 -0.92101552056E+02  0.96724723418E+02  0.00000000000E+00 0.  1.
         11    1    4    4    0    0  0.23028227519E+02  0.87847497864E+01  0.11579970199E+02  0.27231724171E+02  0.00000000000E+00 0. -1.
          1    1    1    2  501    0 -0.12400794301E+02 -0.26714027918E+02  0.64512297466E+02  0.70917244104E+02  0.00000000000E+00 0. -1.
<scales pt_clust_5="13000.00000" pt_clust_6="13000.00000" pt_clust_7="13000.00000" pt_clust_8="13000.00000" pt_clust_9="29.45198"></scales>
<clustering>
<clus scale="   29.452">  1  9  2 -1</clus>
<clus scale="   89.639">  5  6 -1 -1</clus>
<clus scale="   90.745">  2  5  1 -1</clus>
<clus scale="   92.542">  7  8 -1 -1</clus>
<clus scale="   29.452">  1  5  2 -1</clus>
</clustering>
</event>
<event>
 9    1  0.1601012E-005  0.1473617E+03  0.7546771E-02  0.1212014E+00
          1   -1    0    0  502    0 -0.00000000000E+00  0.00000000000E+00  0.24013286154E+03  0.24013286154E+03  0.00000000000E+00 0. -1.
         21   -1    0    0  501  502  0.00000000000E+00 -0.00000000000E+00 -0.27383099261E+03  0.27383099261E+03  0.00000000000E+00 0.  1.
         23    2    1    2    0    0  0.53472545287E+01 -0.82438905734E+02  0.16678157328E+03  0.20697456692E+03  0.90540664111E+02 0.  0.
         23    2    1    2    0    0 -0.24151361020E+02  0.89434834533E+02 -0.58077015538E+02  0.16318016645E+03  0.12113194922E+03 0.  0.
        -11    1    3    3    0    0 -0.28590203649E+02 -0.90077406437E+01  0.92183697288E+02  0.96934891457E+02  0.00000000000E+00 0.  1.
         11    1    3    3    0    0  0.33937458177E+02 -0.73431165090E+02  0.74597875989E+02  0.11003967546E+03  0.00000000000E+00 0. -1.
        -13    1    4    4    0    0  0.26048019094E+02  0.68831394353E+02 -0.76232286877E+02  0.10596047239E+03  0.00000000000E+00 0.  1.
         13    1    4    4    0    0 -0.50199380113E+02  0.20603440180E+02  0.18155271339E+02  0.57219694061E+02  0.00000000000E+00 0. -1.
          1    1    1    2  501    0  0.18804106491E+02 -0.69959287990E+01 -0.14240268881E+03  0.14380912078E+03  0.00000000000E+00 0. -1.
<scales pt_clust_5="13000.00000" pt_clust_6="13000.00000" pt_clust_7="13000.00000" pt_clust_8="13000.00000" pt_clust_9="20.06334"></scales>
<clustering>
<clus scale="   20.063">  2  9  1 -1</clus>
<clus scale="   90.541">  5  6 -1 -1</clus>
<clus scale="  121.132">  7  8 -1 -1</clus>
<clus scale="  123.451">  1  5  2 -1</clus>
<clus scale="   20.063">  2  5  1 -1</clus>
</clustering>
</event>
<event>
 9    1  0.1601012E-005  0.9314671E+02  0.7546771E-02  0.1295671E+00
         -1   -1    0    0    0  501 -0.00000000000E+00  0.00000000000E+00  0.17889632496E+03  0.17889632496E+03  0.00000000000E+00 0.  1.
         21   -1    0    0  501  502  0.00000000000E+00 -0.00000000000E+00 -0.63862996516E+02  0.63862996516E+02  0.00000000000E+00 0.  1.
         23    2    1    2    0    0  0.55696870474E+01 -0.18913642087E+01  0.57056384296E+02  0.10796377090E+03  0.91466639637E+02 0.  0.
         23    2    1    2    0    0 -0.72135985345E+01  0.26740992102E+02  0.51977678832E+02  0.10917919572E+03  0.91930957894E+02 0.  0.
        -13    1    4    4    0    0  0.30808668761E+02 -0.19204731844E+02  0.21703187311E+02  0.42296857276E+02  0.00000000000E+00 0. -1.
         13    1    4    4    0    0 -0.38022267295E+02  0.45945723945E+02  0.30274491522E+02  0.66882338446E+02  0.00000000000E+00 0.  1.
        -13    1    3    3    0    0 -0.97088787832E+01 -0.33277690079E+02  0.63613748623E+02  0.72445676186E+02  0.00000000000E+00 0. -1.
         13    1    3    3    0    0  0.15278565831E+02  0.31386325870E+02 -0.65573643270E+01  0.35518094718E+02  0.00000000000E+00 0.  1.
         -1    1    1    2    0  502  0.16439114871E+01 -0.24849627893E+02  0.59992653133E+01  0.25616354848E+02  0.00000000000E+00 0.  1.
<scales pt_clust_5="13000.00000" pt_clust_6="13000.00000" pt_clust_7="13000.00000" pt_clust_8="13000.00000" pt_clust_9="24.90394"></scales>
<clustering>
<clus scale="   24.904">  2  9  1 -1</clus>
<clus scale="   91.467">  7  8 -1 -1</clus>
<clus scale="   91.931">  5  6 -1 -1</clus>
<clus scale="   92.688">  1  7  2 -1</clus>
<clus scale="   24.904">  2  5  1 -1</clus>
</clustering>
</event>
<event>
 9    1  0.1601012E-005  0.9526810E+02  0.7546771E-02  0.1293509E+00
          3   -1    0    0  502    0 -0.00000000000E+00  0.00000000000E+00  0.33141532140E+03  0.33141532140E+03  0.00000000000E+00 0. -1.
         21   -1    0    0  501  502  0.00000000000E+00 -0.00000000000E+00 -0.35440661965E+02  0.35440661965E+02  0.00000000000E+00 0.  1.
         23    2    1    2    0    0  0.94582876236E+01 -0.78481957876E+01  0.15491554427E+03  0.17836961539E+03  0.87554785455E+02 0.  0.
         23    2    1    2    0    0 -0.30310888458E+02  0.18210539651E+02  0.12728788329E+03  0.16143353154E+03  0.92780419055E+02 0.  0.
        -11    1    3    3    0    0  0.31305138447E+02 -0.33192610805E+02  0.12648102024E+03  0.13445895131E+03  0.00000000000E+00 0.  1.
         11    1    3    3    0    0 -0.21846850823E+02  0.25344415018E+02  0.28434524029E+02  0.43910664083E+02  0.00000000000E+00 0. -1.
        -11    1    4    4    0    0 -0.31886922511E+02 -0.17248689032E+02  0.82004693159E+01  0.37169083894E+02  0.00000000000E+00 0.  1.
         11    1    4    4    0    0  0.15760340532E+01  0.35459228683E+02  0.11908741397E+03  0.12426444764E+03  0.00000000000E+00 0. -1.
          3    1    1    2  501    0  0.20852600834E+02 -0.10362343863E+02  0.13771231881E+02  0.27052836439E+02  0.00000000000E+00 0. -1.
<scales pt_clust_5="13000.00000" pt_clust_6="13000.00000" pt_clust_7="13000.00000" pt_clust_8="13000.00000" pt_clust_9="23.28538"></scales>
<clustering>
<clus scale="   23.285">  2  9  1 -1</clus>
<clus scale="   87.555">  5  6 -1 -1</clus>
<clus scale="   90.187">  1  5  2 -1</clus>
<clus scale="   92.780">  7  8 -1 -1</clus>
<clus scale="   23.285">  2  5  1 -1</clus>
</clustering>
</event>
<event>
 9    1  0.1601012E-005  0.1018964E+03  0.7546771E-02  0.1277137E+00
          1   -1    0    0  502    0 -0.00000000000E+00  0.00000000000E+00  0.26534888964E+03  0.26534888964E+03  0.00000000000E+00 0. -1.
         21   -1    0    0  501  502  0.00000000000E+00 -0.00000000000E+00 -0.76020346704E+02  0.76020346704E+02  0.00000000000E+00 0.  1.
         23    2    1    2    0    0 -0.31672518685E+02  0.30209569256E+02  0.12929700914E+03  0.16460420190E+03  0.91984021423E+02 0.  0.
         23    2    1    2    0    0  0.49047814528E+02 -0.59187269858E+01  0.88314307128E+02  0.13563279416E+03  0.90311231686E+02 0.  0.
        -11    1    3    3    0    0 -0.27460236521E+02 -0.30466776052E+02  0.53995250066E+02  0.67806902764E+02  0.00000000000E+00 0.  1.
         11    1    3    3    0    0 -0.42122821643E+01  0.60676345308E+02  0.75301759070E+02  0.96797299136E+02  0.00000000000E+00 0. -1.
        -13    1    4    4    0    0  0.42110973304E+02  0.36551630259E+02  0.68303985837E+02  0.88174770930E+02  0.00000000000E+00 0. -1.
         13    1    4    4    0    0  0.69368412233E+01 -0.42470357244E+02  0.20010321291E+02  0.47458023229E+02  0.00000000000E+00 0.  1.
          1    1    1    2  501    0 -0.17375295842E+02 -0.24290842270E+02 -0.28282773328E+02  0.41132240286E+02  0.00000000000E+00 0. -1.
<scales pt_clust_5="13000.00000" pt_clust_6="13000.00000" pt_clust_7="13000.00000" pt_clust_8="13000.00000" pt_clust_9="29.86546"></scales>
<clustering>
<clus scale="   29.865">  2  9  1 -1</clus>
<clus scale="   90.311">  7  8 -1 -1</clus>
<clus scale="   91.984">  5  6 -1 -1</clus>
<clus scale="  100.389">  2  7  1 -1</clus>
<clus scale="   29.865">  2  5  1 -1</clus>
</clustering>
</event>
<event>
 9    1  0.1601012E-005  0.1140748E+03  0.7546771E-02  0.1257940E+00
         21   -1    0    0  501  502  0.00000000000E+00  0.00000000000E+00  0.29379608326E+03  0.29379608326E+03  0.00000000000E+00 0. -1.
          1   -1    0    0  502    0 -0.00000000000E+00 -0.00000000000E+00 -0.22999951276E+03  0.22999951276E+03  0.00000000000E+00 0. -1.
         23    2    1    2    0    0  0.83572650890E+01 -0.61197060336E+02 -0.15288159455E+03  0.18795246793E+03  0.90213215091E+02 0.  0.
         23    2    1    2    0    0  0.68676357855E+02  0.63431639555E+01  0.29985933328E+02  0.12656551726E+03  0.10179880208E+03 0.  0.
        -11    1    4    4    0    0  0.90019234371E+02  0.90992842808E+01  0.10242428653E+01  0.90483747738E+02  0.00000000000E+00 0. -1.
         11    1    4    4    0    0 -0.21342876516E+02 -0.27561203253E+01  0.28961690463E+02  0.36081769520E+02  0.00000000000E+00 0.  1.
        -11    1    3    3    0    0  0.27987273768E+02  0.72406730286E+00 -0.10102946067E+03  0.10483684319E+03  0.00000000000E+00 0. -1.
         11    1    3    3    0    0 -0.19630008679E+02 -0.61921127639E+02 -0.51852133874E+02  0.83115624741E+02  0.00000000000E+00 0.  1.
          1    1    1    2  501    0 -0.77033622944E+02  0.54853896381E+02  0.18669223172E+03  0.20927761083E+03  0.00000000000E+00 0. -1.
<scales pt_clust_5="13000.00000" pt_clust_6="13000.00000" pt_clust_7="13000.00000" pt_clust_8="13000.00000" pt_clust_9="94.56812"></scales>
<clustering>
<clus scale="   90.213">  7  8 -1 -1</clus>
<clus scale="   94.568">  1  9  2 -1</clus>
<clus scale="  101.799">  5  6 -1 -1</clus>
<clus scale="  103.868">  2  7  1 -1</clus>
<clus scale="   94.568">  1  5  2 -1</clus>
</clustering>
</event>
<event>
 9    1  0.1601012E-005  0.1071216E+03  0.7546771E-02  0.1274073E+00
          2   -1    0    0  502    0 -0.00000000000E+00  0.00000000000E+00  0.27887349184E+03  0.27887349184E+03  0.00000000000E+00 0. -1.
         21   -1    0    0  501  502  0.00000000000E+00 -0.00000000000E+00 -0.86580577110E+02  0.86580577110E+02  0.00000000000E+00 0. -1.
         23    2    1    2    0    0  0.26240995456E+02 -0.97172070508E+00  0.20918550587E+03  0.22866473819E+03  0.88540682970E+02 0.  0.
         23    2    1    2    0    0 -0.91561199792E+01  0.11505006340E+02  0.67963877623E+01  0.10574080749E+03  0.10449271639E+03 0.  0.
        -11    1    4    4    0    0  0.26870939783E+02  0.47433140294E+02  0.92846112828E+00  0.54523501749E+02  0.00000000000E+00 0. -1.
         11    1    4    4    0    0 -0.36027059763E+02 -0.35928133954E+02  0.58679266341E+01  0.51217305742E+02  0.00000000000E+00 0.  1.
        -13    1    3    3    0    0  0.10558402009E+02 -0.34594102910E+02  0.34161167912E+02  0.49751554772E+02  0.00000000000E+00 0.  1.
         13    1    3    3    0    0  0.15682593448E+02  0.33622382205E+02  0.17502433796E+03  0.17891318342E+03  0.00000000000E+00 0. -1.
          2    1    1    2  501    0 -0.17084875477E+02 -0.10533285635E+02 -0.23688978898E+02  0.31048523275E+02  0.00000000000E+00 0. -1.
<scales pt_clust_5="13000.00000" pt_clust_6="13000.00000" pt_clust_7="13000.00000" pt_clust_8="13000.00000" pt_clust_9="20.07095"></scales>
<clustering>
<clus scale="   20.071">  2  9  1 -1</clus>
<clus scale="   88.541">  7  8 -1 -1</clus>
<clus scale="   91.628">  1  7  2 -1</clus>
<clus scale="  104.493">  5  6 -1 -1</clus>
<clus scale="   20.071">  2  5  1 -1</clus>
</clustering>
</event>
<event>
 9    1  0.1601012E-005  0.1821005E+03  0.7546771E-02  0.1166512E+00
         21   -1    0    0  501  502  0.00000000000E+00  0.00000000000E+00  0.96862122188E+02  0.96862122188E+02  0.00000000000E+00 0.  1.
          1   -1    0    0  502    0 -0.00000000000E+00 -0.00000000000E+00 -0.55152165903E+03  0.55152165903E+03  0.00000000000E+00 0. -1.
         23    2    1    2    0    0  0.12622514464E+03 -0.79306121587E+02 -0.29552901691E+03  0.34519647770E+03  0.97984490202E+02 0.  0.
         23    2    1    2    0    0 -0.15750567612E+03  0.47257054195E+02 -0.17342480800E+03  0.25617729350E+03  0.92246270900E+02 0.  0.
        -11    1    3    3    0    0  0.15450132171E+02  0.21411076481E+02 -0.27085850720E+02  0.37825706727E+02  0.00000000000E+00 0.  1.
         11    1    3    3    0    0  0.11077501247E+03 -0.10071719807E+03 -0.26844316619E+03  0.30737077097E+03  0.00000000000E+00 0. -1.
        -13    1    4    4    0    0 -0.43747971147E+02 -0.31369872393E+01 -0.14117646629E+01  0.43883012065E+02  0.00000000000E+00 0. -1.
         13    1    4    4    0    0 -0.11375770497E+03  0.50394041434E+02 -0.17201304333E+03  0.21229428143E+03  0.00000000000E+00 0.  1.
          1    1    1    2  501    0  0.31280531479E+02  0.32049067392E+02  0.14294288068E+02  0.47010010016E+02  0.00000000000E+00 0. -1.
<scales pt_clust_5="13000.00000" pt_clust_6="13000.00000" pt_clust_7="13000.00000" pt_clust_8="13000.00000" pt_clust_9="44.78409"></scales>
<clustering>
<clus scale="   44.784">  1  9  2 -1</clus>
<clus scale="   92.246">  7  8 -1 -1</clus>
<clus scale="   97.984">  5  6 -1 -1</clus>
<clus scale="  179.078">  1  7  2 -1</clus>
<clus scale="   44.784">  1  5  2 -1</clus>
</clustering>
</event>
<event>
 9    1  0.1601012E-005  0.1007721E+03  0.7546771E-02  0.1279065E+00
         21   -1    0    0  501  502  0.00000000000E+00  0.00000000000E+00  0.34313263018E+02  0.34313263018E+02  0.00000000000E+00 0.  1.
          2   -1    0    0  502    0 -0.00000000000E+00 -0.00000000000E+00 -0.41601474550E+03  0.41601474550E+03  0.00000000000E+00 0. -1.
         23    2    1    2    0    0 -0.31468327411E+02  0.25832332493E+02 -0.25498315037E+03  0.27418454838E+03  0.92212767928E+02 0.  0.
         23    2    1    2    0    0  0.12752705519E+02 -0.36542310831E+02 -0.10613818083E+03  0.14633539469E+03  0.93009474406E+02 0.  0.
        -11    1    3    3    0    0 -0.12279557402E+01 -0.33771785275E+02 -0.78253699062E+02  0.85238974494E+02  0.00000000000E+00 0. -1.
         11    1    3    3    0    0 -0.30240371671E+02  0.59604117768E+02 -0.17672945131E+03  0.18894557389E+03  0.00000000000E+00 0.  1.
        -11    1    4    4    0    0 -0.32142406165E+02 -0.33410039428E+02 -0.84537986366E+02  0.96415953802E+02  0.00000000000E+00 0.  1.
         11    1    4    4    0    0  0.44895111685E+02 -0.31322714037E+01 -0.21600194461E+02  0.49919440883E+02  0.00000000000E+00 0. -1.
          2    1    1    2  501    0  0.18715621891E+02  0.10709978339E+02 -0.20580151288E+02  0.29808065450E+02  0.00000000000E+00 0. -1.
<scales pt_clust_5="13000.00000" pt_clust_6="13000.00000" pt_clust_7="13000.00000" pt_clust_8="13000.00000" pt_clust_9="21.56335"></scales>
<clustering>
<clus scale="   21.563">  1  9  2 -1</clus>
<clus scale="   92.213">  5  6 -1 -1</clus>
<clus scale="   93.009">  7  8 -1 -1</clus>
<clus scale="  100.037">  2  5  1 -1</clus>
<clus scale="   21.563">  1  5  2 -1</clus>
</clustering>
</event>
<event>
 9    1  0.1601012E-005  0.1535934E+03  0.7546771E-02  0.1196216E+00
          1   -1    0    0  502    0 -0.00000000000E+00  0.00000000000E+00  0.11119736947E+04  0.11119736947E+04  0.00000000000E+00 0. -1.
         21   -1    0    0  501  502  0.00000000000E+00 -0.00000000000E+00 -0.36252705177E+02  0.36252705177E+02  0.00000000000E+00 0.  1.
         23    2    1    2    0    0  0.19832617886E+02 -0.10122076961E+03  0.39540757273E+03  0.41838725566E+03  0.89787360996E+02 0.  0.
         23    2    1    2    0    0  0.17044974887E+02  0.14818723111E+03  0.62347418437E+03  0.64739823389E+03  0.90301871684E+02 0.  0.
        -11    1    4    4    0    0 -0.25635643841E+02  0.29131033200E+02  0.74011627977E+02  0.83567484145E+02  0.00000000000E+00 0.  1.
         11    1    4    4    0    0  0.42680618728E+02  0.11905619791E+03  0.54946255639E+03  0.56383074974E+03  0.00000000000E+00 0. -1.
        -13    1    3    3    0    0  0.35531997722E+02 -0.37774042923E+02  0.28818571191E+03  0.29281462690E+03  0.00000000000E+00 0.  1.
         13    1    3    3    0    0 -0.15699379836E+02 -0.63446726690E+02  0.10722186082E+03  0.12557262875E+03  0.00000000000E+00 0. -1.
          1    1    1    2  501    0 -0.36877592773E+02 -0.46966461495E+02  0.56839232432E+02  0.82440910339E+02  0.00000000000E+00 0. -1.
<scales pt_clust_5="13000.00000" pt_clust_6="13000.00000" pt_clust_7="13000.00000" pt_clust_8="13000.00000" pt_clust_9="59.71436"></scales>
<clustering>
<clus scale="   59.714">  2  9  1 -1</clus>
<clus scale="   89.787">  7  8 -1 -1</clus>
<clus scale="   90.302">  5  6 -1 -1</clus>
<clus scale="  153.291">  1  7  2 -1</clus>
<clus scale="   59.714">  2  5  1 -1</clus>
</clustering>
</event>
<event>
 9    1  0.1601012E-005  0.1006998E+03  0.7546771E-02  0.1280046E+00
         21   -1    0    0  501  502  0.00000000000E+00  0.00000000000E+00  0.22310196036E+03  0.22310196036E+03  0.00000000000E+00 0.  1.
         -1   -1    0    0    0  501 -0.00000000000E+00 -0.00000000000E+00 -0.13305387602E+03  0.13305387602E+03  0.00000000000E+00 0.  1.
         23    2    1    2    0    0 -0.21090050005E+02  0.23337462221E+02 -0.33554478581E+02  0.10040676603E+03  0.89253505705E+02 0.  0.
         23    2    1    2    0    0  0.39674976949E+02 -0.37422355268E+02 -0.21393663697E+02  0.10888964963E+03  0.91786330576E+02 0.  0.
        -11    1    4    4    0    0  0.81696235677E+01  0.29525990317E+02  0.34735538879E+01  0.30831679002E+02  0.00000000000E+00 0. -1.
         11    1    4    4    0    0  0.31505353381E+02 -0.66948345585E+02 -0.24867217585E+02  0.78057970629E+02  0.00000000000E+00 0.  1.
        -13    1    3    3    0    0  0.32541209607E+02 -0.47518297407E+01 -0.19577037141E+02  0.38272321484E+02  0.00000000000E+00 0.  1.
         13    1    3    3    0    0 -0.53631259612E+02  0.28089291962E+02 -0.13977441440E+02  0.62134444551E+02  0.00000000000E+00 0. -1.
         -1    1    1    2    0  502 -0.18584926943E+02  0.14084893047E+02  0.14499622662E+03  0.14685942072E+03  0.00000000000E+00 0.  1.
<scales pt_clust_5="13000.00000" pt_clust_6="13000.00000" pt_clust_7="13000.00000" pt_clust_8="13000.00000" pt_clust_9="23.31917"></scales>
<clustering>
<clus scale="   23.319">  1  9  2 -1</clus>
<clus scale="   89.254">  7  8 -1 -1</clus>
<clus scale="   91.786">  5  6 -1 -1</clus>
<clus scale="   98.397">  2  7  1 -1</clus>
<clus scale="   23.319">  1  5  2 -1</clus>
</clustering>
</event>
<event>
 9    1  0.1601012E-005  0.1104228E+03  0.7546771E-02  0.1259833E+00
          2   -1    0    0  502    0 -0.00000000000E+00  0.00000000000E+00  0.33655091890E+03  0.33655091890E+03  0.00000000000E+00 0. -1.
         21   -1    0    0  501  502  0.00000000000E+00 -0.00000000000E+00 -0.72332657122E+02  0.72332657122E+02  0.00000000000E+00 0.  1.
         23    2    1    2    0    0  0.28691884083E+02  0.49841580116E+02  0.17922288098E+03  0.20934981314E+03  0.91646581362E+02 0.  0.
         23    2    1    2    0    0 -0.13192820535E+02 -0.68637304248E+02  0.11364477068E+03  0.16192674549E+03  0.91760595879E+02 0.  0.
        -11    1    3    3    0    0  0.46524049544E+02 -0.57392282561E+01  0.10448371615E+03  0.11451756576E+03  0.00000000000E+00 0. -1.
         11    1    3    3    0    0 -0.17832165462E+02  0.55580808372E+02  0.74739164837E+02  0.94832247389E+02  0.00000000000E+00 0.  1.
        -13    1    4    4    0    0 -0.52606730686E+02 -0.44474603621E+02  0.62953108831E+02  0.93319624904E+02  0.00000000000E+00 0.  1.
         13    1    4    4    0    0  0.39413910151E+02 -0.24162700627E+02  0.50691661846E+02  0.68607120590E+02  0.00000000000E+00 0. -1.
          2    1    1    2  501    0 -0.15499063548E+02  0.18795724132E+02 -0.28649389876E+02  0.37607017388E+02  0.00000000000E+00 0. -1.
<scales pt_clust_5="13000.00000" pt_clust_6="13000.00000" pt_clust_7="13000.00000" pt_clust_8="13000.00000" pt_clust_9="24.36186"></scales>
<clustering>
<clus scale="   24.362">  2  9  1 -1</clus>
<clus scale="   91.647">  5  6 -1 -1</clus>
<clus scale="   91.761">  7  8 -1 -1</clus>
<clus scale="  110.328">  1  5  2 -1</clus>
<clus scale="   24.362">  2  5  1 -1</clus>
</clustering>
</event>
<event>
 9    1  0.1601012E-005  0.1191733E+03  0.7546771E-02  0.1245213E+00
         -1   -1    0    0    0  501 -0.00000000000E+00  0.00000000000E+00  0.66906118375E+03  0.66906118375E+03  0.00000000000E+00 0.  1.
         21   -1    0    0  501  502  0.00000000000E+00 -0.00000000000E+00 -0.47101729629E+02  0.47101729629E+02  0.00000000000E+00 0. -1.
         23    2    1    2    0    0  0.26672145651E+02  0.11259830376E+03  0.35374399355E+03  0.38374362697E+03  0.93458958377E+02 0.  0.
         23    2    1    2    0    0  0.97280385219E+01 -0.22336389004E+02  0.12568498290E+03  0.15982982055E+03  0.95683371607E+02 0.  0.
        -11    1    3    3    0    0  0.60306649596E+02  0.52941658583E+02  0.19305174467E+03  0.20906622711E+03  0.00000000000E+00 0. -1.
         11    1    3    3    0    0 -0.33634503945E+02  0.59656645175E+02  0.16069224888E+03  0.17467739986E+03  0.00000000000E+00 0.  1.
        -13    1    4    4    0    0  0.39327449756E+02 -0.98445994926E+01  0.12878063438E+02  0.42537148017E+02  0.00000000000E+00 0. -1.
         13    1    4    4    0    0 -0.29599411234E+02 -0.12491789511E+02  0.11280691946E+03  0.11729267253E+03  0.00000000000E+00 0.  1.
         -1    1    1    2    0  502 -0.36400184173E+02 -0.90261914755E+02  0.14253047766E+03  0.17258946586E+03  0.00000000000E+00 0.  1.
<scales pt_clust_5="13000.00000" pt_clust_6="13000.00000" pt_clust_7="13000.00000" pt_clust_8="13000.00000" pt_clust_9="97.32516"></scales>
<clustering>
<clus scale="   93.459">  5  6 -1 -1</clus>
<clus scale="   95.683">  7  8 -1 -1</clus>
<clus scale="   97.325">  2  9  1 -1</clus>
<clus scale="  117.395">  1  5  2 -1</clus>
<clus scale="   97.325">  2  5  1 -1</clus>
</clustering>
</event>
<event>
 9    1  0.1601012E-005  0.9746995E+02  0.7546771E-02  0.1285932E+00
         -1   -1    0    0    0  501 -0.00000000000E+00  0.00000000000E+00  0.14012838984E+03  0.14012838984E+03  0.00000000000E+00 0.  1.
         21   -1    0    0  501  502  0.00000000000E+00 -0.00000000000E+00 -0.14182094357E+03  0.14182094357E+03  0.00000000000E+00 0. -1.
         23    2    1    2    0    0  0.24096843866E+02 -0.24101411765E+02  0.87228423187E+02  0.13036556309E+03  0.90690938325E+02 0.  0.
         23    2    1    2    0    0 -0.95086606624E+01  0.40614954965E+02 -0.67363414638E+02  0.12075779605E+03  0.91129723362E+02 0.  0.
        -13    1    4    4    0    0 -0.45365058611E+02  0.13363971751E+02 -0.57861425235E+02  0.74729705031E+02  0.00000000000E+00 0. -1.
         13    1    4    4    0    0  0.35856397949E+02  0.27250983214E+02 -0.95019894034E+01  0.46028091017E+02  0.00000000000E+00 0.  1.
        -13    1    3    3    0    0  0.40768937751E+02 -0.50860531973E+02  0.55099269211E+02  0.85351212442E+02  0.00000000000E+00 0.  1.
         13    1    3    3    0    0 -0.16672093885E+02  0.26759120208E+02  0.32129153977E+02  0.45014350646E+02  0.00000000000E+00 0. -1.
         -1    1    1    2    0  502 -0.14588183203E+02 -0.16513543200E+02 -0.21557562276E+02  0.30825974267E+02  0.00000000000E+00 0.  1.
<scales pt_clust_5="13000.00000" pt_clust_6="13000.00000" pt_clust_7="13000.00000" pt_clust_8="13000.00000" pt_clust_9="22.03434"></scales>
<clustering>
<clus scale="   22.034">  2  9  1 -1</clus>
<clus scale="   90.691">  7  8 -1 -1</clus>
<clus scale="   91.130">  5  6 -1 -1</clus>
<clus scale="   97.060">  1  7  2 -1</clus>
<clus scale="   22.034">  2  5  1 -1</clus>
</clustering>
</event>
<event>
 9    1  0.1733143E-005  0.9929431E+02  0.7546771E-02  0.1283076E+00
          3   -1    0    0  502    0 -0.00000000000E+00  0.00000000000E+00  0.31678429132E+03  0.31678429132E+03  0.00000000000E+00 0. -1.
         21   -1    0    0  501  502  0.00000000000E+00 -0.00000000000E+00 -0.24614355679E+03  0.24614355679E+03  0.00000000000E+00 0. -1.
         23    2    1    2    0    0 -0.31651509277E+02  0.53087808298E+01  0.23378112195E+03  0.25304595334E+03  0.91370894325E+02 0.  0.
         23    2    1    2    0    0  0.34519941807E+02  0.21586402462E+02  0.36311295825E+02  0.10860459168E+03  0.93908721513E+02 0.  0.
        -11    1    4    4    0    0 -0.74155281431E+01  0.34595448775E+02  0.51205534412E+02  0.62240195115E+02  0.00000000000E+00 0. -1.
         11    1    4    4    0    0  0.41935469950E+02 -0.13009046312E+02 -0.14894238587E+02  0.46364396566E+02  0.00000000000E+00 0.  1.
        -11    1    3    3    0    0 -0.19290600600E+02  0.43597292574E+02  0.17796556440E+03  0.18424058539E+03  0.00000000000E+00 0. -1.
         11    1    3    3    0    0 -0.12360908677E+02 -0.38288511745E+02  0.55815557543E+02  0.68805367950E+02  0.00000000000E+00 0.  1.
          3    1    1    2  501    0 -0.28684325304E+01 -0.26895183292E+02 -0.19945168324E+03  0.20127730309E+03  0.00000000000E+00 0. -1.
<scales pt_clust_5="13000.00000" pt_clust_6="13000.00000" pt_clust_7="13000.00000" pt_clust_8="13000.00000" pt_clust_9="27.04771"></scales>
<clustering>
<clus scale="   27.048">  2  9  1 -1</clus>
<clus scale="   91.371">  7  8 -1 -1</clus>
<clus scale="   93.909">  5  6 -1 -1</clus>
<clus scale="   96.898">  1  7  2 -1</clus>
<clus scale="   27.048">  2  5  1 -1</clus>
</clustering>
</event>
<event>
 9    1  0.1601012E-005  0.1298052E+03  0.7546771E-02  0.1228252E+00
         -1   -1    0    0    0  501 -0.00000000000E+00  0.00000000000E+00  0.27953776341E+03  0.27953776341E+03  0.00000000000E+00 0.  1.
         21   -1    0    0  501  502  0.00000000000E+00 -0.00000000000E+00 -0.16369639021E+03  0.16369639021E+03  0.00000000000E+00 0. -1.
         23    2    1    2    0    0 -0.71839620259E+02 -0.57268226870E+02  0.21987516986E+03  0.25568063217E+03  0.92665605796E+02 0.  0.
         23    2    1    2    0    0  0.50426209261E+02  0.70386166057E+02 -0.10319393465E+03  0.16242744203E+03  0.90756106256E+02 0.  0.
        -11    1    4    4    0    0  0.68052165104E+01  0.32555285399E+02 -0.99111217461E+02  0.10454277118E+03  0.00000000000E+00 0.  1.
         11    1    4    4    0    0  0.43620992751E+02  0.37830880658E+02 -0.40827171914E+01  0.57884670852E+02  0.00000000000E+00 0. -1.
        -13    1    3    3    0    0 -0.50438360997E+02 -0.20144401841E+02  0.20213199744E+03  0.20930162344E+03  0.00000000000E+00 0.  1.
         13    1    3    3    0    0 -0.21401259261E+02 -0.37123825029E+02  0.17743172413E+02  0.46379008722E+02  0.00000000000E+00 0. -1.
         -1    1    1    2    0  502  0.21413410997E+02 -0.13117939187E+02 -0.83986200744E+00  0.25126079425E+02  0.00000000000E+00 0.  1.
<scales pt_clust_5="13000.00000" pt_clust_6="13000.00000" pt_clust_7="13000.00000" pt_clust_8="13000.00000" pt_clust_9="25.11204"></scales>
<clustering>
<clus scale="   25.112">  2  9  1 -1</clus>
<clus scale="   90.756">  5  6 -1 -1</clus>
<clus scale="   92.666">  7  8 -1 -1</clus>
<clus scale="  128.449">  2  5  1 -1</clus>
<clus scale="   25.112">  2  5  1 -1</clus>
</clustering>
</event>
<event>
 9    1  0.1601012E-005  0.8964122E+02  0.7546771E-02  0.1304729E+00
         21   -1    0    0  501  502  0.00000000000E+00  0.00000000000E+00  0.12673444676E+03  0.12673444676E+03  0.00000000000E+00 0.  1.
          4   -1    0    0  502    0 -0.00000000000E+00 -0.00000000000E+00 -0.12238302408E+03  0.12238302408E+03  0.00000000000E+00 0. -1.
         23    2    1    2    0    0  0.15046461968E+02 -0.10367110923E+02 -0.68412701913E+02  0.11094926324E+03  0.85414098505E+02 0.  0.
         23    2    1    2    0    0 -0.14666829762E+02  0.31726330578E+02  0.47836770736E+02  0.10533935818E+03  0.87099642933E+02 0.  0.
        -13    1    4    4    0    0 -0.45428464234E+02  0.40496702262E+02  0.38513208452E+02  0.72020798955E+02  0.00000000000E+00 0. -1.
         13    1    4    4    0    0  0.30761634472E+02 -0.87703716844E+01  0.93235622844E+01  0.33318559221E+02  0.00000000000E+00 0.  1.
        -13    1    3    3    0    0  0.35380238204E+02 -0.38676328525E+02 -0.38843711975E+02  0.65241502156E+02  0.00000000000E+00 0.  1.
         13    1    3    3    0    0 -0.20333776235E+02  0.28309217602E+02 -0.29568989938E+02  0.45707761082E+02  0.00000000000E+00 0. -1.
          4    1    1    2  501    0 -0.37963220610E+00 -0.21359219655E+02  0.24927353855E+02  0.32828849433E+02  0.00000000000E+00 0. -1.
<scales pt_clust_5="13000.00000" pt_clust_6="13000.00000" pt_clust_7="13000.00000" pt_clust_8="13000.00000" pt_clust_9="21.36259"></scales>
<clustering>
<clus scale="   21.363">  1  9  2 -1</clus>
<clus scale="   85.414">  7  8 -1 -1</clus>
<clus scale="   87.100">  5  6 -1 -1</clus>
<clus scale="   88.004">  2  7  1 -1</clus>
<clus scale="   21.363">  1  5  2 -1</clus>
</clustering>
</event>
<event>
 9    1  0.1601012E-005  0.1048292E+03  0.7546771E-02  0.1270994E+00
         21   -1    0    0  501  502  0.00000000000E+00  0.00000000000E+00  0.37628191896E+03  0.37628191896E+03  0.00000000000E+00 0.  1.
          2   -1    0    0  502    0 -0.00000000000E+00 -0.00000000000E+00 -0.73751888803E+02  0.73751888803E+02  0.00000000000E+00 0. -1.
         23    2    1    2    0    0 -0.48381591406E+02  0.15098233971E+02 -0.67661003249E+01  0.10492727217E+03  0.91625418286E+02 0.  0.
         23    2    1    2    0    0  0.56314210090E+02  0.12586541202E+02  0.15709656792E+03  0.19020630945E+03  0.90384717862E+02 0.  0.
        -11    1    3    3    0    0  0.18281268606E+02  0.16093414798E+02 -0.25912644302E+02  0.35562169737E+02  0.00000000000E+00 0. -1.
         11    1    3    3    0    0 -0.66662860011E+02 -0.99518082746E+00  0.19146543977E+02  0.69365102436E+02  0.00000000000E+00 0.  1.
        -13    1    4    4    0    0 -0.14822902341E+02  0.27259920769E+02  0.26658819248E+02  0.40908609826E+02  0.00000000000E+00 0. -1.
         13    1    4    4    0    0  0.71137112431E+02 -0.14673379567E+02  0.13043774868E+03  0.14929769962E+03  0.00000000000E+00 0.  1.
          2    1    1    2  501    0 -0.79326186843E+01 -0.27684775173E+02  0.15219956256E+03  0.15490022614E+03  0.00000000000E+00 0. -1.
<scales pt_clust_5="13000.00000" pt_clust_6="13000.00000" pt_clust_7="13000.00000" pt_clust_8="13000.00000" pt_clust_9="28.79884"></scales>
<clustering>
<clus scale="   28.799">  1  9  2 -1</clus>
<clus scale="   90.385">  7  8 -1 -1</clus>
<clus scale="   91.625">  5  6 -1 -1</clus>
<clus scale="  103.746">  1  7  2 -1</clus>
<clus scale="   28.799">  1  5  2 -1</clus>
</clustering>
</event>
<event>
 9    1  0.1601012E-005  0.1845774E+03  0.7546771E-02  0.1171914E+00
         21   -1    0    0  501  502  0.00000000000E+00  0.00000000000E+00  0.21693572230E+03  0.21693572230E+03  0.00000000000E+00 0.  1.
         -1   -1    0    0    0  501 -0.00000000000E+00 -0.00000000000E+00 -0.39448509711E+03  0.39448509711E+03  0.00000000000E+00 0.  1.
         23    2    1    2    0    0 -0.48958990585E+01 -0.12250104698E+03 -0.17737537295E+03  0.23356291605E+03  0.89772693437E+02 0.  0.
         23    2    1    2    0    0  0.13570754193E+03 -0.99191904346E+01 -0.71469117709E+02  0.17853455116E+03  0.90839550282E+02 0.  0.
        -11    1    4    4    0    0  0.65610391992E+02 -0.43974922371E+01 -0.84450014038E+02  0.10703208092E+03  0.00000000000E+00 0. -1.
         11    1    4    4    0    0  0.70097149939E+02 -0.55216981975E+01  0.12980896329E+02  0.71502470237E+02  0.00000000000E+00 0.  1.
        -13    1    3    3    0    0 -0.40757870477E+02 -0.29945459650E+02 -0.79067274250E+02  0.93859301173E+02  0.00000000000E+00 0. -1.
         13    1    3    3    0    0  0.35861971419E+02 -0.92555587333E+02 -0.98308098701E+02  0.13970361488E+03  0.00000000000E+00 0.  1.
         -1    1    1    2    0  502 -0.13081164287E+03  0.13242023742E+03  0.71295115850E+02  0.19932335220E+03  0.00000000000E+00 0.  1.
<scales pt_clust_5="13000.00000" pt_clust_6="13000.00000" pt_clust_7="13000.00000" pt_clust_8="13000.00000" pt_clust_9="160.67669"></scales>
<clustering>
<clus scale="   89.773">  7  8 -1 -1</clus>
<clus scale="   90.840">  5  6 -1 -1</clus>
<clus scale="  151.953">  2  7  1 -1</clus>
<clus scale="  160.677">  1  9  2 -1</clus>
<clus scale="  160.677">  1  5  2 -1</clus>
</clustering>
</event>
<event>
 9    1  0.1601012E-005  0.1065262E+03  0.7546771E-02  0.1268708E+00
          2   -1    0    0  502    0 -0.00000000000E+00  0.00000000000E+00  0.22935218636E+03  0.22935218636E+03  0.00000000000E+00 0. -1.
         21   -1    0    0  501  502  0.00000000000E+00 -0.00000000000E+00 -0.68731101870E+02  0.68731101870E+02  0.00000000000E+00 0.  1.
         23    2    1    2    0    0 -0.26921890733E+02  0.46718404882E+02  0.11425014551E+03  0.15458677602E+03  0.89087473959E+02 0.  0.
         23    2    1    2    0    0  0.44347851209E+02 -0.29547953022E+02  0.51128578674E+02  0.11857415977E+03  0.92767916723E+02 0.  0.
        -11    1    4    4    0    0  0.56675716177E+02 -0.54531792276E+02  0.42556405732E+02  0.89425392600E+02  0.00000000000E+00 0.  1.
         11    1    4    4    0    0 -0.12327864968E+02  0.24983839254E+02  0.85721729422E+01  0.29148767169E+02  0.00000000000E+00 0. -1.
        -13    1    3    3    0    0 -0.58472753170E+02  0.31711656788E+02  0.57407199195E+02  0.87865115712E+02  0.00000000000E+00 0. -1.
         13    1    3    3    0    0  0.31550862438E+02  0.15006748094E+02  0.56842946310E+02  0.66721660307E+02  0.00000000000E+00 0.  1.
          2    1    1    2  501    0 -0.17425960476E+02 -0.17170451860E+02 -0.47576396928E+01  0.24922352438E+02  0.00000000000E+00 0. -1.
<scales pt_clust_5="13000.00000" pt_clust_6="13000.00000" pt_clust_7="13000.00000" pt_clust_8="13000.00000" pt_clust_9="24.46402"></scales>
<clustering>
<clus scale="   24.464">  2  9  1 -1</clus>
<clus scale="   89.087">  7  8 -1 -1</clus>
<clus scale="   92.768">  5  6 -1 -1</clus>
<clus scale="  103.337">  1  7  2 -1</clus>
<clus scale="   24.464">  2  5  1 -1</clus>
</clustering>
</event>
<event>
 9    1  0.1601012E-005  0.9373105E+02  0.7546771E-02  0.1295738E+00
         -3   -1    0    0    0  501 -0.00000000000E+00  0.00000000000E+00  0.50588535192E+02  0.50588535192E+02  0.00000000000E+00 0.  1.
         21   -1    0    0  501  502  0.00000000000E+00 -0.00000000000E+00 -0.29395728949E+03  0.29395728949E+03  0.00000000000E+00 0.  1.
         23    2    1    2    0    0 -0.21927334060E+01 -0.12988394150E+02 -0.55555786166E+02  0.10588014464E+03  0.89166435334E+02 0.  0.
         23    2    1    2    0    0 -0.30888296701E+02  0.11675126011E+02 -0.81561054922E+02  0.12737530181E+03  0.92097048761E+02 0.  0.
        -13    1    4    4    0    0 -0.24687801756E+02 -0.39298879574E+02 -0.36180841145E+02  0.58846773550E+02  0.00000000000E+00 0.  1.
         13    1    4    4    0    0 -0.62004949457E+01  0.50974005585E+02 -0.45380213777E+02  0.68528528259E+02  0.00000000000E+00 0. -1.
        -13    1    3    3    0    0  0.20060967940E+02 -0.42074832660E+02 -0.50808017967E+02  0.68950624854E+02  0.00000000000E+00 0.  1.
         13    1    3    3    0    0 -0.22253701346E+02  0.29086438509E+02 -0.47477681990E+01  0.36929519786E+02  0.00000000000E+00 0. -1.
         -3    1    1    2    0  502  0.33081030107E+02  0.13132681393E+01 -0.10625191321E+03  0.11129037823E+03  0.00000000000E+00 0.  1.
<scales pt_clust_5="13000.00000" pt_clust_6="13000.00000" pt_clust_7="13000.00000" pt_clust_8="13000.00000" pt_clust_9="33.10709"></scales>
<clustering>
<clus scale="   33.107">  2  9  1 -1</clus>
<clus scale="   89.166">  7  8 -1 -1</clus>
<clus scale="   90.853">  1  7  2 -1</clus>
<clus scale="   92.097">  5  6 -1 -1</clus>
<clus scale="   33.107">  2  5  1 -1</clus>
</clustering>
</event>
<event>
 9    1  0.1601012E-005  0.1851613E+03  0.7546771E-02  0.1189682E+00
         21   -1    0    0  501  502  0.00000000000E+00  0.00000000000E+00  0.32680645572E+03  0.32680645572E+03  0.00000000000E+00 0. -1.
          3   -1    0    0  502    0 -0.00000000000E+00 -0.00000000000E+00 -0.29920802700E+03  0.29920802700E+03  0.00000000000E+00 0. -1.
         23    2    1    2    0    0 -0.11314921888E+02  0.46229832095E+02  0.43603085313E+02  0.11001807042E+03  0.89092771522E+02 0.  0.
         23    2    1    2    0    0 -0.15068312647E+03 -0.28968835665E+02 -0.20144570579E+03  0.26915700622E+03  0.91216903999E+02 0.  0.
        -11    1    3    3    0    0  0.19285884580E+01  0.72003023637E+02  0.30702458388E+02  0.78299398576E+02  0.00000000000E+00 0.  1.
         11    1    3    3    0    0 -0.13243510346E+02 -0.25773191542E+02  0.12900626925E+02  0.31718671845E+02  0.00000000000E+00 0. -1.
        -13    1    4    4    0    0 -0.52769268493E+02  0.14091937317E+02 -0.19303463958E+02  0.57929285473E+02  0.00000000000E+00 0.  1.
         13    1    4    4    0    0 -0.97913857976E+02 -0.43060772983E+02 -0.18214224183E+03  0.21122772075E+03  0.00000000000E+00 0. -1.
          3    1    1    2  501    0  0.16199804836E+03 -0.17260996430E+02  0.18544104920E+03  0.24683940609E+03  0.00000000000E+00 0. -1.
<scales pt_clust_5="13000.00000" pt_clust_6="13000.00000" pt_clust_7="13000.00000" pt_clust_8="13000.00000" pt_clust_9="161.13411"></scales>
<clustering>
<clus scale="   89.093">  5  6 -1 -1</clus>
<clus scale="   91.217">  7  8 -1 -1</clus>
<clus scale="  101.009">  2  5  1 -1</clus>
<clus scale="  161.134">  1  9  2 -1</clus>
<clus scale="  161.134">  1  5  2 -1</clus>
</clustering>
</event>
<event>
 9    1  0.2127059E-005  0.9949844E+02  0.7546771E-02  0.1282666E+00
          1   -1    0    0  502    0 -0.00000000000E+00  0.00000000000E+00  0.42788564426E+03  0.42788564426E+03  0.00000000000E+00 0. -1.
         21   -1    0    0  501  502  0.00000000000E+00 -0.00000000000E+00 -0.14820292650E+03  0.14820292650E+03  0.00000000000E+00 0. -1.
         23    2    1    2    0    0 -0.49435307724E+02  0.10506328518E+02  0.30310584692E+03  0.32141059176E+03  0.94219857061E+02 0.  0.
         23    2    1    2    0    0 -0.15846887639E+02 -0.16105180408E+02  0.85643075133E+02  0.12744374975E+03  0.91633358280E+02 0.  0.
        -11    1    4    4    0    0 -0.10923234354E+01  0.36590466079E+02  0.19100810111E+02  0.41290390229E+02  0.00000000000E+00 0.  1.
         11    1    4    4    0    0 -0.14754564203E+02 -0.52695646486E+02  0.66542265021E+02  0.86153359526E+02  0.00000000000E+00 0. -1.
        -13    1    3    3    0    0 -0.69352528109E+02 -0.94450322699E+01  0.26451917303E+03  0.27362268672E+03  0.00000000000E+00 0. -1.
         13    1    3    3    0    0  0.19917220384E+02  0.19951360788E+02  0.38586673894E+02  0.47787905032E+02  0.00000000000E+00 0.  1.
          1    1    1    2  501    0  0.65282195363E+02  0.55988518895E+01 -0.10906620429E+03  0.12723422925E+03  0.00000000000E+00 0. -1.
<scales pt_clust_5="13000.00000" pt_clust_6="13000.00000" pt_clust_7="13000.00000" pt_clust_8="13000.00000" pt_clust_9="65.52185"></scales>
<clustering>
<clus scale="   65.522">  2  9  1 -1</clus>
<clus scale="   91.633">  5  6 -1 -1</clus>
<clus scale="   94.220">  7  8 -1 -1</clus>
<clus scale="   97.053">  2  5  1 -1</clus>
<clus scale="   65.522">  2  5  1 -1</clus>
</clustering>
</event>
<event>
 9    1  0.1601012E-005  0.9335691E+02  0.7546771E-02  0.1297063E+00
         21   -1    0    0  501  502  0.00000000000E+00  0.00000000000E+00  0.26358413272E+03  0.26358413272E+03  0.00000000000E+00 0. -1.
          1   -1    0    0  502    0 -0.00000000000E+00 -0.00000000000E+00 -0.45629971867E+02  0.45629971867E+02  0.00000000000E+00 0. -1.
         23    2    1    2    0    0  0.10880904834E+02  0.86076764350E+01  0.46785928700E+02  0.10102421516E+03  0.88456106291E+02 0.  0.
         23    2    1    2    0    0  0.42026754000E+01 -0.23907803790E+02  0.12420911354E+03  0.15654913895E+03  0.92143819411E+02 0.  0.
        -11    1    3    3    0    0  0.43721430340E+02 -0.17974613515E+02  0.23788316259E+02  0.52920073625E+02  0.00000000000E+00 0.  1.
         11    1    3    3    0    0 -0.32840525507E+02  0.26582289950E+02  0.22997612442E+02  0.48104141533E+02  0.00000000000E+00 0. -1.
        -13    1    4    4    0    0  0.21583037000E+02 -0.81870248623E+01 -0.63197654885E+01  0.23933121361E+02  0.00000000000E+00 0. -1.
         13    1    4    4    0    0 -0.17380361600E+02 -0.15720778928E+02  0.13052887903E+03  0.13261601759E+03  0.00000000000E+00 0.  1.
          1    1    1    2  501    0 -0.15083580234E+02  0.15300127355E+02  0.46959118607E+02  0.51640750480E+02  0.00000000000E+00 0. -1.
<scales pt_clust_5="13000.00000" pt_clust_6="13000.00000" pt_clust_7="13000.00000" pt_clust_8="13000.00000" pt_clust_9="21.48507"></scales>
<clustering>
<clus scale="   21.485">  1  9  2 -1</clus>
<clus scale="   88.456">  5  6 -1 -1</clus>
<clus scale="   89.719">  2  5  1 -1</clus>
<clus scale="   92.144">  7  8 -1 -1</clus>
<clus scale="   21.485">  1  5  2 -1</clus>
</clustering>
</event>
<event>
 9    1  0.1601012E-005  0.8985791E+02  0.7546771E-02  0.1309071E+00
          1   -1    0    0  502    0 -0.00000000000E+00  0.00000000000E+00  0.15417500760E+03  0.15417500760E+03  0.00000000000E+00 0. -1.
         21   -1    0    0  501  502  0.00000000000E+00 -0.00000000000E+00 -0.61890628696E+03  0.61890628696E+03  0.00000000000E+00 0. -1.
         23    2    1    2    0    0  0.76062482813E+01  0.43397427223E+01  0.12545372356E+03  0.14934374749E+03  0.80549548595E+02 0.  0.
         23    2    1    2    0    0  0.59861951588E+02  0.24178504991E+02 -0.21803668904E+03  0.24444924517E+03  0.89707203407E+02 0.  0.
        -11    1    4    4    0    0  0.24130666822E+00 -0.26494099580E+02 -0.26167296439E+02  0.37238729092E+02  0.00000000000E+00 0.  1.
         11    1    4    4    0    0  0.59620644919E+02  0.50672604571E+02 -0.19186939260E+03  0.20721051608E+03  0.00000000000E+00 0. -1.
        -13    1    3    3    0    0  0.29244202634E+02 -0.55767096514E+01  0.12164968248E+03  0.12523964359E+03  0.00000000000E+00 0. -1.
         13    1    3    3    0    0 -0.21637954353E+02  0.99164523737E+01  0.38040410774E+01  0.24104103899E+02  0.00000000000E+00 0.  1.
          1    1    1    2  501    0 -0.67468199869E+02 -0.28518247713E+02 -0.37214831387E+03  0.37928830191E+03  0.00000000000E+00 0. -1.
<scales pt_clust_5="13000.00000" pt_clust_6="13000.00000" pt_clust_7="13000.00000" pt_clust_8="13000.00000" pt_clust_9="73.24786"></scales>
<clustering>
<clus scale="   73.248">  2  9  1 -1</clus>
<clus scale="   80.550">  7  8 -1 -1</clus>
<clus scale="   80.717">  1  7  2 -1</clus>
<clus scale="   89.707">  5  6 -1 -1</clus>
<clus scale="   73.248">  2  5  1 -1</clus>
</clustering>
</event>
<event>
 9    1  0.1601012E-005  0.9495753E+02  0.7546771E-02  0.1291872E+00
         21   -1    0    0  501  502  0.00000000000E+00  0.00000000000E+00  0.55987048702E+02  0.55987048702E+02  0.00000000000E+00 0. -1.
         -2   -1    0    0    0  501 -0.00000000000E+00 -0.00000000000E+00 -0.48414452177E+03  0.48414452177E+03  0.00000000000E+00 0.  1.
         23    2    1    2    0    0  0.16047318503E+02  0.19204220183E+02 -0.36194108389E+03  0.37420791491E+03  0.91672770576E+02 0.  0.
         23    2    1    2    0    0  0.43263999437E+01 -0.99092247090E+01 -0.92466762745E+02  0.13141905504E+03  0.92757508295E+02 0.  0.
        -11    1    3    3    0    0 -0.29758642585E+02  0.35571259076E+02 -0.17430545702E+03  0.18036985232E+03  0.00000000000E+00 0.  1.
         11    1    3    3    0    0  0.45805961088E+02 -0.16367038893E+02 -0.18763562688E+03  0.19383806258E+03  0.00000000000E+00 0. -1.
        -13    1    4    4    0    0  0.37261256619E+02 -0.32045461135E+01 -0.50182930944E+01  0.37733985029E+02  0.00000000000E+00 0. -1.
         13    1    4    4    0    0 -0.32934856675E+02 -0.67046785956E+01 -0.87448469650E+02  0.93685070014E+02  0.00000000000E+00 0.  1.
         -2    1    1    2    0  502 -0.20373718447E+02 -0.92949954740E+01  0.26250373573E+02  0.34504600519E+02  0.00000000000E+00 0.  1.
<scales pt_clust_5="13000.00000" pt_clust_6="13000.00000" pt_clust_7="13000.00000" pt_clust_8="13000.00000" pt_clust_9="22.39387"></scales>
<clustering>
<clus scale="   22.394">  1  9  2 -1</clus>
<clus scale="   91.673">  5  6 -1 -1</clus>
<clus scale="   92.758">  7  8 -1 -1</clus>
<clus scale="   93.898">  2  5  1 -1</clus>
<clus scale="   22.394">  1  5  2 -1</clus>
</clustering>
</event>
<event>
 9    1  0.1601012E-005  0.9709629E+02  0.7546771E-02  0.1287952E+00
          2   -1    0    0  502    0 -0.00000000000E+00  0.00000000000E+00  0.22243740593E+03  0.22243740593E+03  0.00000000000E+00 0. -1.
         21   -1    0    0  501  502  0.00000000000E+00 -0.00000000000E+00 -0.10487207854E+03  0.10487207854E+03  0.00000000000E+00 0.  1.
         23    2    1    2    0    0 -0.18009788670E+02  0.41699392419E+01  0.12788759782E+03  0.15884833034E+03  0.92389466356E+02 0.  0.
         23    2    1    2    0    0  0.62074296424E+02 -0.39246683680E+01  0.25026049367E+02  0.11197005117E+03  0.89679250190E+02 0.  0.
        -11    1    4    4    0    0  0.10277095552E+02 -0.29514890310E+02  0.41445499846E+02  0.51908350971E+02  0.00000000000E+00 0. -1.
         11    1    4    4    0    0  0.51797200871E+02  0.25590221942E+02 -0.16419450479E+02  0.60061700202E+02  0.00000000000E+00 0.  1.
        -11    1    3    3    0    0 -0.33908449759E+02 -0.34610822080E+02  0.45769571569E+02  0.66652424200E+02  0.00000000000E+00 0. -1.
         11    1    3    3    0    0  0.15898661090E+02  0.38780761322E+02  0.82118026249E+02  0.92195906135E+02  0.00000000000E+00 0.  1.
          2    1    1    2  501    0 -0.44064507754E+02 -0.24527087386E+00 -0.35348319793E+02  0.56491102959E+02  0.00000000000E+00 0. -1.
<scales pt_clust_5="13000.00000" pt_clust_6="13000.00000" pt_clust_7="13000.00000" pt_clust_8="13000.00000" pt_clust_9="44.06519"></scales>
<clustering>
<clus scale="   44.065">  2  9  1 -1</clus>
<clus scale="   89.679">  5  6 -1 -1</clus>
<clus scale="   92.389">  7  8 -1 -1</clus>
<clus scale="   94.521">  2  5  1 -1</clus>
<clus scale="   44.065">  2  5  1 -1</clus>
</clustering>
</event>
<event>
 9    1  0.1601012E-005  0.9587208E+02  0.7546771E-02  0.1289940E+00
         -1   -1    0    0    0  501 -0.00000000000E+00  0.00000000000E+00  0.12286153904E+03  0.12286153904E+03  0.00000000000E+00 0.  1.
         21   -1    0    0  501  502  0.00000000000E+00 -0.00000000000E+00 -0.22024548098E+03  0.22024548098E+03  0.00000000000E+00 0.  1.
         23    2    1    2    0    0 -0.28122898829E+02 -0.14915671487E+02  0.72757545743E+02  0.12189642222E+03  0.92475416150E+02 0.  0.
         23    2    1    2    0    0  0.45144274142E+01 -0.65223869574E+01 -0.67415988001E+02  0.11364908722E+03  0.91149755905E+02 0.  0.
        -11    1    4    4    0    0 -0.24526140881E+02  0.27686943148E+02 -0.56394115899E+02  0.67441787605E+02  0.00000000000E+00 0. -1.
         11    1    4    4    0    0  0.29040568296E+02 -0.34209330105E+02 -0.11021872102E+02  0.46207299616E+02  0.00000000000E+00 0.  1.
        -11    1    3    3    0    0 -0.94711819629E+01 -0.23882836240E+02 -0.16325959448E+02  0.30440599641E+02  0.00000000000E+00 0. -1.
         11    1    3    3    0    0 -0.18651716866E+02  0.89671647528E+01  0.89083505191E+02  0.91455822575E+02  0.00000000000E+00 0.  1.
         -1    1    1    2    0  502  0.23608471415E+02  0.21438058444E+02 -0.10272549968E+03  0.10756151058E+03  0.00000000000E+00 0.  1.
<scales pt_clust_5="13000.00000" pt_clust_6="13000.00000" pt_clust_7="13000.00000" pt_clust_8="13000.00000" pt_clust_9="31.88966"></scales>
<clustering>
<clus scale="   31.890">  2  9  1 -1</clus>
<clus scale="   91.150">  5  6 -1 -1</clus>
<clus scale="   92.475">  7  8 -1 -1</clus>
<clus scale="   94.594">  2  5  1 -1</clus>
<clus scale="   31.890">  2  5  1 -1</clus>
</clustering>
</event>
<event>
 9    1  0.1601012E-005  0.1809966E+03  0.7546771E-02  0.1166874E+00
          1   -1    0    0  502    0 -0.00000000000E+00  0.00000000000E+00  0.49716109133E+03  0.49716109133E+03  0.00000000000E+00 0. -1.
         21   -1    0    0  501  502  0.00000000000E+00 -0.00000000000E+00 -0.30482503387E+03  0.30482503387E+03  0.00000000000E+00 0. -1.
         23    2    1    2    0    0  0.57871197085E+02 -0.14852166076E+03  0.30514811148E+03  0.35653170711E+03  0.92691580333E+02 0.  0.
         23    2    1    2    0    0 -0.98845605831E+02  0.11734349748E+03  0.11436420036E+03  0.21251659250E+03  0.92434742220E+02 0.  0.
        -13    1    3    3    0    0  0.77032081924E+02 -0.13305263023E+03  0.28817967024E+03  0.32662588139E+03  0.00000000000E+00 0.  1.
         13    1    3    3    0    0 -0.19160884839E+02 -0.15469030539E+02  0.16968441243E+02  0.29905825718E+02  0.00000000000E+00 0. -1.
        -13    1    4    4    0    0 -0.27780394558E+02  0.11836811969E+02  0.72597204920E+02  0.78627060237E+02  0.00000000000E+00 0. -1.
         13    1    4    4    0    0 -0.71065211273E+02  0.10550668551E+03  0.41766995444E+02  0.13388953226E+03  0.00000000000E+00 0.  1.
          1    1    1    2  501    0  0.40974408747E+02  0.31178163286E+02 -0.22717625438E+03  0.23293782560E+03  0.00000000000E+00 0. -1.
<scales pt_clust_5="13000.00000" pt_clust_6="13000.00000" pt_clust_7="13000.00000" pt_clust_8="13000.00000" pt_clust_9="51.48767"></scales>
<clustering>
<clus scale="   51.488">  2  9  1 -1</clus>
<clus scale="   92.435">  7  8 -1 -1</clus>
<clus scale="   92.692">  5  6 -1 -1</clus>
<clus scale="  180.865">  2  7  1 -1</clus>
<clus scale="   51.488">  2  5  1 -1</clus>
</clustering>
</event>
<event>
 9    1  0.1601012E-005  0.9889632E+02  0.7546771E-02  0.1286000E+00
          2   -1    0    0  502    0 -0.00000000000E+00  0.00000000000E+00  0.52652200612E+03  0.52652200612E+03  0.00000000000E+00 0. -1.
         21   -1    0    0  501  502  0.00000000000E+00 -0.00000000000E+00 -0.28968022569E+02  0.28968022569E+02  0.00000000000E+00 0.  1.
         23    2    1    2    0    0  0.96272079818E+01 -0.15314220744E+02  0.34355771086E+03  0.35603590814E+03  0.91664926261E+02 0.  0.
         23    2    1    2    0    0 -0.15254325425E+02 -0.61852127784E+01  0.14452183051E+03  0.17529516471E+03  0.97830894781E+02 0.  0.
        -11    1    3    3    0    0 -0.27641514326E+02 -0.37417481003E+02  0.12862599630E+03  0.13677999899E+03  0.00000000000E+00 0.  1.
         11    1    3    3    0    0  0.37268722308E+02  0.22103260259E+02  0.21493171456E+03  0.21925590916E+03  0.00000000000E+00 0. -1.
        -13    1    4    4    0    0  0.19866347859E+02 -0.18675118101E+02  0.13374088869E+03  0.13649196724E+03  0.00000000000E+00 0. -1.
         13    1    4    4    0    0 -0.35120673284E+02  0.12489905323E+02  0.10780941819E+02  0.38803197464E+02  0.00000000000E+00 0.  1.
          2    1    1    2  501    0  0.56271174437E+01  0.21499433523E+02  0.94744421780E+01  0.24158955836E+02  0.00000000000E+00 0. -1.
<scales pt_clust_5="13000.00000" pt_clust_6="13000.00000" pt_clust_7="13000.00000" pt_clust_8="13000.00000" pt_clust_9="22.22364"></scales>
<clustering>
<clus scale="   22.224">  2  9  1 -1</clus>
<clus scale="   91.665">  5  6 -1 -1</clus>
<clus scale="   92.801">  1  5  2 -1</clus>
<clus scale="   97.831">  7  8 -1 -1</clus>
<clus scale="   22.224">  2  5  1 -1</clus>
</clustering>
</event>
<event>
 9    1  0.1601012E-005  0.9287777E+02  0.7546771E-02  0.1297627E+00
         21   -1    0    0  501  502  0.00000000000E+00  0.00000000000E+00  0.22749591075E+03  0.22749591075E+03  0.00000000000E+00 0.  1.
         -4   -1    0    0    0  501 -0.00000000000E+00 -0.00000000000E+00 -0.87637896554E+02  0.87637896554E+02  0.00000000000E+00 0.  1.
         23    2    1    2    0    0 -0.67242426108E+01  0.14265152644E+02 -0.27212538521E+02  0.94249457694E+02  0.88846654434E+02 0.  0.
         23    2    1    2    0    0 -0.36885426400E+02 -0.19109346122E+02  0.11403670726E+03  0.15205224804E+03  0.91595926455E+02 0.  0.
        -11    1    4    4    0    0 -0.65600661043E+02 -0.16990039392E+02  0.58618638693E+02  0.89600518805E+02  0.00000000000E+00 0.  1.
         11    1    4    4    0    0  0.28715234643E+02 -0.21193067302E+01  0.55418068565E+02  0.62451729240E+02  0.00000000000E+00 0. -1.
        -13    1    3    3    0    0  0.29395475586E+02 -0.23449320384E+02 -0.15850271190E+02  0.40806809581E+02  0.00000000000E+00 0. -1.
         13    1    3    3    0    0 -0.36119718197E+02  0.37714473028E+02 -0.11362267331E+02  0.53442648113E+02  0.00000000000E+00 0.  1.
         -4    1    1    2    0  502  0.43609669011E+02  0.48441934785E+01  0.53033845458E+02  0.68832101565E+02  0.00000000000E+00 0.  1.
<scales pt_clust_5="13000.00000" pt_clust_6="13000.00000" pt_clust_7="13000.00000" pt_clust_8="13000.00000" pt_clust_9="43.87789"></scales>
<clustering>
<clus scale="   43.878">  1  9  2 -1</clus>
<clus scale="   88.847">  7  8 -1 -1</clus>
<clus scale="   90.168">  2  7  1 -1</clus>
<clus scale="   91.596">  5  6 -1 -1</clus>
<clus scale="   43.878">  1  5  2 -1</clus>
</clustering>
</event>
<event>
 9    1  0.1601012E-005  0.1086510E+03  0.7546771E-02  0.1268261E+00
         21   -1    0    0  501  502  0.00000000000E+00  0.00000000000E+00  0.70938175818E+03  0.70938175818E+03  0.00000000000E+00 0. -1.
         -2   -1    0    0    0  501 -0.00000000000E+00 -0.00000000000E+00 -0.59883471120E+02  0.59883471120E+02  0.00000000000E+00 0.  1.
         23    2    1    2    0    0 -0.13804521114E+02  0.49006146696E+02  0.50437915219E+02  0.11580565031E+03  0.90965917430E+02 0.  0.
         23    2    1    2    0    0  0.76285628127E+02 -0.94996835899E+02  0.53056598419E+03  0.54996796887E+03  0.78234310322E+02 0.  0.
        -11    1    4    4    0    0  0.11703561940E+02 -0.64594204747E+02  0.16656764206E+03  0.17903676726E+03  0.00000000000E+00 0.  1.
         11    1    4    4    0    0  0.64582066187E+02 -0.30402631152E+02  0.36399834213E+03  0.37093120161E+03  0.00000000000E+00 0. -1.
        -11    1    3    3    0    0  0.71935244302E+01  0.63687878578E+02  0.60634594301E+02  0.88229511489E+02  0.00000000000E+00 0.  1.
         11    1    3    3    0    0 -0.20998045544E+02 -0.14681731882E+02 -0.10196679082E+02  0.27576138817E+02  0.00000000000E+00 0. -1.
         -2    1    1    2    0  502 -0.62481107013E+02  0.45990689203E+02  0.68494387646E+02  0.10349161012E+03  0.00000000000E+00 0.  1.
<scales pt_clust_5="13000.00000" pt_clust_6="13000.00000" pt_clust_7="13000.00000" pt_clust_8="13000.00000" pt_clust_9="77.58246"></scales>
<clustering>
<clus scale="   77.582">  1  9  2 -1</clus>
<clus scale="   78.234">  5  6 -1 -1</clus>
<clus scale="   90.966">  7  8 -1 -1</clus>
<clus scale="   98.239">  1  5  2 -1</clus>
<clus scale="   77.582">  1  5  2 -1</clus>
</clustering>
</event>
<event>
 9    1  0.1601012E-005  0.9593779E+02  0.7546771E-02  0.1289482E+00
         21   -1    0    0  501  502  0.00000000000E+00  0.00000000000E+00  0.58965481615E+02  0.58965481615E+02  0.00000000000E+00 0.  1.
          1   -1    0    0  502    0 -0.00000000000E+00 -0.00000000000E+00 -0.21063132326E+03  0.21063132326E+03  0.00000000000E+00 0. -1.
         23    2    1    2    0    0 -0.36325091166E+02  0.13382489656E+02 -0.87184147873E+02  0.13137938274E+03  0.90337496599E+02 0.  0.
         23    2    1    2    0    0  0.19206202105E+02  0.40495973948E+01 -0.34107973061E+02  0.99236697005E+02  0.91100443291E+02 0.  0.
        -11    1    3    3    0    0  0.20024103138E+02  0.25399556596E+02 -0.77661527824E+01  0.33262821751E+02  0.00000000000E+00 0.  1.
         11    1    3    3    0    0 -0.56349194304E+02 -0.12017066940E+02 -0.79417995091E+02  0.98116560992E+02  0.00000000000E+00 0. -1.
        -13    1    4    4    0    0 -0.33999482267E+02 -0.32975217906E+01  0.24788589146E+01  0.34248842111E+02  0.00000000000E+00 0. -1.
         13    1    4    4    0    0  0.53205684372E+02  0.73471191854E+01 -0.36586831976E+02  0.64987854895E+02  0.00000000000E+00 0.  1.
          1    1    1    2  501    0  0.17118889061E+02 -0.17432087051E+02 -0.30373720712E+02  0.38980725128E+02  0.00000000000E+00 0. -1.
<scales pt_clust_5="13000.00000" pt_clust_6="13000.00000" pt_clust_7="13000.00000" pt_clust_8="13000.00000" pt_clust_9="24.43225"></scales>
<clustering>
<clus scale="   24.432">  1  9  2 -1</clus>
<clus scale="   90.337">  5  6 -1 -1</clus>
<clus scale="   91.100">  7  8 -1 -1</clus>
<clus scale="   95.214">  2  5  1 -1</clus>
<clus scale="   24.432">  1  5  2 -1</clus>
</clustering>
</event>
<event>
 9    1  0.1601012E-005  0.1020585E+03  0.7546771E-02  0.1277146E+00
          1   -1    0    0  502    0 -0.00000000000E+00  0.00000000000E+00  0.43666643021E+03  0.43666643021E+03  0.00000000000E+00 0. -1.
         21   -1    0    0  501  502  0.00000000000E+00 -0.00000000000E+00 -0.41492805687E+02  0.41492805687E+02  0.00000000000E+00 0.  1.
         23    2    1    2    0    0  0.25159879932E+02 -0.27535249063E+02  0.30545868161E+03  0.32148955919E+03  0.93055472699E+02 0.  0.
         23    2    1    2    0    0 -0.35374484121E+02  0.45400368024E+02  0.79953084510E+02  0.13389261602E+03  0.90676288838E+02 0.  0.
        -11    1    3    3    0    0  0.20395224027E+02  0.27909776167E+02  0.55294310998E+02  0.65210287513E+02  0.00000000000E+00 0.  1.
         11    1    3    3    0    0  0.47646559056E+01 -0.55445025229E+02  0.25016437061E+03  0.25627927168E+03  0.00000000000E+00 0. -1.
        -11    1    4    4    0    0  0.62296551747E+01 -0.22212548534E+02  0.37072249430E+02  0.43664145403E+02  0.00000000000E+00 0. -1.
         11    1    4    4    0    0 -0.41604139296E+02  0.67612916558E+02  0.42880835080E+02  0.90228470613E+02  0.00000000000E+00 0.  1.
          1    1    1    2  501    0  0.10214604189E+02 -0.17865118962E+02  0.97618584074E+01  0.22777060693E+02  0.00000000000E+00 0. -1.
<scales pt_clust_5="13000.00000" pt_clust_6="13000.00000" pt_clust_7="13000.00000" pt_clust_8="13000.00000" pt_clust_9="20.57913"></scales>
<clustering>
<clus scale="   20.579">  2  9  1 -1</clus>
<clus scale="   90.676">  7  8 -1 -1</clus>
<clus scale="   93.055">  5  6 -1 -1</clus>
<clus scale="   99.894">  2  7  1 -1</clus>
<clus scale="   20.579">  2  5  1 -1</clus>
</clustering>
</event>
<event>
 9    1  0.1601012E-005  0.1372219E+03  0.7546771E-02  0.1219266E+00
          2   -1    0    0  502    0 -0.00000000000E+00  0.00000000000E+00  0.10672186137E+04  0.10672186137E+04  0.00000000000E+00 0. -1.
         21   -1    0    0  501  502  0.00000000000E+00 -0.00000000000E+00 -0.26971867551E+02  0.26971867551E+02  0.00000000000E+00 0.  1.
         23    2    1    2    0    0  0.75159377532E+02  0.68626460536E+02  0.67114263388E+03  0.68480317944E+03  0.90357271129E+02 0.  0.
         23    2    1    2    0    0 -0.74587038810E+02 -0.31420426793E+02  0.20888414277E+03  0.24490309240E+03  0.98967014644E+02 0.  0.
        -11    1    4    4    0    0 -0.42781369999E+02 -0.19107458644E+01  0.19455337250E+03  0.19921072089E+03  0.00000000000E+00 0. -1.
         11    1    4    4    0    0 -0.31805668811E+02 -0.29509680928E+02  0.14330770268E+02  0.45692371502E+02  0.00000000000E+00 0.  1.
        -13    1    3    3    0    0  0.13421015193E+01 -0.20150070868E+02  0.12127859471E+03  0.12294846127E+03  0.00000000000E+00 0.  1.
         13    1    3    3    0    0  0.73817276012E+02  0.88776531404E+02  0.54986403917E+03  0.56185471817E+03  0.00000000000E+00 0. -1.
          2    1    1    2  501    0 -0.57233872156E+00 -0.37206033743E+02  0.16021996948E+03  0.16448420939E+03  0.00000000000E+00 0. -1.
<scales pt_clust_5="13000.00000" pt_clust_6="13000.00000" pt_clust_7="13000.00000" pt_clust_8="13000.00000" pt_clust_9="37.21045"></scales>
<clustering>
<clus scale="   37.210">  2  9  1 -1</clus>
<clus scale="   90.357">  7  8 -1 -1</clus>
<clus scale="   98.967">  5  6 -1 -1</clus>
<clus scale="  131.148">  1  7  2 -1</clus>
<clus scale="   37.210">  2  5  1 -1</clus>
</clustering>
</event>
<event>
 9    1  0.1601012E-005  0.1175787E+03  0.7546771E-02  0.1251120E+00
          2   -1    0    0  502    0 -0.00000000000E+00  0.00000000000E+00  0.15927923030E+03  0.15927923030E+03  0.00000000000E+00 0. -1.
         21   -1    0    0  501  502  0.00000000000E+00 -0.00000000000E+00 -0.19101579565E+03  0.19101579565E+03  0.00000000000E+00 0. -1.
         23    2    1    2    0    0  0.46973201001E+02 -0.44479898363E+02  0.82862959426E+02  0.14578261098E+03  0.10100176557E+03 0.  0.
         23    2    1    2    0    0 -0.55512284232E+02  0.11313834747E+02 -0.26388024218E+02  0.10988592529E+03  0.90382366630E+02 0.  0.
        -13    1    3    3    0    0  0.50896365262E+02 -0.32822974125E+01 -0.23455908385E+01  0.51056001308E+02  0.00000000000E+00 0.  1.
         13    1    3    3    0    0 -0.39231642613E+01 -0.41197600951E+02  0.85208550265E+02  0.94726609673E+02  0.00000000000E+00 0. -1.
        -13    1    4    4    0    0 -0.19747086336E+01  0.29836430275E+02 -0.41596599269E+02  0.51228791871E+02  0.00000000000E+00 0.  1.
         13    1    4    4    0    0 -0.53537575599E+02 -0.18522595528E+02  0.15208575051E+02  0.58657133421E+02  0.00000000000E+00 0. -1.
          2    1    1    2  501    0  0.85390832313E+01  0.33166063616E+02 -0.88211500556E+02  0.94626489676E+02  0.00000000000E+00 0. -1.
<scales pt_clust_5="13000.00000" pt_clust_6="13000.00000" pt_clust_7="13000.00000" pt_clust_8="13000.00000" pt_clust_9="34.24768"></scales>
<clustering>
<clus scale="   34.248">  2  9  1 -1</clus>
<clus scale="   90.382">  7  8 -1 -1</clus>
<clus scale="  101.002">  5  6 -1 -1</clus>
<clus scale="  108.593">  2  7  1 -1</clus>
<clus scale="   34.248">  2  5  1 -1</clus>
</clustering>
</event>
<event>
 9    1  0.1601012E-005  0.1047339E+03  0.7546771E-02  0.1273606E+00
         21   -1    0    0  501  502  0.00000000000E+00  0.00000000000E+00  0.37324650521E+03  0.37324650521E+03  0.00000000000E+00 0. -1.
          1   -1    0    0  502    0 -0.00000000000E+00 -0.00000000000E+00 -0.13375812354E+03  0.13375812354E+03  0.00000000000E+00 0. -1.
         23    2    1    2    0    0 -0.57551610205E+00  0.61381443407E+02 -0.78940505901E+02  0.12982907512E+03  0.82800799882E+02 0.  0.
         23    2    1    2    0    0 -0.62220054315E+02  0.63684112027E+01  0.18509558412E+03  0.21496859856E+03  0.89661760449E+02 0.  0.
        -11    1    4    4    0    0 -0.26275346169E+02  0.20177998339E+01 -0.12498845100E-01  0.26352713118E+02  0.00000000000E+00 0.  1.
         11    1    4    4    0    0 -0.35944708147E+02  0.43506113689E+01  0.18510808296E+03  0.18861588544E+03  0.00000000000E+00 0. -1.
        -11    1    3    3    0    0 -0.47411485043E+01  0.81810229418E+02 -0.58980599243E+02  0.10096585172E+03  0.00000000000E+00 0. -1.
         11    1    3    3    0    0  0.41656324023E+01 -0.20428786011E+02 -0.19959906658E+02  0.28863223399E+02  0.00000000000E+00 0.  1.
          1    1    1    2  501    0  0.62795570417E+02 -0.67749854609E+02  0.13333330345E+03  0.16220695507E+03  0.00000000000E+00 0. -1.
<scales pt_clust_5="13000.00000" pt_clust_6="13000.00000" pt_clust_7="13000.00000" pt_clust_8="13000.00000" pt_clust_9="92.37601"></scales>
<clustering>
<clus scale="   82.801">  7  8 -1 -1</clus>
<clus scale="   89.662">  5  6 -1 -1</clus>
<clus scale="   92.376">  1  9  2 -1</clus>
<clus scale="   98.924">  2  7  1 -1</clus>
<clus scale="   92.376">  1  5  2 -1</clus>
</clustering>
</event>
<event>
 9    1  0.1601012E-005  0.1726012E+03  0.7546771E-02  0.1176170E+00
         21   -1    0    0  501  502  0.00000000000E+00  0.00000000000E+00  0.53991980494E+02  0.53991980494E+02  0.00000000000E+00 0. -1.
         -1   -1    0    0    0  501 -0.00000000000E+00 -0.00000000000E+00 -0.76593367997E+03  0.76593367997E+03  0.00000000000E+00 0.  1.
         23    2    1    2    0    0  0.14890048090E+03  0.33742673846E+02 -0.52294961686E+03  0.55151308829E+03  0.85909624194E+02 0.  0.
         23    2    1    2    0    0 -0.12862453535E+03 -0.16329690922E+02 -0.17889250713E+03  0.23984112897E+03  0.93329031579E+02 0.  0.
        -11    1    3    3    0    0  0.88672972417E+02 -0.23628806374E+02 -0.25986372434E+03  0.27559095006E+03  0.00000000000E+00 0.  1.
         11    1    3    3    0    0  0.60227508482E+02  0.57371480221E+02 -0.26308589252E+03  0.27592213823E+03  0.00000000000E+00 0. -1.
        -11    1    4    4    0    0 -0.81006437989E+01 -0.34690704912E+02 -0.58550601970E+02  0.68536402213E+02  0.00000000000E+00 0.  1.
         11    1    4    4    0    0 -0.12052389155E+03  0.18361013989E+02 -0.12034190516E+03  0.17130472675E+03  0.00000000000E+00 0. -1.
         -1    1    1    2    0  502 -0.20275945547E+02 -0.17412982924E+02 -0.10099575485E+02  0.28571443211E+02  0.00000000000E+00 0.  1.
<scales pt_clust_5="13000.00000" pt_clust_6="13000.00000" pt_clust_7="13000.00000" pt_clust_8="13000.00000" pt_clust_9="26.72688"></scales>
<clustering>
<clus scale="   26.727">  1  9  2 -1</clus>
<clus scale="   85.910">  5  6 -1 -1</clus>
<clus scale="   93.329">  7  8 -1 -1</clus>
<clus scale="  168.705">  2  5  1 -1</clus>
<clus scale="   26.727">  1  5  2 -1</clus>
</clustering>
</event>
<event>
 9    1  0.1601012E-005  0.1123397E+03  0.7546771E-02  0.1256577E+00
          2   -1    0    0  502    0 -0.00000000000E+00  0.00000000000E+00  0.94221325920E+03  0.94221325920E+03  0.00000000000E+00 0. -1.
         21   -1    0    0  501  502  0.00000000000E+00 -0.00000000000E+00 -0.27677399443E+02  0.27677399443E+02  0.00000000000E+00 0.  1.
         23    2    1    2    0    0 -0.56824641502E+02 -0.35080898211E+02  0.32783482995E+03  0.34659853739E+03  0.90527129056E+02 0.  0.
         23    2    1    2    0    0 -0.28860369371E+01  0.87830189081E+02  0.29851011900E+03  0.32429069337E+03  0.91289053736E+02 0.  0.
        -11    1    4    4    0    0 -0.38005848410E+02  0.22746859923E+02  0.17330439586E+03  0.17887503396E+03  0.00000000000E+00 0. -1.
         11    1    4    4    0    0  0.35119811473E+02  0.65083329158E+02  0.12520572314E+03  0.14541565941E+03  0.00000000000E+00 0.  1.
        -13    1    3    3    0    0 -0.10049536104E+02 -0.46892782158E+02  0.25339108616E+03  0.25788945062E+03  0.00000000000E+00 0. -1.
         13    1    3    3    0    0 -0.46775105398E+02  0.11811883947E+02  0.74443743785E+02  0.88709086774E+02  0.00000000000E+00 0.  1.
          2    1    1    2  501    0  0.59710678439E+02 -0.52749290870E+02  0.28819091081E+03  0.29900142789E+03  0.00000000000E+00 0. -1.
<scales pt_clust_5="13000.00000" pt_clust_6="13000.00000" pt_clust_7="13000.00000" pt_clust_8="13000.00000" pt_clust_9="79.67345"></scales>
<clustering>
<clus scale="   79.673">  2  9  1 -1</clus>
<clus scale="   90.527">  7  8 -1 -1</clus>
<clus scale="   91.289">  5  6 -1 -1</clus>
<clus scale="  111.721">  1  7  2 -1</clus>
<clus scale="   79.673">  2  5  1 -1</clus>
</clustering>
</event>
<event>
 9    1  0.1601012E-005  0.1030515E+03  0.7546771E-02  0.1274559E+00
         21   -1    0    0  501  502  0.00000000000E+00  0.00000000000E+00  0.31467677619E+02  0.31467677619E+02  0.00000000000E+00 0.  1.
          2   -1    0    0  502    0 -0.00000000000E+00 -0.00000000000E+00 -0.63264532547E+03  0.63264532547E+03  0.00000000000E+00 0. -1.
         23    2    1    2    0    0  0.18698938804E+02 -0.56413290701E+02 -0.33041029185E+03  0.34748442350E+03  0.89679172235E+02 0.  0.
         23    2    1    2    0    0 -0.39489809076E+02  0.19746573118E+02 -0.24996491455E+03  0.26962379222E+03  0.90912917996E+02 0.  0.
        -11    1    3    3    0    0 -0.26967146612E+02 -0.52883841765E+02 -0.22190913380E+03  0.22971197483E+03  0.00000000000E+00 0. -1.
         11    1    3    3    0    0  0.45666085416E+02 -0.35294489359E+01 -0.10850115805E+03  0.11777244867E+03  0.00000000000E+00 0.  1.
        -11    1    4    4    0    0 -0.66440690607E+02  0.22229156740E+02 -0.20981754454E+03  0.22120556678E+03  0.00000000000E+00 0. -1.
         11    1    4    4    0    0  0.26950881531E+02 -0.24825836221E+01 -0.40147370005E+02  0.48418225443E+02  0.00000000000E+00 0.  1.
          2    1    1    2  501    0  0.20790870271E+02  0.36666717583E+02 -0.20802441454E+02  0.47004787367E+02  0.00000000000E+00 0. -1.
<scales pt_clust_5="13000.00000" pt_clust_6="13000.00000" pt_clust_7="13000.00000" pt_clust_8="13000.00000" pt_clust_9="42.15102"></scales>
<clustering>
<clus scale="   42.151">  1  9  2 -1</clus>
<clus scale="   89.679">  5  6 -1 -1</clus>
<clus scale="   90.913">  7  8 -1 -1</clus>
<clus scale="  101.965">  2  5  1 -1</clus>
<clus scale="   42.151">  1  5  2 -1</clus>
</clustering>
</event>
<event>
 9    1  0.1601012E-005  0.9579589E+02  0.7546771E-02  0.1290740E+00
          1   -1    0    0  502    0 -0.00000000000E+00  0.00000000000E+00  0.17356001783E+03  0.17356001783E+03  0.00000000000E+00 0. -1.
         21   -1    0    0  501  502  0.00000000000E+00 -0.00000000000E+00 -0.88761152067E+02  0.88761152067E+02  0.00000000000E+00 0.  1.
         23    2    1    2    0    0 -0.29555861568E+00 -0.27914198251E+02  0.90161354336E+02  0.12984322832E+03  0.89167843450E+02 0.  0.
         23    2    1    2    0    0 -0.25067110114E+02  0.25021474115E+02 -0.23652749052E+02  0.10107465439E+03  0.91663509890E+02 0.  0.
        -11    1    4    4    0    0 -0.31967151428E+02 -0.18842570686E+01  0.27928157615E+02  0.42490365765E+02  0.00000000000E+00 0.  1.
         11    1    4    4    0    0  0.69000413134E+01  0.26905731183E+02 -0.51580906667E+02  0.58584288621E+02  0.00000000000E+00 0. -1.
        -11    1    3    3    0    0  0.64451865576E+01  0.20694601569E+02 -0.54708100758E+01  0.22354792031E+02  0.00000000000E+00 0.  1.
         11    1    3    3    0    0 -0.67407451733E+01 -0.48608799819E+02  0.95632164412E+02  0.10748843629E+03  0.00000000000E+00 0. -1.
          1    1    1    2  501    0  0.25362668730E+02  0.28927241362E+01  0.18290260477E+02  0.31403287190E+02  0.00000000000E+00 0. -1.
<scales pt_clust_5="13000.00000" pt_clust_6="13000.00000" pt_clust_7="13000.00000" pt_clust_8="13000.00000" pt_clust_9="25.52711"></scales>
<clustering>
<clus scale="   25.527">  2  9  1 -1</clus>
<clus scale="   89.168">  7  8 -1 -1</clus>
<clus scale="   91.664">  5  6 -1 -1</clus>
<clus scale="   93.411">  1  7  2 -1</clus>
<clus scale="   25.527">  2  5  1 -1</clus>
</clustering>
</event>
<event>
 9    1  0.1601012E-005  0.1339819E+03  0.7546771E-02  0.1221696E+00
          1   -1    0    0  502    0 -0.00000000000E+00  0.00000000000E+00  0.86616348790E+02  0.86616348790E+02  0.00000000000E+00 0. -1.
         21   -1    0    0  501  502  0.00000000000E+00 -0.00000000000E+00 -0.79220281420E+03  0.79220281420E+03  0.00000000000E+00 0. -1.
         23    2    1    2    0    0 -0.14418469159E+01  0.96420615863E+02  0.14839624052E+02  0.13391887183E+03  0.91733503713E+02 0.  0.
         23    2    1    2    0    0  0.22125945994E+02 -0.10995289638E+03 -0.69290254264E+03  0.70790704583E+03  0.91865418030E+02 0.  0.
        -11    1    3    3    0    0  0.19315568737E+02  0.73258542872E+02 -0.28180333454E+02  0.80833387241E+02  0.00000000000E+00 0.  1.
         11    1    3    3    0    0 -0.20757415653E+02  0.23162072991E+02  0.43019957506E+02  0.53085484586E+02  0.00000000000E+00 0. -1.
        -13    1    4    4    0    0 -0.20863382392E+02 -0.97319469861E+02 -0.44589426923E+03  0.45686766056E+03  0.00000000000E+00 0.  1.
         13    1    4    4    0    0  0.42989328386E+02 -0.12633426521E+02 -0.24700827341E+03  0.25103938527E+03  0.00000000000E+00 0. -1.
          1    1    1    2  501    0 -0.20684099078E+02  0.13532280518E+02 -0.27523546826E+02  0.36993245337E+02  0.00000000000E+00 0. -1.
<scales pt_clust_5="13000.00000" pt_clust_6="13000.00000" pt_clust_7="13000.00000" pt_clust_8="13000.00000" pt_clust_9="24.71751"></scales>
<clustering>
<clus scale="   24.718">  2  9  1 -1</clus>
<clus scale="   91.734">  5  6 -1 -1</clus>
<clus scale="   91.865">  7  8 -1 -1</clus>
<clus scale="  133.891">  1  5  2 -1</clus>
<clus scale="   24.718">  2  5  1 -1</clus>
</clustering>
</event>
<event>
 9    1  0.1601012E-005  0.9266206E+02  0.7546771E-02  0.1297475E+00
          2   -1    0    0  502    0 -0.00000000000E+00  0.00000000000E+00  0.71420259312E+03  0.71420259312E+03  0.00000000000E+00 0. -1.
         21   -1    0    0  501  502  0.00000000000E+00 -0.00000000000E+00 -0.26491543664E+02  0.26491543664E+02  0.00000000000E+00 0.  1.
         23    2    1    2    0    0 -0.26245787179E+02 -0.22768472207E+02  0.26028347314E+03  0.27825841796E+03  0.92048987518E+02 0.  0.
         23    2    1    2    0    0 -0.12066130491E+02 -0.33877141912E+02  0.16805182603E+03  0.19419644417E+03  0.90430030661E+02 0.  0.
        -11    1    3    3    0    0 -0.72747129398E+01  0.33437684402E+02  0.14027765823E+03  0.14439121021E+03  0.00000000000E+00 0.  1.
         11    1    3    3    0    0 -0.18971074239E+02 -0.56206156610E+02  0.12000581491E+03  0.13386720775E+03  0.00000000000E+00 0. -1.
        -13    1    4    4    0    0 -0.26861482740E+02  0.24846671777E+02  0.57834342642E+02  0.68437617888E+02  0.00000000000E+00 0.  1.
         13    1    4    4    0    0  0.14795352249E+02 -0.58723813689E+02  0.11021748339E+03  0.12575882628E+03  0.00000000000E+00 0. -1.
          2    1    1    2  501    0  0.38311917670E+02  0.56645614119E+02  0.25937575029E+03  0.26823927466E+03  0.00000000000E+00 0. -1.
<scales pt_clust_5="13000.00000" pt_clust_6="13000.00000" pt_clust_7="13000.00000" pt_clust_8="13000.00000" pt_clust_9="68.38518"></scales>
<clustering>
<clus scale="   68.385">  2  9  1 -1</clus>
<clus scale="   90.430">  7  8 -1 -1</clus>
<clus scale="   91.054">  2  7  1 -1</clus>
<clus scale="   92.049">  5  6 -1 -1</clus>
<clus scale="   68.385">  2  5  1 -1</clus>
</clustering>
</event>
<event>
 9    1  0.1601012E-005  0.1592255E+03  0.7546771E-02  0.1190637E+00
         21   -1    0    0  501  502  0.00000000000E+00  0.00000000000E+00  0.62266293237E+02  0.62266293237E+02  0.00000000000E+00 0. -1.
         -1   -1    0    0    0  501 -0.00000000000E+00 -0.00000000000E+00 -0.61025129486E+03  0.61025129486E+03  0.00000000000E+00 0.  1.
         23    2    1    2    0    0 -0.13267091840E+03 -0.62509987858E+02 -0.36264724703E+03  0.40174601412E+03  0.91530120264E+02 0.  0.
         23    2    1    2    0    0  0.87741192302E+02  0.45322353059E+02 -0.74767441618E+02  0.15019011110E+03  0.84936839076E+02 0.  0.
        -11    1    3    3    0    0 -0.96253209510E+02 -0.14218942883E+02 -0.29677554018E+03  0.31231807493E+03  0.00000000000E+00 0. -1.
         11    1    3    3    0    0 -0.36417708892E+02 -0.48291044974E+02 -0.65871706847E+02  0.89427939194E+02  0.00000000000E+00 0.  1.
        -13    1    4    4    0    0  0.77126293929E+00  0.26440551808E+02  0.90307500436E+01  0.27950886798E+02  0.00000000000E+00 0. -1.
         13    1    4    4    0    0  0.86969929363E+02  0.18881801251E+02 -0.83798191662E+02  0.12223922430E+03  0.00000000000E+00 0.  1.
         -1    1    1    2    0  502  0.44929726100E+02  0.17187634798E+02 -0.11057031298E+03  0.12058146288E+03  0.00000000000E+00 0.  1.
<scales pt_clust_5="13000.00000" pt_clust_6="13000.00000" pt_clust_7="13000.00000" pt_clust_8="13000.00000" pt_clust_9="48.10507"></scales>
<clustering>
<clus scale="   48.105">  1  9  2 -1</clus>
<clus scale="   84.937">  7  8 -1 -1</clus>
<clus scale="   91.530">  5  6 -1 -1</clus>
<clus scale="  155.529">  1  7  2 -1</clus>
<clus scale="   48.105">  1  5  2 -1</clus>
</clustering>
</event>
<event>
 9    1  0.1601012E-005  0.1462053E+03  0.7546771E-02  0.1205620E+00
         21   -1    0    0  501  502  0.00000000000E+00  0.00000000000E+00  0.29922590304E+03  0.29922590304E+03  0.00000000000E+00 0. -1.
          1   -1    0    0  502    0 -0.00000000000E+00 -0.00000000000E+00 -0.15440965920E+03  0.15440965920E+03  0.00000000000E+00 0. -1.
         23    2    1    2    0    0 -0.39010945676E+02 -0.11084674939E+03 -0.77945774204E+02  0.16891359410E+03  0.92991412622E+02 0.  0.
         23    2    1    2    0    0  0.41227493215E+02  0.88632631726E+02  0.11991616975E+03  0.17948106060E+03  0.90984140072E+02 0.  0.
        -11    1    4    4    0    0  0.17710003791E+02  0.92264487316E+02  0.12375625833E+03  0.15537693307E+03  0.00000000000E+00 0.  1.
         11    1    4    4    0    0  0.23517489424E+02 -0.36318555899E+01 -0.38400885830E+01  0.24104127533E+02  0.00000000000E+00 0. -1.
        -13    1    3    3    0    0  0.23008818596E+02 -0.74258739780E+02 -0.43615618862E+02  0.89140834502E+02  0.00000000000E+00 0. -1.
         13    1    3    3    0    0 -0.62019764273E+02 -0.36588009612E+02 -0.34330155342E+02  0.79772759596E+02  0.00000000000E+00 0.  1.
          1    1    1    2  501    0 -0.22165475387E+01  0.22214117665E+02  0.10284584830E+03  0.10524090754E+03  0.00000000000E+00 0. -1.
<scales pt_clust_5="13000.00000" pt_clust_6="13000.00000" pt_clust_7="13000.00000" pt_clust_8="13000.00000" pt_clust_9="22.32443"></scales>
<clustering>
<clus scale="   22.324">  1  9  2 -1</clus>
<clus scale="   90.984">  5  6 -1 -1</clus>
<clus scale="   92.991">  7  8 -1 -1</clus>
<clus scale="  144.937">  1  5  2 -1</clus>
<clus scale="   22.324">  1  5  2 -1</clus>
</clustering>
</event>
<event>
 9    1  0.1601012E-005  0.1088097E+03  0.7546771E-02  0.1267658E+00
          2   -1    0    0  502    0 -0.00000000000E+00  0.00000000000E+00  0.41009116109E+03  0.41009116109E+03  0.00000000000E+00 0. -1.
         21   -1    0    0  501  502  0.00000000000E+00 -0.00000000000E+00 -0.59330521840E+02  0.59330521840E+02  0.00000000000E+00 0. -1.
         23    2    1    2    0    0  0.32468103844E+02  0.67893544260E+02  0.18912768316E+03  0.22282128158E+03  0.90643984181E+02 0.  0.
         23    2    1    2    0    0 -0.12964401796E+02  0.97329319607E+01  0.11440038246E+03  0.15366397030E+03  0.10130331971E+03 0.  0.
        -11    1    3    3    0    0  0.57166696962E+01 -0.22667146128E+02  0.36536465455E+02  0.43375028922E+02  0.00000000000E+00 0.  1.
         11    1    3    3    0    0  0.26751434148E+02  0.90560690388E+02  0.15259121771E+03  0.17944625266E+03  0.00000000000E+00 0. -1.
        -11    1    4    4    0    0 -0.40612487862E+02 -0.32419051457E+02  0.63056754068E+02  0.81709995113E+02  0.00000000000E+00 0.  1.
         11    1    4    4    0    0  0.27648086067E+02  0.42151983418E+02  0.51343628389E+02  0.71953975188E+02  0.00000000000E+00 0. -1.
          2    1    1    2  501    0 -0.19503702049E+02 -0.77626476220E+02  0.47232573630E+02  0.92936431047E+02  0.00000000000E+00 0. -1.
<scales pt_clust_5="13000.00000" pt_clust_6="13000.00000" pt_clust_7="13000.00000" pt_clust_8="13000.00000" pt_clust_9="80.03914"></scales>
<clustering>
<clus scale="   80.039">  2  9  1 -1</clus>
<clus scale="   90.644">  5  6 -1 -1</clus>
<clus scale="   98.962">  1  5  2 -1</clus>
<clus scale="  101.303">  7  8 -1 -1</clus>
<clus scale="   80.039">  2  5  1 -1</clus>
</clustering>
</event>
<event>
 9    1  0.1601012E-005  0.9430661E+02  0.7546771E-02  0.1293641E+00
          1   -1    0    0  502    0 -0.00000000000E+00  0.00000000000E+00  0.10467397049E+03  0.10467397049E+03  0.00000000000E+00 0. -1.
         21   -1    0    0  501  502  0.00000000000E+00 -0.00000000000E+00 -0.13672953812E+03  0.13672953812E+03  0.00000000000E+00 0. -1.
         23    2    1    2    0    0  0.40216866989E+01  0.23060713368E+01  0.94715091644E+01  0.92906585218E+02  0.92306187019E+02 0.  0.
         23    2    1    2    0    0 -0.68287271209E+01 -0.43390355606E+02 -0.23191009837E+02  0.10341911021E+03  0.90710170022E+02 0.  0.
        -11    1    4    4    0    0 -0.17111758168E+02  0.25526240678E+02 -0.30223383941E+01  0.30879374348E+02  0.00000000000E+00 0.  1.
         11    1    4    4    0    0  0.10283031048E+02 -0.68916596285E+02 -0.20168671443E+02  0.72539735861E+02  0.00000000000E+00 0. -1.
        -11    1    3    3    0    0 -0.41703628634E+02  0.72070664212E+01 -0.91373905343E+01  0.43296955476E+02  0.00000000000E+00 0.  1.
         11    1    3    3    0    0  0.45725315333E+02 -0.49009950844E+01  0.18608899699E+02  0.49609629742E+02  0.00000000000E+00 0. -1.
          1    1    1    2  501    0  0.28070404220E+01  0.41084284270E+02 -0.18336066959E+02  0.45077813184E+02  0.00000000000E+00 0. -1.
<scales pt_clust_5="13000.00000" pt_clust_6="13000.00000" pt_clust_7="13000.00000" pt_clust_8="13000.00000" pt_clust_9="41.18007"></scales>
<clustering>
<clus scale="   41.180">  2  9  1 -1</clus>
<clus scale="   90.710">  5  6 -1 -1</clus>
<clus scale="   92.306">  7  8 -1 -1</clus>
<clus scale="   92.745">  2  5  1 -1</clus>
<clus scale="   41.180">  2  5  1 -1</clus>
</clustering>
</event>
<event>
 9    1  0.1601012E-005  0.1315872E+03  0.7546771E-02  0.1225814E+00
          1   -1    0    0  502    0 -0.00000000000E+00  0.00000000000E+00  0.35911432568E+03  0.35911432568E+03  0.00000000000E+00 0. -1.
         21   -1    0    0  501  502  0.00000000000E+00 -0.00000000000E+00 -0.38575985414E+03  0.38575985414E+03  0.00000000000E+00 0. -1.
         23    2    1    2    0    0 -0.89208286723E+02 -0.84289788568E+01  0.26625377674E+03  0.29470975044E+03  0.89070743068E+02 0.  0.
         23    2    1    2    0    0  0.11500795171E+03  0.40852877229E+02  0.16389166461E+01  0.15272587098E+03  0.91797162723E+02 0.  0.
        -13    1    3    3    0    0 -0.98685097688E+02  0.10438221376E+02  0.24678671396E+03  0.26599132910E+03  0.00000000000E+00 0. -1.
         13    1    3    3    0    0  0.94768109649E+01 -0.18867200233E+02  0.19467062780E+02  0.28718421335E+02  0.00000000000E+00 0.  1.
        -13    1    4    4    0    0  0.15371853596E+02  0.16655393123E+02 -0.36804546053E+02  0.43223496079E+02  0.00000000000E+00 0.  1.
         13    1    4    4    0    0  0.99636098115E+02  0.24197484106E+02  0.38443462700E+02  0.10950237490E+03  0.00000000000E+00 0. -1.
          1    1    1    2  501    0 -0.25799664988E+02 -0.32423898372E+02 -0.29453822184E+03  0.29743855840E+03  0.00000000000E+00 0. -1.
<scales pt_clust_5="13000.00000" pt_clust_6="13000.00000" pt_clust_7="13000.00000" pt_clust_8="13000.00000" pt_clust_9="41.43588"></scales>
<clustering>
<clus scale="   41.436">  2  9  1 -1</clus>
<clus scale="   89.071">  5  6 -1 -1</clus>
<clus scale="   91.797">  7  8 -1 -1</clus>
<clus scale="  129.700">  1  5  2 -1</clus>
<clus scale="   41.436">  2  5  1 -1</clus>
</clustering>
</event>
<event>
 9    1  0.1601012E-005  0.9461097E+02  0.7546771E-02  0.1293712E+00
         21   -1    0    0  501  502  0.00000000000E+00  0.00000000000E+00  0.51592631071E+02  0.51592631071E+02  0.00000000000E+00 0.  1.
          1   -1    0    0  502    0 -0.00000000000E+00 -0.00000000000E+00 -0.39860976027E+03  0.39860976027E+03  0.00000000000E+00 0. -1.
         23    2    1    2    0    0 -0.10261838467E+02  0.67554088037E+01 -0.16603545008E+03  0.18918990018E+03  0.89856033577E+02 0.  0.
         23    2    1    2    0    0 -0.30016616498E+02 -0.51729978864E+02 -0.59631041372E+02  0.12547266982E+03  0.92793005116E+02 0.  0.
        -11    1    3    3    0    0 -0.13653062095E+02 -0.40747626519E+02 -0.74465794170E+02  0.85976332051E+02  0.00000000000E+00 0.  1.
         11    1    3    3    0    0  0.33912236281E+01  0.47503035323E+02 -0.91569655913E+02  0.10321356813E+03  0.00000000000E+00 0. -1.
        -13    1    4    4    0    0 -0.22577380211E+02 -0.78847834231E+02 -0.48098691136E+02  0.95079982904E+02  0.00000000000E+00 0.  1.
         13    1    4    4    0    0 -0.74392362865E+01  0.27117855367E+02 -0.11532350236E+02  0.30392686920E+02  0.00000000000E+00 0. -1.
          1    1    1    2  501    0  0.40278454965E+02  0.44974570060E+02 -0.12135063775E+03  0.13553982134E+03  0.00000000000E+00 0. -1.
<scales pt_clust_5="13000.00000" pt_clust_6="13000.00000" pt_clust_7="13000.00000" pt_clust_8="13000.00000" pt_clust_9="60.37441"></scales>
<clustering>
<clus scale="   60.374">  1  9  2 -1</clus>
<clus scale="   89.856">  5  6 -1 -1</clus>
<clus scale="   91.732">  2  5  1 -1</clus>
<clus scale="   92.793">  7  8 -1 -1</clus>
<clus scale="   60.374">  1  5  2 -1</clus>
</clustering>
</event>
<event>
 9    1  0.1601012E-005  0.1025619E+03  0.7546771E-02  0.1278179E+00
         -1   -1    0    0    0  501 -0.00000000000E+00  0.00000000000E+00  0.70367120341E+03  0.70367120341E+03  0.00000000000E+00 0.  1.
         21   -1    0    0  501  502  0.00000000000E+00 -0.00000000000E+00 -0.93951569133E+02  0.93951569133E+02  0.00000000000E+00 0.  1.
         23    2    1    2    0    0  0.79216887309E+01 -0.20901481351E+02  0.55557191087E+03  0.56378790153E+03  0.93257839812E+02 0.  0.
         23    2    1    2    0    0  0.27708114307E+01  0.39602942126E+02  0.12216412719E+03  0.16248849495E+03  0.99510635605E+02 0.  0.
        -13    1    4    4    0    0  0.25037523558E+02  0.24208725597E+01 -0.71125479851E+01  0.26140515464E+02  0.00000000000E+00 0. -1.
         13    1    4    4    0    0 -0.22266712128E+02  0.37182069566E+02  0.12927667517E+03  0.13634797949E+03  0.00000000000E+00 0.  1.
        -13    1    3    3    0    0 -0.33915130431E+02 -0.37734848843E+02  0.30460269546E+03  0.30879921790E+03  0.00000000000E+00 0.  1.
         13    1    3    3    0    0  0.41836819162E+02  0.16833367492E+02  0.25096921540E+03  0.25498868363E+03  0.00000000000E+00 0. -1.
         -1    1    1    2    0  502 -0.10692500162E+02 -0.18701460775E+02 -0.68016403779E+02  0.71346376066E+02  0.00000000000E+00 0.  1.
<scales pt_clust_5="13000.00000" pt_clust_6="13000.00000" pt_clust_7="13000.00000" pt_clust_8="13000.00000" pt_clust_9="21.54238"></scales>
<clustering>
<clus scale="   21.542">  2  9  1 -1</clus>
<clus scale="   93.258">  7  8 -1 -1</clus>
<clus scale="   96.507">  1  7  2 -1</clus>
<clus scale="   99.511">  5  6 -1 -1</clus>
<clus scale="   21.542">  2  5  1 -1</clus>
</clustering>
</event>
<event>
 9    1  0.1601012E-005  0.1329686E+03  0.7546771E-02  0.1223278E+00
         21   -1    0    0  501  502  0.00000000000E+00  0.00000000000E+00  0.40600979060E+02  0.40600979060E+02  0.00000000000E+00 0. -1.
          1   -1    0    0  502    0 -0.00000000000E+00 -0.00000000000E+00 -0.86079681739E+03  0.86079681739E+03  0.00000000000E+00 0. -1.
         23    2    1    2    0    0  0.49705962260E+02 -0.98228957282E+02 -0.59142805305E+03  0.60833645189E+03  0.90368611933E+02 0.  0.
         23    2    1    2    0    0  0.57528111748E+01  0.67234208810E+02 -0.10765277595E+03  0.15629440606E+03  0.91023554781E+02 0.  0.
        -11    1    3    3    0    0  0.28085756108E+02  0.56890202220E+01 -0.61041137344E+02  0.67432893275E+02  0.00000000000E+00 0.  1.
         11    1    3    3    0    0  0.21620206152E+02 -0.10391797750E+03 -0.53038691571E+03  0.54090355861E+03  0.00000000000E+00 0. -1.
        -11    1    4    4    0    0 -0.19763527019E+02  0.36855637046E+02 -0.10884599390E+03  0.11660353927E+03  0.00000000000E+00 0.  1.
         11    1    4    4    0    0  0.25516338193E+02  0.30378571763E+02  0.11932179524E+01  0.39690866787E+02  0.00000000000E+00 0. -1.
          1    1    1    2  501    0 -0.55458773435E+02  0.30994748472E+02 -0.12111500933E+03  0.13676693851E+03  0.00000000000E+00 0. -1.
<scales pt_clust_5="13000.00000" pt_clust_6="13000.00000" pt_clust_7="13000.00000" pt_clust_8="13000.00000" pt_clust_9="63.53228"></scales>
<clustering>
<clus scale="   63.532">  1  9  2 -1</clus>
<clus scale="   90.369">  5  6 -1 -1</clus>
<clus scale="   91.024">  7  8 -1 -1</clus>
<clus scale="  132.521">  2  5  1 -1</clus>
<clus scale="   63.532">  1  5  2 -1</clus>
</clustering>
</event>
<event>
 9    1  0.1601012E-005  0.1126405E+03  0.7546771E-02  0.1256196E+00
         21   -1    0    0  501  502  0.00000000000E+00  0.00000000000E+00  0.38476679774E+02  0.38476679774E+02  0.00000000000E+00 0.  1.
          1   -1    0    0  502    0 -0.00000000000E+00 -0.00000000000E+00 -0.47274379992E+03  0.47274379992E+03  0.00000000000E+00 0. -1.
         23    2    1    2    0    0 -0.48452455909E+02  0.54317544754E+02 -0.20718332634E+03  0.23765912131E+03  0.90878441222E+02 0.  0.
         23    2    1    2    0    0  0.29360695812E+02 -0.44979197729E+02 -0.10494449575E+03  0.14958673130E+03  0.92074232590E+02 0.  0.
        -11    1    4    4    0    0  0.28483339906E+02 -0.39596858286E+01  0.76436549814E+01  0.29755759536E+02  0.00000000000E+00 0. -1.
         11    1    4    4    0    0  0.87735590522E+00 -0.41019511901E+02 -0.11258815073E+03  0.11983097177E+03  0.00000000000E+00 0.  1.
        -13    1    3    3    0    0 -0.17297817985E+02 -0.16265053844E+02 -0.97160596920E+01  0.25654790967E+02  0.00000000000E+00 0.  1.
         13    1    3    3    0    0 -0.31154637923E+02  0.70582598598E+02 -0.19746726664E+03  0.21200433034E+03  0.00000000000E+00 0. -1.
          1    1    1    2  501    0  0.19091760097E+02 -0.93383470247E+01 -0.12213929807E+03  0.12397462709E+03  0.00000000000E+00 0. -1.
<scales pt_clust_5="13000.00000" pt_clust_6="13000.00000" pt_clust_7="13000.00000" pt_clust_8="13000.00000" pt_clust_9="21.25325"></scales>
<clustering>
<clus scale="   21.253">  1  9  2 -1</clus>
<clus scale="   90.878">  7  8 -1 -1</clus>
<clus scale="   92.074">  5  6 -1 -1</clus>
<clus scale="  111.665">  2  7  1 -1</clus>
<clus scale="   21.253">  1  5  2 -1</clus>
</clustering>
</event>
<event>
 9    1  0.1601012E-005  0.9735437E+02  0.7546771E-02  0.1287562E+00
         21   -1    0    0  501  502  0.00000000000E+00  0.00000000000E+00  0.34251050088E+02  0.34251050088E+02  0.00000000000E+00 0. -1.
          2   -1    0    0  502    0 -0.00000000000E+00 -0.00000000000E+00 -0.44602119555E+03  0.44602119555E+03  0.00000000000E+00 0. -1.
         23    2    1    2    0    0 -0.18102458007E+02  0.24785571310E+02 -0.17077552944E+03  0.19601742099E+03  0.91194979812E+02 0.  0.
         23    2    1    2    0    0 -0.30694057601E+02 -0.23419709615E+02 -0.16834139879E+03  0.19672508407E+03  0.94187707175E+02 0.  0.
        -13    1    3    3    0    0  0.27900827641E+02 -0.30714385419E+01 -0.16324993860E+02  0.32471454268E+02  0.00000000000E+00 0.  1.
         13    1    3    3    0    0 -0.46003285647E+02  0.27857009852E+02 -0.15445053558E+03  0.16354596672E+03  0.00000000000E+00 0. -1.
        -13    1    4    4    0    0 -0.55905754503E+02  0.12753885055E+02 -0.10326981023E+03  0.11812183827E+03  0.00000000000E+00 0. -1.
         13    1    4    4    0    0  0.25211696903E+02 -0.36173594670E+02 -0.65071588562E+02  0.78603245799E+02  0.00000000000E+00 0.  1.
          2    1    1    2  501    0  0.48796515607E+02 -0.13658616949E+01 -0.72653217228E+02  0.87529740586E+02  0.00000000000E+00 0. -1.
<scales pt_clust_5="13000.00000" pt_clust_6="13000.00000" pt_clust_7="13000.00000" pt_clust_8="13000.00000" pt_clust_9="48.81563"></scales>
<clustering>
<clus scale="   48.816">  1  9  2 -1</clus>
<clus scale="   91.195">  5  6 -1 -1</clus>
<clus scale="   94.188">  7  8 -1 -1</clus>
<clus scale="   94.462">  2  5  1 -1</clus>
<clus scale="   48.816">  1  5  2 -1</clus>
</clustering>
</event>
<event>
 9    1  0.1601012E-005  0.2568710E+03  0.7546771E-02  0.1109121E+00
         21   -1    0    0  501  502  0.00000000000E+00  0.00000000000E+00  0.14666694850E+03  0.14666694850E+03  0.00000000000E+00 0.  1.
          1   -1    0    0  502    0 -0.00000000000E+00 -0.00000000000E+00 -0.11029795749E+04  0.11029795749E+04  0.00000000000E+00 0. -1.
         23    2    1    2    0    0 -0.12093286476E+03  0.21843136068E+03 -0.68612692527E+03  0.73559843545E+03  0.89430887027E+02 0.  0.
         23    2    1    2    0    0  0.85681744425E+02 -0.20970339920E+03 -0.34978827541E+03  0.42655301022E+03  0.90987669215E+02 0.  0.
        -13    1    3    3    0    0 -0.99627068321E+02  0.22044654305E+03 -0.60190713273E+03  0.64870211000E+03  0.00000000000E+00 0. -1.
         13    1    3    3    0    0 -0.21305796443E+02 -0.20151823755E+01 -0.84219792536E+02  0.86896325451E+02  0.00000000000E+00 0.  1.
        -13    1    4    4    0    0  0.24327773942E+02 -0.16842394003E+03 -0.24297506521E+03  0.29664009586E+03  0.00000000000E+00 0.  1.
         13    1    4    4    0    0  0.61353970483E+02 -0.41279459173E+02 -0.10681321020E+03  0.12991291436E+03  0.00000000000E+00 0. -1.
          1    1    1    2  501    0  0.35251120339E+02 -0.87279614765E+01  0.79602574272E+02  0.87495077733E+02  0.00000000000E+00 0. -1.
<scales pt_clust_5="13000.00000" pt_clust_6="13000.00000" pt_clust_7="13000.00000" pt_clust_8="13000.00000" pt_clust_9="36.31554"></scales>
<clustering>
<clus scale="   36.316">  1  9  2 -1</clus>
<clus scale="   89.431">  5  6 -1 -1</clus>
<clus scale="   90.988">  7  8 -1 -1</clus>
<clus scale="  256.324">  2  5  1 -1</clus>
<clus scale="   36.316">  1  5  2 -1</clus>
</clustering>
</event>
<event>
 9    1  0.1601012E-005  0.1176360E+03  0.7546771E-02  0.1252029E+00
         21   -1    0    0  501  502  0.00000000000E+00  0.00000000000E+00  0.51027285495E+02  0.51027285495E+02  0.00000000000E+00 0. -1.
          3   -1    0    0  502    0 -0.00000000000E+00 -0.00000000000E+00 -0.63377333755E+03  0.63377333755E+03  0.00000000000E+00 0. -1.
         23    2    1    2    0    0 -0.57886572177E+02 -0.49218474603E+02 -0.46231091433E+03  0.47474765686E+03  0.76685348694E+02 0.  0.
         23    2    1    2    0    0  0.21420639291E+02  0.66181941215E+02 -0.42913139875E+02  0.12271921777E+03  0.91540022430E+02 0.  0.
        -11    1    4    4    0    0 -0.25165280245E+02  0.45286228236E+02 -0.48987517964E+02  0.71301547766E+02  0.00000000000E+00 0.  1.
         11    1    4    4    0    0  0.46585919535E+02  0.20895712979E+02  0.60743780888E+01  0.51417670008E+02  0.00000000000E+00 0. -1.
        -13    1    3    3    0    0 -0.72542672062E+02 -0.21795600182E+02 -0.35674362744E+03  0.36469645348E+03  0.00000000000E+00 0.  1.
         13    1    3    3    0    0  0.14656099885E+02 -0.27422874422E+02 -0.10556728689E+03  0.11005120339E+03  0.00000000000E+00 0. -1.
          3    1    1    2  501    0  0.36465932887E+02 -0.16963466612E+02 -0.77521997840E+02  0.87333748402E+02  0.00000000000E+00 0. -1.
<scales pt_clust_5="13000.00000" pt_clust_6="13000.00000" pt_clust_7="13000.00000" pt_clust_8="13000.00000" pt_clust_9="40.21847"></scales>
<clustering>
<clus scale="   40.218">  1  9  2 -1</clus>
<clus scale="   76.685">  7  8 -1 -1</clus>
<clus scale="   91.540">  5  6 -1 -1</clus>
<clus scale="  106.486">  2  7  1 -1</clus>
<clus scale="   40.218">  1  5  2 -1</clus>
</clustering>
</event>
<event>
 9    1  0.1601012E-005  0.1237037E+03  0.7546771E-02  0.1244515E+00
         21   -1    0    0  501  502  0.00000000000E+00  0.00000000000E+00  0.29024247456E+03  0.29024247456E+03  0.00000000000E+00 0. -1.
          1   -1    0    0  502    0 -0.00000000000E+00 -0.00000000000E+00 -0.96345465545E+02  0.96345465545E+02  0.00000000000E+00 0. -1.
         23    2    1    2    0    0 -0.49310841114E+02  0.37652461427E+02 -0.27622887463E+02  0.13009662905E+03  0.11096324651E+03 0.  0.
         23    2    1    2    0    0  0.27151849028E+02 -0.13170191218E+02  0.16088584511E+03  0.18744863824E+03  0.91334878211E+02 0.  0.
        -11    1    4    4    0    0  0.33826373353E+02 -0.49080556359E+02  0.96584770203E+02  0.11349776377E+03  0.00000000000E+00 0.  1.
         11    1    4    4    0    0 -0.66745243245E+01  0.35910365141E+02  0.64301074909E+02  0.73950874464E+02  0.00000000000E+00 0. -1.
        -11    1    3    3    0    0 -0.31340356181E+02  0.77092857957E+02 -0.23961943248E+02  0.86600816381E+02  0.00000000000E+00 0. -1.
         11    1    3    3    0    0 -0.17970484932E+02 -0.39440396530E+02 -0.36609442145E+01  0.43495812669E+02  0.00000000000E+00 0.  1.
          1    1    1    2  501    0  0.22158992085E+02 -0.24482270209E+02  0.60634051370E+02  0.69042672822E+02  0.00000000000E+00 0. -1.
<scales pt_clust_5="13000.00000" pt_clust_6="13000.00000" pt_clust_7="13000.00000" pt_clust_8="13000.00000" pt_clust_9="33.02124"></scales>
<clustering>
<clus scale="   33.021">  1  9  2 -1</clus>
<clus scale="   91.335">  5  6 -1 -1</clus>
<clus scale="  106.451">  1  5  2 -1</clus>
<clus scale="  110.963">  7  8 -1 -1</clus>
<clus scale="   33.021">  1  5  2 -1</clus>
</clustering>
</event>
<event>
 9    1  0.1601012E-005  0.1068012E+03  0.7546771E-02  0.1268580E+00
         -2   -1    0    0    0  501 -0.00000000000E+00  0.00000000000E+00  0.29352768752E+02  0.29352768752E+02  0.00000000000E+00 0.  1.
         21   -1    0    0  501  502  0.00000000000E+00 -0.00000000000E+00 -0.48848060529E+03  0.48848060529E+03  0.00000000000E+00 0. -1.
         23    2    1    2    0    0  0.54968890622E+02  0.52347609946E+01 -0.17561635785E+03  0.20541191924E+03  0.91126120092E+02 0.  0.
         23    2    1    2    0    0 -0.52280915483E+02 -0.25197983560E+02 -0.18876077788E+03  0.21555324140E+03  0.86396389447E+02 0.  0.
        -11    1    4    4    0    0  0.20930547854E+02 -0.16933844613E+02 -0.28709181210E+02  0.39358099708E+02  0.00000000000E+00 0. -1.
         11    1    4    4    0    0 -0.73211463337E+02 -0.82641389465E+01 -0.16005159667E+03  0.17619514169E+03  0.00000000000E+00 0.  1.
        -11    1    3    3    0    0  0.25974868029E+02 -0.21671396252E+02 -0.15891495179E+03  0.16247555228E+03  0.00000000000E+00 0. -1.
         11    1    3    3    0    0  0.28994022592E+02  0.26906157247E+02 -0.16701406060E+02  0.42936366966E+02  0.00000000000E+00 0.  1.
         -2    1    1    2    0  502 -0.26879751385E+01  0.19963222565E+02 -0.94750700798E+02  0.96868213400E+02  0.00000000000E+00 0.  1.
<scales pt_clust_5="13000.00000" pt_clust_6="13000.00000" pt_clust_7="13000.00000" pt_clust_8="13000.00000" pt_clust_9="20.14337"></scales>
<clustering>
<clus scale="   20.143">  2  9  1 -1</clus>
<clus scale="   86.396">  5  6 -1 -1</clus>
<clus scale="   91.126">  7  8 -1 -1</clus>
<clus scale="  102.795">  2  5  1 -1</clus>
<clus scale="   20.143">  2  5  1 -1</clus>
</clustering>
</event>
<event>
 9    1  0.1601012E-005  0.1030854E+03  0.7546771E-02  0.1275076E+00
          2   -1    0    0  502    0 -0.00000000000E+00  0.00000000000E+00  0.35024188309E+03  0.35024188309E+03  0.00000000000E+00 0. -1.
         21   -1    0    0  501  502  0.00000000000E+00 -0.00000000000E+00 -0.93765181089E+02  0.93765181089E+02  0.00000000000E+00 0. -1.
         23    2    1    2    0    0  0.56285051106E+02 -0.25462181518E+02  0.18907167138E+03  0.21763142180E+03  0.88311999002E+02 0.  0.
         23    2    1    2    0    0 -0.32509357250E+02  0.97931167275E+01  0.12731273950E+03  0.16004513059E+03  0.90846831206E+02 0.  0.
        -13    1    4    4    0    0 -0.46531145027E+02 -0.24366724839E+02  0.42580422976E+02  0.67616397107E+02  0.00000000000E+00 0.  1.
         13    1    4    4    0    0  0.14021787777E+02  0.34159841566E+02  0.84732316528E+02  0.92428733479E+02  0.00000000000E+00 0. -1.
        -13    1    3    3    0    0  0.22379740247E+02 -0.54132176846E+02  0.74592840918E+02  0.94843224639E+02  0.00000000000E+00 0.  1.
         13    1    3    3    0    0  0.33905310859E+02  0.28669995328E+02  0.11447883047E+03  0.12278819716E+03  0.00000000000E+00 0. -1.
          2    1    1    2  501    0 -0.23775693856E+02  0.15669064790E+02 -0.59907708892E+02  0.66330511791E+02  0.00000000000E+00 0. -1.
<scales pt_clust_5="13000.00000" pt_clust_6="13000.00000" pt_clust_7="13000.00000" pt_clust_8="13000.00000" pt_clust_9="28.47461"></scales>
<clustering>
<clus scale="   28.475">  2  9  1 -1</clus>
<clus scale="   88.312">  7  8 -1 -1</clus>
<clus scale="   90.847">  5  6 -1 -1</clus>
<clus scale="  100.859">  1  7  2 -1</clus>
<clus scale="   28.475">  2  5  1 -1</clus>
</clustering>
</event>
<event>
 9    1  0.1601012E-005  0.1056199E+03  0.7546771E-02  0.1269737E+00
          3   -1    0    0  502    0 -0.00000000000E+00  0.00000000000E+00  0.46682005209E+03  0.46682005209E+03  0.00000000000E+00 0. -1.
         21   -1    0    0  501  502  0.00000000000E+00 -0.00000000000E+00 -0.48784614866E+02  0.48784614866E+02  0.00000000000E+00 0.  1.
         23    2    1    2    0    0 -0.29700245239E+02  0.29452035696E+02  0.27677418904E+03  0.29400189256E+03  0.89909032556E+02 0.  0.
         23    2    1    2    0    0  0.59613520667E+02 -0.53161689114E+02  0.13688590532E+03  0.18318278823E+03  0.91859924839E+02 0.  0.
        -11    1    4    4    0    0  0.15615790778E+02 -0.29009803436E+02  0.12804977604E+03  0.13222014507E+03  0.00000000000E+00 0. -1.
         11    1    4    4    0    0  0.43997729889E+02 -0.24151885678E+02  0.88361292773E+01  0.50962643159E+02  0.00000000000E+00 0.  1.
        -11    1    3    3    0    0  0.28659001878E+01 -0.21023164746E+02  0.16478613281E+02  0.26865061614E+02  0.00000000000E+00 0.  1.
         11    1    3    3    0    0 -0.32566145427E+02  0.50475200442E+02  0.26029557576E+03  0.26713683095E+03  0.00000000000E+00 0. -1.
          3    1    1    2  501    0 -0.29913275428E+02  0.23709653418E+02  0.43753428614E+01  0.38419986169E+02  0.00000000000E+00 0. -1.
<scales pt_clust_5="13000.00000" pt_clust_6="13000.00000" pt_clust_7="13000.00000" pt_clust_8="13000.00000" pt_clust_9="38.17004"></scales>
<clustering>
<clus scale="   38.170">  2  9  1 -1</clus>
<clus scale="   89.909">  7  8 -1 -1</clus>
<clus scale="   91.860">  5  6 -1 -1</clus>
<clus scale="  103.928">  1  7  2 -1</clus>
<clus scale="   38.170">  2  5  1 -1</clus>
</clustering>
</event>
<event>
 9    1  0.1601012E-005  0.1053783E+03  0.7546771E-02  0.1271531E+00
         21   -1    0    0  501  502  0.00000000000E+00  0.00000000000E+00  0.17183743288E+03  0.17183743288E+03  0.00000000000E+00 0. -1.
          4   -1    0    0  502    0 -0.00000000000E+00 -0.00000000000E+00 -0.17207652289E+03  0.17207652289E+03  0.00000000000E+00 0. -1.
         23    2    1    2    0    0  0.36335577098E+02  0.27800533121E+02 -0.12711055946E+03  0.16618262678E+03  0.96780304355E+02 0.  0.
         23    2    1    2    0    0 -0.16745294992E+02 -0.12974375759E+02  0.76078046030E+02  0.12130823126E+03  0.92081912187E+02 0.  0.
        -11    1    3    3    0    0 -0.20849880762E+02 -0.22551085823E+02 -0.40477596073E+02  0.50810479071E+02  0.00000000000E+00 0.  1.
         11    1    3    3    0    0  0.57185457860E+02  0.50351618944E+02 -0.86632963390E+02  0.11537214771E+03  0.00000000000E+00 0. -1.
        -13    1    4    4    0    0 -0.19542976176E+02 -0.49334023383E+02  0.63454807713E+02  0.82718114116E+02  0.00000000000E+00 0.  1.
         13    1    4    4    0    0  0.27976811840E+01  0.36359647623E+02  0.12623238317E+02  0.38590117140E+02  0.00000000000E+00 0. -1.
          4    1    1    2  501    0 -0.19590282107E+02 -0.14826157362E+02  0.50793423427E+02  0.56423097740E+02  0.00000000000E+00 0. -1.
<scales pt_clust_5="13000.00000" pt_clust_6="13000.00000" pt_clust_7="13000.00000" pt_clust_8="13000.00000" pt_clust_9="24.56815"></scales>
<clustering>
<clus scale="   24.568">  1  9  2 -1</clus>
<clus scale="   92.082">  7  8 -1 -1</clus>
<clus scale="   96.780">  5  6 -1 -1</clus>
<clus scale="  101.080">  1  7  2 -1</clus>
<clus scale="   24.568">  1  5  2 -1</clus>
</clustering>
</event>
<event>
 9    1  0.1601012E-005  0.9769606E+02  0.7546771E-02  0.1286512E+00
          1   -1    0    0  502    0 -0.00000000000E+00  0.00000000000E+00  0.34468160736E+03  0.34468160736E+03  0.00000000000E+00 0. -1.
         21   -1    0    0  501  502  0.00000000000E+00 -0.00000000000E+00 -0.56085357608E+02  0.56085357608E+02  0.00000000000E+00 0.  1.
         23    2    1    2    0    0  0.30018517224E+02 -0.26204732407E+02  0.20064716851E+03  0.22371453374E+03  0.90559963532E+02 0.  0.
         23    2    1    2    0    0 -0.15477271866E+02  0.35799834438E+01  0.10805516991E+03  0.14347294517E+03  0.93038723262E+02 0.  0.
        -11    1    4    4    0    0  0.17203886265E+02 -0.37490066818E+02  0.55983927558E+02  0.69539046280E+02  0.00000000000E+00 0. -1.
         11    1    4    4    0    0 -0.32681158131E+02  0.41070050262E+02  0.52071242351E+02  0.73933898891E+02  0.00000000000E+00 0.  1.
        -11    1    3    3    0    0  0.22403126857E+02  0.32361908821E+02  0.69235137478E+02  0.79641054094E+02  0.00000000000E+00 0.  1.
         11    1    3    3    0    0  0.76153903662E+01 -0.58566641228E+02  0.13141203104E+03  0.14407347964E+03  0.00000000000E+00 0. -1.
          1    1    1    2  501    0 -0.14541245358E+02  0.22624748963E+02 -0.20106088674E+02  0.33579486059E+02  0.00000000000E+00 0. -1.
<scales pt_clust_5="13000.00000" pt_clust_6="13000.00000" pt_clust_7="13000.00000" pt_clust_8="13000.00000" pt_clust_9="26.89474"></scales>
<clustering>
<clus scale="   26.895">  2  9  1 -1</clus>
<clus scale="   90.560">  7  8 -1 -1</clus>
<clus scale="   93.039">  5  6 -1 -1</clus>
<clus scale="   95.338">  1  7  2 -1</clus>
<clus scale="   26.895">  2  5  1 -1</clus>
</clustering>
</event>
<event>
 9    1  0.1601012E-005  0.1009287E+03  0.7546771E-02  0.1279679E+00
          3   -1    0    0  502    0 -0.00000000000E+00  0.00000000000E+00  0.10886864966E+03  0.10886864966E+03  0.00000000000E+00 0. -1.
         21   -1    0    0  501  502  0.00000000000E+00 -0.00000000000E+00 -0.23168937016E+03  0.23168937016E+03  0.00000000000E+00 0.  1.
         23    2    1    2    0    0  0.25031716676E+02  0.30612538811E+02  0.61117019145E+02  0.11659947570E+03  0.91084759055E+02 0.  0.
         23    2    1    2    0    0 -0.28464409130E+02 -0.10239704926E+02 -0.11235676200E+03  0.14945571130E+03  0.93797086998E+02 0.  0.
        -11    1    3    3    0    0 -0.57258509806E+00  0.48375239385E+02  0.69173540436E+02  0.84412501062E+02  0.00000000000E+00 0. -1.
         11    1    3    3    0    0  0.25604301774E+02 -0.17762700574E+02 -0.80565212905E+01  0.32186974638E+02  0.00000000000E+00 0.  1.
        -13    1    4    4    0    0 -0.56562021883E+01 -0.48595450057E+02 -0.81995511120E+02  0.95481800534E+02  0.00000000000E+00 0.  1.
         13    1    4    4    0    0 -0.22808206941E+02  0.38355745131E+02 -0.30361250882E+02  0.53973910768E+02  0.00000000000E+00 0. -1.
          3    1    1    2  501    0  0.34326924536E+01 -0.20372833885E+02 -0.71580977644E+02  0.74502832822E+02  0.00000000000E+00 0. -1.
<scales pt_clust_5="13000.00000" pt_clust_6="13000.00000" pt_clust_7="13000.00000" pt_clust_8="13000.00000" pt_clust_9="20.66000"></scales>
<clustering>
<clus scale="   20.660">  2  9  1 -1</clus>
<clus scale="   91.085">  5  6 -1 -1</clus>
<clus scale="   93.797">  7  8 -1 -1</clus>
<clus scale="   98.413">  1  5  2 -1</clus>
<clus scale="   20.660">  2  5  1 -1</clus>
</clustering>
</event>
<event>
 9    1  0.2156154E-005  0.1067637E+03  0.7546771E-02  0.1267148E+00
         -1   -1    0    0    0  501 -0.00000000000E+00  0.00000000000E+00  0.18945005436E+03  0.18945005436E+03  0.00000000000E+00 0.  1.
         21   -1    0    0  501  502  0.00000000000E+00 -0.00000000000E+00 -0.40106842471E+03  0.40106842471E+03  0.00000000000E+00 0.  1.
         23    2    1    2    0    0  0.57868731337E+02  0.89011440346E+01  0.15543288332E+03  0.18902732189E+03  0.90243707654E+02 0.  0.
         23    2    1    2    0    0 -0.25443572856E+02 -0.12740688418E+02 -0.12591030241E+03  0.15814964536E+03  0.91368515005E+02 0.  0.
        -11    1    3    3    0    0  0.65123970250E+02  0.35510525085E+02  0.13719047126E+03  0.15595946364E+03  0.00000000000E+00 0.  1.
         11    1    3    3    0    0 -0.72552389132E+01 -0.26609381050E+02  0.18242412058E+02  0.33067858250E+02  0.00000000000E+00 0. -1.
        -13    1    4    4    0    0  0.19491754149E+02  0.24408096996E+02 -0.19526289307E+02  0.36836933272E+02  0.00000000000E+00 0. -1.
         13    1    4    4    0    0 -0.44935327005E+02 -0.37148785415E+02 -0.10638401311E+03  0.12131271209E+03  0.00000000000E+00 0.  1.
         -1    1    1    2    0  502 -0.32425158481E+02  0.38395443836E+01 -0.24114095126E+03  0.24334151182E+03  0.00000000000E+00 0.  1.
<scales pt_clust_5="13000.00000" pt_clust_6="13000.00000" pt_clust_7="13000.00000" pt_clust_8="13000.00000" pt_clust_9="32.65169"></scales>
<clustering>
<clus scale="   32.652">  2  9  1 -1</clus>
<clus scale="   90.244">  5  6 -1 -1</clus>
<clus scale="   91.369">  7  8 -1 -1</clus>
<clus scale="  105.803">  1  5  2 -1</clus>
<clus scale="   32.652">  2  5  1 -1</clus>
</clustering>
</event>
<event>
 9    1  0.1601012E-005  0.1326244E+03  0.7546771E-02  0.1224901E+00
         21   -1    0    0  501  502  0.00000000000E+00  0.00000000000E+00  0.28282363524E+03  0.28282363524E+03  0.00000000000E+00 0.  1.
         -1   -1    0    0    0  501 -0.00000000000E+00 -0.00000000000E+00 -0.30593325870E+03  0.30593325870E+03  0.00000000000E+00 0.  1.
         23    2    1    2    0    0 -0.94670584336E+02  0.55207907918E+02 -0.21082442957E+03  0.25396248446E+03  0.89663653599E+02 0.  0.
         23    2    1    2    0    0  0.69661537387E+02 -0.25917964822E+02 -0.27826274882E+02  0.11583936663E+03  0.84380013012E+02 0.  0.
        -11    1    4    4    0    0  0.80892862806E+01 -0.46388985626E+02 -0.16957466121E+02  0.50049277689E+02  0.00000000000E+00 0.  1.
         11    1    4    4    0    0  0.61572251106E+02  0.20471020804E+02 -0.10868808761E+02  0.65790088942E+02  0.00000000000E+00 0. -1.
        -11    1    3    3    0    0 -0.11183995058E+02  0.27083816071E+02 -0.13370967004E+03  0.13688276261E+03  0.00000000000E+00 0. -1.
         11    1    3    3    0    0 -0.83486589278E+02  0.28124091847E+02 -0.77114759529E+02  0.11707972185E+03  0.00000000000E+00 0.  1.
         -1    1    1    2    0  502  0.25009046949E+02 -0.29289943097E+02  0.21554108098E+03  0.21895504285E+03  0.00000000000E+00 0.  1.
<scales pt_clust_5="13000.00000" pt_clust_6="13000.00000" pt_clust_7="13000.00000" pt_clust_8="13000.00000" pt_clust_9="38.51432"></scales>
<clustering>
<clus scale="   38.514">  1  9  2 -1</clus>
<clus scale="   84.380">  5  6 -1 -1</clus>
<clus scale="   89.664">  7  8 -1 -1</clus>
<clus scale="  129.111">  1  5  2 -1</clus>
<clus scale="   38.514">  1  5  2 -1</clus>
</clustering>
</event>
<event>
 9    1  0.1601012E-005  0.9572276E+02  0.7546771E-02  0.1289641E+00
         21   -1    0    0  501  502  0.00000000000E+00  0.00000000000E+00  0.21756036760E+03  0.21756036760E+03  0.00000000000E+00 0. -1.
         -1   -1    0    0    0  501 -0.00000000000E+00 -0.00000000000E+00 -0.24059388123E+03  0.24059388123E+03  0.00000000000E+00 0.  1.
         23    2    1    2    0    0  0.15441072107E+02  0.21702352549E+02 -0.21147647452E+03  0.23193316515E+03  0.91440007696E+02 0.  0.
         23    2    1    2    0    0 -0.27394301633E+02 -0.39356731848E+02  0.16301045079E+03  0.19303419810E+03  0.91599096410E+02 0.  0.
        -13    1    3    3    0    0  0.29752436083E+02 -0.10027960798E+02 -0.19793580889E+02  0.37115405091E+02  0.00000000000E+00 0. -1.
         13    1    3    3    0    0 -0.14311363976E+02  0.31730313347E+02 -0.19168289363E+03  0.19481776006E+03  0.00000000000E+00 0.  1.
        -13    1    4    4    0    0 -0.33292789668E+02  0.20464731190E+02  0.38937456406E+02  0.55166480565E+02  0.00000000000E+00 0. -1.
         13    1    4    4    0    0  0.58984880345E+01 -0.59821463038E+02  0.12407299439E+03  0.13786771753E+03  0.00000000000E+00 0.  1.
         -1    1    1    2    0  502  0.11953229526E+02  0.17654379300E+02  0.25432510094E+02  0.33186885576E+02  0.00000000000E+00 0.  1.
<scales pt_clust_5="13000.00000" pt_clust_6="13000.00000" pt_clust_7="13000.00000" pt_clust_8="13000.00000" pt_clust_9="21.32034"></scales>
<clustering>
<clus scale="   21.320">  1  9  2 -1</clus>
<clus scale="   91.440">  5  6 -1 -1</clus>
<clus scale="   91.599">  7  8 -1 -1</clus>
<clus scale="   95.571">  2  5  1 -1</clus>
<clus scale="   21.320">  1  5  2 -1</clus>
</clustering>
</event>
<event>
 9    1  0.1638151E-005  0.9197500E+02  0.7546771E-02  0.1298745E+00
          2   -1    0    0  502    0 -0.00000000000E+00  0.00000000000E+00  0.28393156289E+03  0.28393156289E+03  0.00000000000E+00 0. -1.
         21   -1    0    0  501  502  0.00000000000E+00 -0.00000000000E+00 -0.16387975921E+03  0.16387975921E+03  0.00000000000E+00 0.  1.
         23    2    1    2    0    0 -0.10130121934E+02 -0.40778374621E+01  0.22867302412E+03  0.24651741750E+03  0.91434331863E+02 0.  0.
         23    2    1    2    0    0 -0.34149411474E+02  0.45602216318E+02 -0.54433764819E+02  0.11992295485E+03  0.90403185287E+02 0.  0.
        -11    1    3    3    0    0 -0.38803444640E+02  0.22686406048E+02  0.17072352396E+03  0.17654150212E+03  0.00000000000E+00 0.  1.
         11    1    3    3    0    0  0.28673322705E+02 -0.26764243510E+02  0.57949500152E+02  0.69975915382E+02  0.00000000000E+00 0. -1.
        -11    1    4    4    0    0 -0.44247707609E+02  0.46753221289E+01 -0.62781979215E+02  0.76949952436E+02  0.00000000000E+00 0.  1.
         11    1    4    4    0    0  0.10098296135E+02  0.40926894189E+02  0.83482143960E+01  0.42973002413E+02  0.00000000000E+00 0. -1.
          2    1    1    2  501    0  0.44279533408E+02 -0.41524378855E+02 -0.54187455619E+02  0.81370949758E+02  0.00000000000E+00 0. -1.
<scales pt_clust_5="13000.00000" pt_clust_6="13000.00000" pt_clust_7="13000.00000" pt_clust_8="13000.00000" pt_clust_9="60.70380"></scales>
<clustering>
<clus scale="   60.704">  2  9  1 -1</clus>
<clus scale="   90.403">  7  8 -1 -1</clus>
<clus scale="   90.950">  2  7  1 -1</clus>
<clus scale="   91.434">  5  6 -1 -1</clus>
<clus scale="   60.704">  2  5  1 -1</clus>
</clustering>
</event>
<event>
 9    1  0.1601012E-005  0.1072170E+03  0.7546771E-02  0.1271308E+00
         21   -1    0    0  501  502  0.00000000000E+00  0.00000000000E+00  0.30710775475E+02  0.30710775475E+02  0.00000000000E+00 0. -1.
         -2   -1    0    0    0  501 -0.00000000000E+00 -0.00000000000E+00 -0.71621206730E+03  0.71621206730E+03  0.00000000000E+00 0.  1.
         23    2    1    2    0    0 -0.31594998292E+02  0.51898967615E+02 -0.24603889419E+03  0.26493175162E+03  0.77213656871E+02 0.  0.
         23    2    1    2    0    0  0.75038159659E+02  0.29773133084E+00 -0.18938472215E+03  0.22285667154E+03  0.90375378381E+02 0.  0.
        -11    1    4    4    0    0  0.97145834311E+01 -0.28989474761E+02 -0.11747302809E+03  0.12138647003E+03  0.00000000000E+00 0.  1.
         11    1    4    4    0    0  0.65323576228E+02  0.29287206091E+02 -0.71911694063E+02  0.10147020151E+03  0.00000000000E+00 0. -1.
        -13    1    3    3    0    0  0.79266589794E+01  0.55530015985E+02 -0.11392870326E+03  0.12698883425E+03  0.00000000000E+00 0. -1.
         13    1    3    3    0    0 -0.39521657271E+02 -0.36310483694E+01 -0.13211019093E+03  0.13794291737E+03  0.00000000000E+00 0.  1.
         -2    1    1    2    0  502 -0.43443161368E+02 -0.52196698946E+02 -0.25007767549E+03  0.25913441961E+03  0.00000000000E+00 0.  1.
<scales pt_clust_5="13000.00000" pt_clust_6="13000.00000" pt_clust_7="13000.00000" pt_clust_8="13000.00000" pt_clust_9="67.91030"></scales>
<clustering>
<clus scale="   67.910">  1  9  2 -1</clus>
<clus scale="   77.214">  7  8 -1 -1</clus>
<clus scale="   90.375">  5  6 -1 -1</clus>
<clus scale="   96.383">  2  7  1 -1</clus>
<clus scale="   67.910">  1  5  2 -1</clus>
</clustering>
</event>
<event>
 9    1  0.1601012E-005  0.1139180E+03  0.7546771E-02  0.1254820E+00
         21   -1    0    0  501  502  0.00000000000E+00  0.00000000000E+00  0.15939808358E+03  0.15939808358E+03  0.00000000000E+00 0.  1.
          1   -1    0    0  502    0 -0.00000000000E+00 -0.00000000000E+00 -0.20941601893E+03  0.20941601893E+03  0.00000000000E+00 0. -1.
         23    2    1    2    0    0  0.63941913436E+02  0.74605255127E+01 -0.14888310066E+03  0.18704720275E+03  0.93146393707E+02 0.  0.
         23    2    1    2    0    0 -0.66618262498E+02 -0.36868460841E+02  0.57118020098E+02  0.13063165127E+03  0.89470016155E+02 0.  0.
        -13    1    3    3    0    0  0.38794214520E+02 -0.12937836729E+02 -0.14916107422E+03  0.15466546079E+03  0.00000000000E+00 0. -1.
         13    1    3    3    0    0  0.25147698917E+02  0.20398362242E+02  0.27797356281E+00  0.32381741958E+02  0.00000000000E+00 0.  1.
        -13    1    4    4    0    0 -0.53102186263E+02  0.48594777889E+01  0.67040029172E+02  0.85661089309E+02  0.00000000000E+00 0.  1.
         13    1    4    4    0    0 -0.13516076235E+02 -0.41727938630E+02 -0.99220090733E+01  0.44970561961E+02  0.00000000000E+00 0. -1.
          1    1    1    2  501    0  0.26763490613E+01  0.29407935328E+02  0.41747145213E+02  0.51135248489E+02  0.00000000000E+00 0. -1.
<scales pt_clust_5="13000.00000" pt_clust_6="13000.00000" pt_clust_7="13000.00000" pt_clust_8="13000.00000" pt_clust_9="29.52947"></scales>
<clustering>
<clus scale="   29.529">  1  9  2 -1</clus>
<clus scale="   89.470">  7  8 -1 -1</clus>
<clus scale="   93.146">  5  6 -1 -1</clus>
<clus scale="  110.932">  1  7  2 -1</clus>
<clus scale="   29.529">  1  5  2 -1</clus>
</clustering>
</event>
<event>
 9    1  0.1601012E-005  0.1126707E+03  0.7546771E-02  0.1256802E+00
          1   -1    0    0  502    0 -0.00000000000E+00  0.00000000000E+00  0.10621730711E+04  0.10621730711E+04  0.00000000000E+00 0. -1.
         21   -1    0    0  501  502  0.00000000000E+00 -0.00000000000E+00 -0.16896042935E+02  0.16896042935E+02  0.00000000000E+00 0.  1.
         23    2    1    2    0    0 -0.65085589784E+02 -0.30198419824E+02  0.60422651210E+03  0.61565757172E+03  0.93789600325E+02 0.  0.
         23    2    1    2    0    0  0.53022754334E+02 -0.44339724618E+01  0.31489926964E+03  0.33203783274E+03  0.90865283588E+02 0.  0.
        -13    1    3    3    0    0 -0.38913522773E+02 -0.63196720558E+02  0.43387564273E+03  0.44017742002E+03  0.00000000000E+00 0.  1.
         13    1    3    3    0    0 -0.26172067010E+02  0.32998300734E+02  0.17035086937E+03  0.17548015169E+03  0.00000000000E+00 0. -1.
        -13    1    4    4    0    0  0.18882971261E+02 -0.45260675074E+02  0.19092993010E+03  0.19712770865E+03  0.00000000000E+00 0.  1.
         13    1    4    4    0    0  0.34139783072E+02  0.40826702612E+02  0.12396933954E+03  0.13491012409E+03  0.00000000000E+00 0. -1.
          1    1    1    2  501    0  0.12062835450E+02  0.34632392286E+02  0.12615124646E+03  0.13137370961E+03  0.00000000000E+00 0. -1.
<scales pt_clust_5="13000.00000" pt_clust_6="13000.00000" pt_clust_7="13000.00000" pt_clust_8="13000.00000" pt_clust_9="36.67308"></scales>
<clustering>
<clus scale="   36.673">  2  9  1 -1</clus>
<clus scale="   90.865">  7  8 -1 -1</clus>
<clus scale="   93.790">  5  6 -1 -1</clus>
<clus scale="  110.248">  2  7  1 -1</clus>
<clus scale="   36.673">  2  5  1 -1</clus>
</clustering>
</event>
<event>
 9    1  0.1601012E-005  0.1533808E+03  0.7546771E-02  0.1197565E+00
          1   -1    0    0  502    0 -0.00000000000E+00  0.00000000000E+00  0.46262529174E+03  0.46262529174E+03  0.00000000000E+00 0. -1.
         21   -1    0    0  501  502  0.00000000000E+00 -0.00000000000E+00 -0.88240147126E+02  0.88240147126E+02  0.00000000000E+00 0.  1.
         23    2    1    2    0    0  0.14841039835E+03 -0.62554806640E+02  0.24378153105E+03  0.30800873807E+03  0.97474087199E+02 0.  0.
         23    2    1    2    0    0 -0.67497472000E+02  0.30272506405E+02  0.69405934310E+02  0.13639447977E+03  0.91180793063E+02 0.  0.
        -13    1    3    3    0    0  0.14292258553E+03 -0.41634923544E+02  0.14836793193E+03  0.21017463105E+03  0.00000000000E+00 0.  1.
         13    1    3    3    0    0  0.54878128155E+01 -0.20919883097E+02  0.95413599126E+02  0.97834107020E+02  0.00000000000E+00 0. -1.
        -13    1    4    4    0    0 -0.17836717737E+02 -0.30326152797E+02  0.38545329126E+02  0.52187799729E+02  0.00000000000E+00 0.  1.
         13    1    4    4    0    0 -0.49660754263E+02  0.60598659202E+02  0.30860605183E+02  0.84206680040E+02  0.00000000000E+00 0. -1.
          1    1    1    2  501    0 -0.80912926350E+02  0.32282300235E+02  0.61197679249E+02  0.10646222102E+03  0.00000000000E+00 0. -1.
<scales pt_clust_5="13000.00000" pt_clust_6="13000.00000" pt_clust_7="13000.00000" pt_clust_8="13000.00000" pt_clust_9="87.11515"></scales>
<clustering>
<clus scale="   87.115">  2  9  1 -1</clus>
<clus scale="   91.181">  7  8 -1 -1</clus>
<clus scale="   97.474">  5  6 -1 -1</clus>
<clus scale="  149.460">  2  7  1 -1</clus>
<clus scale="   87.115">  2  5  1 -1</clus>
</clustering>
</event>
<event>
 9    1  0.1601012E-005  0.1252151E+03  0.7546771E-02  0.1237542E+00
         21   -1    0    0  501  502  0.00000000000E+00  0.00000000000E+00  0.33820453307E+02  0.33820453307E+02  0.00000000000E+00 0.  1.
          2   -1    0    0  502    0 -0.00000000000E+00 -0.00000000000E+00 -0.89642235576E+03  0.89642235576E+03  0.00000000000E+00 0. -1.
         23    2    1    2    0    0  0.46488988554E+01  0.85086971423E+02 -0.64839235733E+03  0.66097564061E+03  0.95993455340E+02 0.  0.
         23    2    1    2    0    0 -0.12265183002E+01 -0.60236156845E+02 -0.79266624668E+02  0.13201241461E+03  0.86684375093E+02 0.  0.
        -11    1    3    3    0    0 -0.42648001469E+01 -0.20524247082E+02 -0.75212995268E+02  0.78079625356E+02  0.00000000000E+00 0.  1.
         11    1    3    3    0    0  0.89136990024E+01  0.10561121851E+03 -0.57317936207E+03  0.58289601526E+03  0.00000000000E+00 0. -1.
        -11    1    4    4    0    0  0.34842932947E+02 -0.60266413085E+00 -0.18020449594E+02  0.39231744595E+02  0.00000000000E+00 0. -1.
         11    1    4    4    0    0 -0.36069451247E+02 -0.59633492714E+02 -0.61246175074E+02  0.92780670011E+02  0.00000000000E+00 0.  1.
          2    1    1    2  501    0 -0.34223805553E+01 -0.24850814579E+02 -0.13494292045E+03  0.13725475385E+03  0.00000000000E+00 0. -1.
<scales pt_clust_5="13000.00000" pt_clust_6="13000.00000" pt_clust_7="13000.00000" pt_clust_8="13000.00000" pt_clust_9="25.08538"></scales>
<clustering>
<clus scale="   25.085">  1  9  2 -1</clus>
<clus scale="   86.684">  7  8 -1 -1</clus>
<clus scale="   95.993">  5  6 -1 -1</clus>
<clus scale="  118.230">  1  7  2 -1</clus>
<clus scale="   25.085">  1  5  2 -1</clus>
</clustering>
</event>
<event>
 9    1  0.1633194E-005  0.1249354E+03  0.7546771E-02  0.1235305E+00
         -4   -1    0    0    0  501 -0.00000000000E+00  0.00000000000E+00  0.46147495606E+03  0.46147495606E+03  0.00000000000E+00 0.  1.
         21   -1    0    0  501  502  0.00000000000E+00 -0.00000000000E+00 -0.31578897581E+03  0.31578897581E+03  0.00000000000E+00 0.  1.
         23    2    1    2    0    0  0.61526415733E+02 -0.60226471861E+02  0.42981304880E+03  0.44750355212E+03  0.90041348830E+02 0.  0.
         23    2    1    2    0    0 -0.76067538857E+02  0.45712392079E+02 -0.16092120967E+03  0.20485326852E+03  0.90517029586E+02 0.  0.
        -11    1    4    4    0    0 -0.21195084446E+01  0.43614129718E+02 -0.99648391832E+02  0.10879561858E+03  0.00000000000E+00 0.  1.
         11    1    4    4    0    0 -0.73948030413E+02  0.20982623613E+01 -0.61272817834E+02  0.96057649941E+02  0.00000000000E+00 0. -1.
        -13    1    3    3    0    0  0.52503349660E+02 -0.83680412462E+02  0.32270849725E+03  0.33749042557E+03  0.00000000000E+00 0.  1.
         13    1    3    3    0    0  0.90230660729E+01  0.23453940601E+02  0.10710455154E+03  0.11001312655E+03  0.00000000000E+00 0. -1.
         -4    1    1    2    0  502  0.14541123124E+02  0.14514079782E+02 -0.12320585888E+03  0.12490711123E+03  0.00000000000E+00 0.  1.
<scales pt_clust_5="13000.00000" pt_clust_6="13000.00000" pt_clust_7="13000.00000" pt_clust_8="13000.00000" pt_clust_9="20.54514"></scales>
<clustering>
<clus scale="   20.545">  2  9  1 -1</clus>
<clus scale="   90.041">  7  8 -1 -1</clus>
<clus scale="   90.517">  5  6 -1 -1</clus>
<clus scale="  124.591">  1  7  2 -1</clus>
<clus scale="   20.545">  2  5  1 -1</clus>
</clustering>
</event>
<event>
 9    1  0.1601012E-005  0.9829516E+02  0.7546771E-02  0.1284288E+00
         21   -1    0    0  501  502  0.00000000000E+00  0.00000000000E+00  0.14206143879E+03  0.14206143879E+03  0.00000000000E+00 0.  1.
          2   -1    0    0  502    0 -0.00000000000E+00 -0.00000000000E+00 -0.14641800259E+03  0.14641800259E+03  0.00000000000E+00 0. -1.
         23    2    1    2    0    0 -0.91411094123E+01  0.24323643996E+02 -0.92167319254E+02  0.13467173770E+03  0.94691407515E+02 0.  0.
         23    2    1    2    0    0 -0.10284696059E+02 -0.19056111105E+02  0.47472565397E+02  0.10872690513E+03  0.95388600422E+02 0.  0.
        -11    1    4    4    0    0 -0.31171146351E+01 -0.56973081783E+02  0.16939206114E+02  0.59519619918E+02  0.00000000000E+00 0.  1.
         11    1    4    4    0    0 -0.71675814237E+01  0.37916970678E+02  0.30533359283E+02  0.49207285212E+02  0.00000000000E+00 0. -1.
        -13    1    3    3    0    0 -0.35827515593E+02  0.43133040286E+02 -0.27996468816E+02  0.62672739720E+02  0.00000000000E+00 0.  1.
         13    1    3    3    0    0  0.26686406181E+02 -0.18809396289E+02 -0.64170850438E+02  0.71998997976E+02  0.00000000000E+00 0. -1.
          2    1    1    2  501    0  0.19425805471E+02 -0.52675328914E+01  0.40338190059E+02  0.45080798553E+02  0.00000000000E+00 0. -1.
<scales pt_clust_5="13000.00000" pt_clust_6="13000.00000" pt_clust_7="13000.00000" pt_clust_8="13000.00000" pt_clust_9="20.12732"></scales>
<clustering>
<clus scale="   20.127">  1  9  2 -1</clus>
<clus scale="   94.691">  7  8 -1 -1</clus>
<clus scale="   95.389">  5  6 -1 -1</clus>
<clus scale="   97.619">  2  7  1 -1</clus>
<clus scale="   20.127">  1  5  2 -1</clus>
</clustering>
</event>
<event>
 9    1  0.1601012E-005  0.1175491E+03  0.7546771E-02  0.1248020E+00
          2   -1    0    0  502    0 -0.00000000000E+00  0.00000000000E+00  0.30204869273E+03  0.30204869273E+03  0.00000000000E+00 0. -1.
         21   -1    0    0  501  502  0.00000000000E+00 -0.00000000000E+00 -0.13034774982E+03  0.13034774982E+03  0.00000000000E+00 0.  1.
         23    2    1    2    0    0 -0.42404371875E+02  0.43786254156E+02  0.15178136499E+03  0.18720747040E+03  0.91069684351E+02 0.  0.
         23    2    1    2    0    0  0.82789955532E+02 -0.44039577452E+02  0.92911238850E+02  0.16176929758E+03  0.93504792477E+02 0.  0.
        -13    1    3    3    0    0 -0.62975832911E+02  0.36407690541E+02  0.14816088032E+03  0.16505490577E+03  0.00000000000E+00 0.  1.
         13    1    3    3    0    0  0.20571461036E+02  0.73785636154E+01  0.36204846624E+01  0.22152564623E+02  0.00000000000E+00 0. -1.
        -13    1    4    4    0    0  0.47364984270E+02 -0.55917161091E+02  0.14205996678E+02  0.74645703031E+02  0.00000000000E+00 0.  1.
         13    1    4    4    0    0  0.35424971262E+02  0.11877583639E+02  0.78705242172E+02  0.87123594550E+02  0.00000000000E+00 0. -1.
          2    1    1    2  501    0 -0.40385583657E+02  0.25332329587E+00 -0.72991660930E+02  0.83419674570E+02  0.00000000000E+00 0. -1.
<scales pt_clust_5="13000.00000" pt_clust_6="13000.00000" pt_clust_7="13000.00000" pt_clust_8="13000.00000" pt_clust_9="40.38638"></scales>
<clustering>
<clus scale="   40.386">  2  9  1 -1</clus>
<clus scale="   91.070">  5  6 -1 -1</clus>
<clus scale="   93.505">  7  8 -1 -1</clus>
<clus scale="  115.622">  1  5  2 -1</clus>
<clus scale="   40.386">  2  5  1 -1</clus>
</clustering>
</event>
<event>
 9    1  0.1601012E-005  0.1024892E+03  0.7546771E-02  0.1276090E+00
         21   -1    0    0  501  502  0.00000000000E+00  0.00000000000E+00  0.12978098144E+03  0.12978098144E+03  0.00000000000E+00 0.  1.
         -1   -1    0    0    0  501 -0.00000000000E+00 -0.00000000000E+00 -0.27224058418E+03  0.27224058418E+03  0.00000000000E+00 0.  1.
         23    2    1    2    0    0 -0.43334063662E+02  0.29882989174E+02 -0.17665590314E+03  0.20520559428E+03  0.90173131773E+02 0.  0.
         23    2    1    2    0    0  0.29828499328E+02 -0.53927456113E+01 -0.49219028353E+02  0.10883705700E+03  0.92218063016E+02 0.  0.
        -11    1    3    3    0    0 -0.25715977416E+02  0.17510367746E+02 -0.18065020520E+03  0.18330963180E+03  0.00000000000E+00 0.  1.
         11    1    3    3    0    0 -0.17618086246E+02  0.12372621428E+02  0.39943020563E+01  0.21895962479E+02  0.00000000000E+00 0. -1.
        -13    1    4    4    0    0  0.32728668120E+02  0.27673426351E+02  0.71195175138E+01  0.43447344828E+02  0.00000000000E+00 0. -1.
         13    1    4    4    0    0 -0.29001687925E+01 -0.33066171962E+02 -0.56338545866E+02  0.65389712170E+02  0.00000000000E+00 0.  1.
         -1    1    1    2    0  502  0.13505564334E+02 -0.24490243562E+02  0.83415328752E+02  0.87978914341E+02  0.00000000000E+00 0.  1.
<scales pt_clust_5="13000.00000" pt_clust_6="13000.00000" pt_clust_7="13000.00000" pt_clust_8="13000.00000" pt_clust_9="27.96734"></scales>
<clustering>
<clus scale="   27.967">  1  9  2 -1</clus>
<clus scale="   90.173">  5  6 -1 -1</clus>
<clus scale="   92.218">  7  8 -1 -1</clus>
<clus scale="  100.653">  2  5  1 -1</clus>
<clus scale="   27.967">  1  5  2 -1</clus>
</clustering>
</event>
<event>
 9    1  0.1601012E-005  0.1651511E+03  0.7546771E-02  0.1183402E+00
         21   -1    0    0  501  502  0.00000000000E+00  0.00000000000E+00  0.57500159463E+03  0.57500159463E+03  0.00000000000E+00 0. -1.
          1   -1    0    0  502    0 -0.00000000000E+00 -0.00000000000E+00 -0.24250028785E+03  0.24250028785E+03  0.00000000000E+00 0. -1.
         23    2    1    2    0    0 -0.27939897043E+02  0.13807317920E+03 -0.18161456000E+03  0.24647455293E+03  0.89000090897E+02 0.  0.
         23    2    1    2    0    0 -0.52188649801E+02 -0.11717154045E+03  0.26331158320E+03  0.30690566974E+03  0.91680288008E+02 0.  0.
        -13    1    3    3    0    0  0.18746535252E+01  0.12021968418E+03 -0.17298836363E+03  0.21066860407E+03  0.00000000000E+00 0. -1.
         13    1    3    3    0    0 -0.29814550568E+02  0.17853495019E+02 -0.86261963643E+01  0.35805948859E+02  0.00000000000E+00 0.  1.
        -13    1    4    4    0    0 -0.68255543091E+02 -0.47777965907E+02  0.11126529691E+03  0.13900186864E+03  0.00000000000E+00 0. -1.
         13    1    4    4    0    0  0.16066893290E+02 -0.69393574548E+02  0.15204628629E+03  0.16790380110E+03  0.00000000000E+00 0.  1.
          1    1    1    2  501    0  0.80128546844E+02 -0.20901638743E+02  0.25080428358E+03  0.26412165981E+03  0.00000000000E+00 0. -1.
<scales pt_clust_5="13000.00000" pt_clust_6="13000.00000" pt_clust_7="13000.00000" pt_clust_8="13000.00000" pt_clust_9="82.80980"></scales>
<clustering>
<clus scale="   82.810">  1  9  2 -1</clus>
<clus scale="   89.000">  5  6 -1 -1</clus>
<clus scale="   91.680">  7  8 -1 -1</clus>
<clus scale="  163.678">  2  5  1 -1</clus>
<clus scale="   82.810">  1  5  2 -1</clus>
</clustering>
</event>
<event>
 9    1  0.1601012E-005  0.9528270E+02  0.7546771E-02  0.1291940E+00
          1   -1    0    0  502    0 -0.00000000000E+00  0.00000000000E+00  0.26880114373E+03  0.26880114373E+03  0.00000000000E+00 0. -1.
         21   -1    0    0  501  502  0.00000000000E+00 -0.00000000000E+00 -0.92961129646E+02  0.92961129646E+02  0.00000000000E+00 0. -1.
         23    2    1    2    0    0  0.38210246220E+02 -0.99466327983E+01  0.14979041077E+03  0.17894672769E+03  0.89586861598E+02 0.  0.
         23    2    1    2    0    0 -0.27610981914E+01 -0.13552845480E+02  0.73811644137E+02  0.11886181149E+03  0.92133968422E+02 0.  0.
        -13    1    4    4    0    0  0.23574888503E+02 -0.35139532767E+02  0.73497070935E+02  0.84807909815E+02  0.00000000000E+00 0.  1.
         13    1    4    4    0    0 -0.26335986695E+02  0.21586687287E+02  0.31457320191E+00  0.34053901678E+02  0.00000000000E+00 0. -1.
        -13    1    3    3    0    0  0.43909472655E+02  0.32780136676E+02  0.83475585527E+02  0.99853655558E+02  0.00000000000E+00 0. -1.
         13    1    3    3    0    0 -0.56992264348E+01 -0.42726769474E+02  0.66314825242E+02  0.79093072127E+02  0.00000000000E+00 0.  1.
          1    1    1    2  501    0 -0.35449148028E+02  0.23499478279E+02 -0.47762040818E+02  0.63953734202E+02  0.00000000000E+00 0. -1.
<scales pt_clust_5="13000.00000" pt_clust_6="13000.00000" pt_clust_7="13000.00000" pt_clust_8="13000.00000" pt_clust_9="42.53078"></scales>
<clustering>
<clus scale="   42.531">  2  9  1 -1</clus>
<clus scale="   89.587">  7  8 -1 -1</clus>
<clus scale="   92.134">  5  6 -1 -1</clus>
<clus scale="   92.822">  1  7  2 -1</clus>
<clus scale="   42.531">  2  5  1 -1</clus>
</clustering>
</event>
<event>
 9    1  0.1601012E-005  0.1041020E+03  0.7546771E-02  0.1272638E+00
         21   -1    0    0  501  502  0.00000000000E+00  0.00000000000E+00  0.27250303826E+03  0.27250303826E+03  0.00000000000E+00 0.  1.
          2   -1    0    0  502    0 -0.00000000000E+00 -0.00000000000E+00 -0.70489825654E+02  0.70489825654E+02  0.00000000000E+00 0. -1.
         23    2    1    2    0    0  0.29151184461E+02  0.65216057635E+02  0.45656980506E+02  0.12554135626E+03  0.92591287574E+02 0.  0.
         23    2    1    2    0    0  0.59798895481E+01 -0.19047871776E+02  0.95308040549E+02  0.13323407811E+03  0.90934682484E+02 0.  0.
        -11    1    3    3    0    0  0.46936452556E+02 -0.12075768932E+01  0.27533638061E+02  0.54429679820E+02  0.00000000000E+00 0. -1.
         11    1    3    3    0    0 -0.17785268095E+02  0.66423634528E+02  0.18123342445E+02  0.71111676443E+02  0.00000000000E+00 0.  1.
        -13    1    4    4    0    0 -0.33709230886E+02  0.15723061728E+02  0.23042772276E+02  0.43754957104E+02  0.00000000000E+00 0. -1.
         13    1    4    4    0    0  0.39689120434E+02 -0.34770933504E+02  0.72265268272E+02  0.89479121006E+02  0.00000000000E+00 0.  1.
          2    1    1    2  501    0 -0.35131074009E+02 -0.46168185859E+02  0.61048191549E+02  0.84217429538E+02  0.00000000000E+00 0. -1.
<scales pt_clust_5="13000.00000" pt_clust_6="13000.00000" pt_clust_7="13000.00000" pt_clust_8="13000.00000" pt_clust_9="58.01460"></scales>
<clustering>
<clus scale="   58.015">  1  9  2 -1</clus>
<clus scale="   90.935">  7  8 -1 -1</clus>
<clus scale="   92.591">  5  6 -1 -1</clus>
<clus scale="  102.631">  1  7  2 -1</clus>
<clus scale="   58.015">  1  5  2 -1</clus>
</clustering>
</event>
<event>
 9    1  0.1601012E-005  0.9336151E+02  0.7546771E-02  0.1295281E+00
         -3   -1    0    0    0  501 -0.00000000000E+00  0.00000000000E+00  0.46691753126E+03  0.46691753126E+03  0.00000000000E+00 0.  1.
         21   -1    0    0  501  502  0.00000000000E+00 -0.00000000000E+00 -0.10565030922E+03  0.10565030922E+03  0.00000000000E+00 0.  1.
         23    2    1    2    0    0  0.89773285217E+01  0.15561153020E+02  0.34499894335E+03  0.35685378545E+03  0.89429365256E+02 0.  0.
         23    2    1    2    0    0 -0.38904292169E+02 -0.65835168471E+02  0.69831633362E+02  0.13639109022E+03  0.88759557889E+02 0.  0.
        -13    1    3    3    0    0 -0.23641996054E+02 -0.26469294687E+02  0.18080570485E+03  0.18425599161E+03  0.00000000000E+00 0. -1.
         13    1    3    3    0    0  0.32619324576E+02  0.42030447707E+02  0.16419323850E+03  0.17259779384E+03  0.00000000000E+00 0.  1.
        -13    1    4    4    0    0  0.11604594857E+02 -0.16569576430E+02 -0.15632359291E+02  0.25565369974E+02  0.00000000000E+00 0. -1.
         13    1    4    4    0    0 -0.50508887027E+02 -0.49265592040E+02  0.85463992654E+02  0.11082572025E+03  0.00000000000E+00 0.  1.
         -3    1    1    2    0  502  0.29926963648E+02  0.50274015450E+02 -0.53563354672E+02  0.79322964811E+02  0.00000000000E+00 0.  1.
<scales pt_clust_5="13000.00000" pt_clust_6="13000.00000" pt_clust_7="13000.00000" pt_clust_8="13000.00000" pt_clust_9="58.50726"></scales>
<clustering>
<clus scale="   58.507">  2  9  1 -1</clus>
<clus scale="   88.760">  7  8 -1 -1</clus>
<clus scale="   89.429">  5  6 -1 -1</clus>
<clus scale="   92.720">  2  7  1 -1</clus>
<clus scale="   58.507">  2  5  1 -1</clus>
</clustering>
</event>
<event>
 9    1  0.1601012E-005  0.1234855E+03  0.7546771E-02  0.1238181E+00
          1   -1    0    0  502    0 -0.00000000000E+00  0.00000000000E+00  0.88317801719E+02  0.88317801719E+02  0.00000000000E+00 0. -1.
         21   -1    0    0  501  502  0.00000000000E+00 -0.00000000000E+00 -0.24046130943E+03  0.24046130943E+03  0.00000000000E+00 0.  1.
         23    2    1    2    0    0 -0.14471924123E+02 -0.71592783553E+02 -0.23385598406E+02  0.11912335556E+03  0.91151107413E+02 0.  0.
         23    2    1    2    0    0 -0.39976576552E+01  0.96167738934E+02 -0.98242382169E+02  0.16634003928E+03  0.93558686042E+02 0.  0.
        -13    1    4    4    0    0 -0.24888352689E+02  0.55011524702E+01 -0.61017840981E+02  0.66127677232E+02  0.00000000000E+00 0.  1.
         13    1    4    4    0    0  0.20890695034E+02  0.90666586464E+02 -0.37224541188E+02  0.10021236205E+03  0.00000000000E+00 0. -1.
        -13    1    3    3    0    0 -0.32356738155E+02 -0.97185079070E+01 -0.40245223078E+02  0.52546035821E+02  0.00000000000E+00 0.  1.
         13    1    3    3    0    0  0.17884814031E+02 -0.61874275646E+02  0.16859624672E+02  0.66577319739E+02  0.00000000000E+00 0. -1.
          1    1    1    2  501    0  0.18469581779E+02 -0.24574955381E+02 -0.30515527134E+02  0.43315716308E+02  0.00000000000E+00 0. -1.
<scales pt_clust_5="13000.00000" pt_clust_6="13000.00000" pt_clust_7="13000.00000" pt_clust_8="13000.00000" pt_clust_9="30.74173"></scales>
<clustering>
<clus scale="   30.742">  2  9  1 -1</clus>
<clus scale="   91.151">  7  8 -1 -1</clus>
<clus scale="   93.559">  5  6 -1 -1</clus>
<clus scale="  121.672">  1  7  2 -1</clus>
<clus scale="   30.742">  2  5  1 -1</clus>
</clustering>
</event>
<event>
 9    1  0.1601012E-005  0.1006533E+03  0.7546771E-02  0.1279291E+00
         -2   -1    0    0    0  501 -0.00000000000E+00  0.00000000000E+00  0.44911699823E+02  0.44911699823E+02  0.00000000000E+00 0.  1.
         21   -1    0    0  501  502  0.00000000000E+00 -0.00000000000E+00 -0.50808668616E+03  0.50808668616E+03  0.00000000000E+00 0. -1.
         23    2    1    2    0    0  0.20720054414E+02 -0.35449297251E+02 -0.51477878305E+02  0.11300901481E+03  0.91842757711E+02 0.  0.
         23    2    1    2    0    0 -0.53764292135E+02  0.10472082465E+02 -0.22622018238E+03  0.24994339553E+03  0.91081647085E+02 0.  0.
        -11    1    4    4    0    0 -0.32872336155E+02 -0.38646332633E+02 -0.85237417880E+02  0.99194490357E+02  0.00000000000E+00 0.  1.
         11    1    4    4    0    0 -0.20891955980E+02  0.49118415098E+02 -0.14098276450E+03  0.15074890518E+03  0.00000000000E+00 0. -1.
        -11    1    3    3    0    0  0.54646338235E+02 -0.84005810260E+01 -0.39651257528E+02  0.68036859625E+02  0.00000000000E+00 0. -1.
         11    1    3    3    0    0 -0.33926283821E+02 -0.27048716225E+02 -0.11826620777E+02  0.44972155189E+02  0.00000000000E+00 0.  1.
         -2    1    1    2    0  502  0.33044237721E+02  0.24977214787E+02 -0.18547692566E+03  0.19004597564E+03  0.00000000000E+00 0.  1.
<scales pt_clust_5="13000.00000" pt_clust_6="13000.00000" pt_clust_7="13000.00000" pt_clust_8="13000.00000" pt_clust_9="41.42201"></scales>
<clustering>
<clus scale="   41.422">  2  9  1 -1</clus>
<clus scale="   91.082">  5  6 -1 -1</clus>
<clus scale="   91.843">  7  8 -1 -1</clus>
<clus scale="   99.959">  2  5  1 -1</clus>
<clus scale="   41.422">  2  5  1 -1</clus>
</clustering>
</event>
<event>
 9    1  0.1601012E-005  0.1187392E+03  0.7546771E-02  0.1249174E+00
          1   -1    0    0  502    0 -0.00000000000E+00  0.00000000000E+00  0.14102615248E+03  0.14102615248E+03  0.00000000000E+00 0. -1.
         21   -1    0    0  501  502  0.00000000000E+00 -0.00000000000E+00 -0.40328141160E+03  0.40328141160E+03  0.00000000000E+00 0. -1.
         23    2    1    2    0    0 -0.12100469873E+01  0.57512877228E+02  0.93718824079E+02  0.15210910425E+03  0.10509408332E+03 0.  0.
         23    2    1    2    0    0 -0.46302175989E+02 -0.35926117030E+02 -0.22038518477E+03  0.24691339891E+03  0.94667943404E+02 0.  0.
        -11    1    4    4    0    0 -0.30589597206E+02  0.29911409822E+02 -0.10075281931E+03  0.10946025075E+03  0.00000000000E+00 0. -1.
         11    1    4    4    0    0 -0.15712578784E+02 -0.65837526852E+02 -0.11963236546E+03  0.13745314816E+03  0.00000000000E+00 0.  1.
        -13    1    3    3    0    0  0.13026902051E+02  0.85157964845E+02  0.81830400159E+02  0.11881832158E+03  0.00000000000E+00 0. -1.
         13    1    3    3    0    0 -0.14236949038E+02 -0.27645087617E+02  0.11888423920E+02  0.33290782667E+02  0.00000000000E+00 0.  1.
          1    1    1    2  501    0  0.47512222977E+02 -0.21586760198E+02 -0.13558889844E+03  0.14528506092E+03  0.00000000000E+00 0. -1.
<scales pt_clust_5="13000.00000" pt_clust_6="13000.00000" pt_clust_7="13000.00000" pt_clust_8="13000.00000" pt_clust_9="52.18620"></scales>
<clustering>
<clus scale="   52.186">  2  9  1 -1</clus>
<clus scale="   94.668">  5  6 -1 -1</clus>
<clus scale="  105.094">  7  8 -1 -1</clus>
<clus scale="  109.619">  2  5  1 -1</clus>
<clus scale="   52.186">  2  5  1 -1</clus>
</clustering>
</event>
<event>
 9    1  0.1601012E-005  0.9570055E+02  0.7546771E-02  0.1292153E+00
         21   -1    0    0  501  502  0.00000000000E+00  0.00000000000E+00  0.64072479265E+02  0.64072479265E+02  0.00000000000E+00 0.  1.
         -2   -1    0    0    0  501 -0.00000000000E+00 -0.00000000000E+00 -0.51175367177E+03  0.51175367177E+03  0.00000000000E+00 0.  1.
         23    2    1    2    0    0 -0.38098927673E+01  0.72722900880E+00 -0.23806908259E+03  0.25396409665E+03  0.88350609275E+02 0.  0.
         23    2    1    2    0    0 -0.75939808567E+02  0.22345953447E+02 -0.20514291901E+03  0.23872144891E+03  0.92941469698E+02 0.  0.
        -11    1    3    3    0    0 -0.21629528897E+02 -0.33295112466E+02 -0.61040057090E+02  0.72816822259E+02  0.00000000000E+00 0.  1.
         11    1    3    3    0    0  0.17819636130E+02  0.34022341475E+02 -0.17702902550E+03  0.18114727439E+03  0.00000000000E+00 0. -1.
        -11    1    4    4    0    0 -0.78243082314E+02  0.49866218549E+02 -0.13986006441E+03  0.16783759203E+03  0.00000000000E+00 0.  1.
         11    1    4    4    0    0  0.23032737476E+01 -0.27520265102E+02 -0.65282854599E+02  0.70883856877E+02  0.00000000000E+00 0. -1.
         -2    1    1    2    0  502  0.79749701334E+02 -0.23073182456E+02 -0.44691909123E+01  0.83140605476E+02  0.00000000000E+00 0.  1.
<scales pt_clust_5="13000.00000" pt_clust_6="13000.00000" pt_clust_7="13000.00000" pt_clust_8="13000.00000" pt_clust_9="83.02040"></scales>
<clustering>
<clus scale="   83.020">  1  9  2 -1</clus>
<clus scale="   88.351">  5  6 -1 -1</clus>
<clus scale="   91.249">  2  5  1 -1</clus>
<clus scale="   92.941">  7  8 -1 -1</clus>
<clus scale="   83.020">  1  5  2 -1</clus>
</clustering>
</event>
<event>
 9    1  0.1601012E-005  0.1603925E+03  0.7546771E-02  0.1188909E+00
         21   -1    0    0  501  502  0.00000000000E+00  0.00000000000E+00  0.89777764748E+02  0.89777764748E+02  0.00000000000E+00 0. -1.
          2   -1    0    0  502    0 -0.00000000000E+00 -0.00000000000E+00 -0.99598509246E+03  0.99598509246E+03  0.00000000000E+00 0. -1.
         23    2    1    2    0    0  0.15222009977E+03  0.63752570404E+02 -0.68691846986E+03  0.71221285236E+03  0.90304007778E+02 0.  0.
         23    2    1    2    0    0 -0.85967744555E+02  0.51575188341E+02 -0.19448384171E+03  0.23825345895E+03  0.94288349533E+02 0.  0.
        -11    1    3    3    0    0  0.43644568631E+02 -0.20007706120E+02 -0.12772189220E+03  0.13644793301E+03  0.00000000000E+00 0.  1.
         11    1    3    3    0    0  0.10857553114E+03  0.83760276525E+02 -0.55919657766E+03  0.57576491935E+03  0.00000000000E+00 0. -1.
        -13    1    4    4    0    0 -0.70666287312E+02 -0.83885259477E+01 -0.73179199718E+02  0.10207490780E+03  0.00000000000E+00 0. -1.
         13    1    4    4    0    0 -0.15301457243E+02  0.59963714288E+02 -0.12130464199E+03  0.13617855115E+03  0.00000000000E+00 0.  1.
          2    1    1    2  501    0 -0.66252355213E+02 -0.11532775874E+03 -0.24805016145E+02  0.13529654591E+03  0.00000000000E+00 0. -1.
<scales pt_clust_5="13000.00000" pt_clust_6="13000.00000" pt_clust_7="13000.00000" pt_clust_8="13000.00000" pt_clust_9="133.00326"></scales>
<clustering>
<clus scale="   90.304">  5  6 -1 -1</clus>
<clus scale="   94.288">  7  8 -1 -1</clus>
<clus scale="  133.003">  1  9  2 -1</clus>
<clus scale="  158.083">  2  5  1 -1</clus>
<clus scale="  133.003">  1  5  2 -1</clus>
</clustering>
</event>
<event>
 9    1  0.1601012E-005  0.1195869E+03  0.7546771E-02  0.1244995E+00
         21   -1    0    0  501  502  0.00000000000E+00  0.00000000000E+00  0.98517305246E+02  0.98517305246E+02  0.00000000000E+00 0. -1.
          2   -1    0    0  502    0 -0.00000000000E+00 -0.00000000000E+00 -0.51907338132E+03  0.51907338132E+03  0.00000000000E+00 0. -1.
         23    2    1    2    0    0 -0.82685463207E+02  0.26298874604E+02 -0.38113640234E+03  0.40194823040E+03  0.93642437492E+02 0.  0.
         23    2    1    2    0    0  0.38439962643E+02 -0.33831423788E+02 -0.97545541960E+02  0.14220527093E+03  0.89916685658E+02 0.  0.
        -13    1    4    4    0    0  0.23102682244E+02  0.40061181494E+01  0.11246038241E+02  0.26004928102E+02  0.00000000000E+00 0.  1.
         13    1    4    4    0    0  0.15337280399E+02 -0.37837541937E+02 -0.10879158020E+03  0.11620034282E+03  0.00000000000E+00 0. -1.
        -13    1    3    3    0    0 -0.51278900260E+02 -0.16276220668E+02 -0.81360316715E+02  0.97539438726E+02  0.00000000000E+00 0.  1.
         13    1    3    3    0    0 -0.31406562947E+02  0.42575095273E+02 -0.29977608563E+03  0.30440879167E+03  0.00000000000E+00 0. -1.
          2    1    1    2  501    0  0.44245500564E+02  0.75325491835E+01  0.58125868233E+02  0.73437185235E+02  0.00000000000E+00 0. -1.
<scales pt_clust_5="13000.00000" pt_clust_6="13000.00000" pt_clust_7="13000.00000" pt_clust_8="13000.00000" pt_clust_9="44.88211"></scales>
<clustering>
<clus scale="   44.882">  1  9  2 -1</clus>
<clus scale="   89.917">  5  6 -1 -1</clus>
<clus scale="   93.642">  7  8 -1 -1</clus>
<clus scale="  116.693">  1  5  2 -1</clus>
<clus scale="   44.882">  1  5  2 -1</clus>
</clustering>
</event>
<event>
 9    1  0.1601012E-005  0.1149203E+03  0.7546771E-02  0.1251878E+00
          2   -1    0    0  502    0 -0.00000000000E+00  0.00000000000E+00  0.41000994374E+02  0.41000994374E+02  0.00000000000E+00 0. -1.
         21   -1    0    0  501  502  0.00000000000E+00 -0.00000000000E+00 -0.48581881733E+03  0.48581881733E+03  0.00000000000E+00 0. -1.
         23    2    1    2    0    0  0.45005074265E+02 -0.35645836030E+02 -0.14459898814E+03  0.18046743237E+03  0.91452416253E+02 0.  0.
         23    2    1    2    0    0 -0.80786221815E+02  0.28982256302E+02 -0.16949067123E+03  0.21065217090E+03  0.90999256347E+02 0.  0.
        -11    1    4    4    0    0 -0.30566129319E+02  0.53517803996E+02 -0.52364885521E+02  0.80873511373E+02  0.00000000000E+00 0. -1.
         11    1    4    4    0    0 -0.50220092496E+02 -0.24535547694E+02 -0.11712578571E+03  0.12977865953E+03  0.00000000000E+00 0.  1.
        -11    1    3    3    0    0  0.15914674241E+02  0.31170500870E+02 -0.43200867412E+02  0.55598488521E+02  0.00000000000E+00 0.  1.
         11    1    3    3    0    0  0.29090400024E+02 -0.66816336900E+02 -0.10139812073E+03  0.12486894385E+03  0.00000000000E+00 0. -1.
          2    1    1    2  501    0  0.35781147550E+02  0.66635797284E+01 -0.13072816358E+03  0.13570020843E+03  0.00000000000E+00 0. -1.
<scales pt_clust_5="13000.00000" pt_clust_6="13000.00000" pt_clust_7="13000.00000" pt_clust_8="13000.00000" pt_clust_9="36.39634"></scales>
<clustering>
<clus scale="   36.396">  2  9  1 -1</clus>
<clus scale="   90.999">  5  6 -1 -1</clus>
<clus scale="   91.452">  7  8 -1 -1</clus>
<clus scale="  114.560">  2  5  1 -1</clus>
<clus scale="   36.396">  2  5  1 -1</clus>
</clustering>
</event>
<event>
 9    1  0.1601012E-005  0.1112929E+03  0.7546771E-02  0.1258436E+00
          1   -1    0    0  502    0 -0.00000000000E+00  0.00000000000E+00  0.23911983160E+03  0.23911983160E+03  0.00000000000E+00 0. -1.
         21   -1    0    0  501  502  0.00000000000E+00 -0.00000000000E+00 -0.16703717331E+03  0.16703717331E+03  0.00000000000E+00 0. -1.
         23    2    1    2    0    0 -0.23596902422E+02  0.31731452291E+02  0.84799356427E+02  0.13072493033E+03  0.91292812921E+02 0.  0.
         23    2    1    2    0    0  0.10650869026E+03 -0.85392592834E+02  0.32090016030E+02  0.16698151349E+03  0.90648004432E+02 0.  0.
        -13    1    4    4    0    0  0.28920385144E+02 -0.21270542031E+02 -0.31634714691E+02  0.47849553904E+02  0.00000000000E+00 0.  1.
         13    1    4    4    0    0  0.77588305116E+02 -0.64122050803E+02  0.63724730721E+02  0.11913195959E+03  0.00000000000E+00 0. -1.
        -13    1    3    3    0    0 -0.26931432321E+02 -0.25285251475E+02  0.13408866871E+02  0.39299410934E+02  0.00000000000E+00 0.  1.
         13    1    3    3    0    0  0.33345298990E+01  0.57016703765E+02  0.71390489555E+02  0.91425519396E+02  0.00000000000E+00 0. -1.
          1    1    1    2  501    0 -0.82911787839E+02  0.53661140543E+02 -0.44806714166E+02  0.10845056109E+03  0.00000000000E+00 0. -1.
<scales pt_clust_5="13000.00000" pt_clust_6="13000.00000" pt_clust_7="13000.00000" pt_clust_8="13000.00000" pt_clust_9="98.76175"></scales>
<clustering>
<clus scale="   90.648">  5  6 -1 -1</clus>
<clus scale="   91.293">  7  8 -1 -1</clus>
<clus scale="   98.762">  2  9  1 -1</clus>
<clus scale="  110.765">  2  5  1 -1</clus>
<clus scale="   98.762">  2  5  1 -1</clus>
</clustering>
</event>
<event>
 9    1  0.1601012E-005  0.1605975E+03  0.7546771E-02  0.1206938E+00
         21   -1    0    0  501  502  0.00000000000E+00  0.00000000000E+00  0.60932503508E+02  0.60932503508E+02  0.00000000000E+00 0. -1.
         -3   -1    0    0    0  501 -0.00000000000E+00 -0.00000000000E+00 -0.84867687844E+03  0.84867687844E+03  0.00000000000E+00 0.  1.
         23    2    1    2    0    0 -0.21412002719E+02 -0.44297150676E+02 -0.23540244029E+03  0.25829186250E+03  0.94231979293E+02 0.  0.
         23    2    1    2    0    0 -0.11299935420E+03  0.51729857136E+02 -0.46663437382E+03  0.49173229464E+03  0.92780270502E+02 0.  0.
        -11    1    3    3    0    0  0.44295009237E-01  0.23314897798E+02 -0.12435682907E+03  0.12652354468E+03  0.00000000000E+00 0.  1.
         11    1    3    3    0    0 -0.21456297728E+02 -0.67612048474E+02 -0.11104561123E+03  0.13176831783E+03  0.00000000000E+00 0. -1.
        -11    1    4    4    0    0  0.70837809375E+01  0.32502602132E+02 -0.90026373441E+02  0.95975762631E+02  0.00000000000E+00 0.  1.
         11    1    4    4    0    0 -0.12008313514E+03  0.19227255004E+02 -0.37660800038E+03  0.39575653201E+03  0.00000000000E+00 0. -1.
         -3    1    1    2    0  502  0.13441135692E+03 -0.74327064600E+01 -0.85707560825E+02  0.15958522481E+03  0.00000000000E+00 0.  1.
<scales pt_clust_5="13000.00000" pt_clust_6="13000.00000" pt_clust_7="13000.00000" pt_clust_8="13000.00000" pt_clust_9="131.08534"></scales>
<clustering>
<clus scale="   92.780">  7  8 -1 -1</clus>
<clus scale="   94.232">  5  6 -1 -1</clus>
<clus scale="  106.303">  2  5  1 -1</clus>
<clus scale="  131.085">  1  9  2 -1</clus>
<clus scale="  131.085">  1  5  2 -1</clus>
</clustering>
</event>
<event>
 9    1  0.1601012E-005  0.1014707E+03  0.7546771E-02  0.1282671E+00
          2   -1    0    0  502    0 -0.00000000000E+00  0.00000000000E+00  0.56609654248E+03  0.56609654248E+03  0.00000000000E+00 0. -1.
         21   -1    0    0  501  502  0.00000000000E+00 -0.00000000000E+00 -0.59826182937E+02  0.59826182937E+02  0.00000000000E+00 0.  1.
         23    2    1    2    0    0  0.39073997544E+02  0.24740171628E+02  0.41572394230E+03  0.42559699312E+03  0.78533756913E+02 0.  0.
         23    2    1    2    0    0 -0.71548344951E+02  0.19974868056E+02  0.34602073399E+02  0.12168866965E+03  0.89959256439E+02 0.  0.
        -13    1    3    3    0    0  0.15352751369E+02  0.52436369439E+02  0.25512224660E+03  0.26090734088E+03  0.00000000000E+00 0.  1.
         13    1    3    3    0    0  0.23721246175E+02 -0.27696197811E+02  0.16060169570E+03  0.16468965224E+03  0.00000000000E+00 0. -1.
        -13    1    4    4    0    0 -0.64954872316E+02  0.50457276715E+02  0.11883933507E+02  0.83104152042E+02  0.00000000000E+00 0.  1.
         13    1    4    4    0    0 -0.65934726351E+01 -0.30482408659E+02  0.22718139892E+02  0.38584517610E+02  0.00000000000E+00 0. -1.
          2    1    1    2  501    0  0.32474347407E+02 -0.44715039684E+02  0.55944343849E+02  0.78637062649E+02  0.00000000000E+00 0. -1.
<scales pt_clust_5="13000.00000" pt_clust_6="13000.00000" pt_clust_7="13000.00000" pt_clust_8="13000.00000" pt_clust_9="55.26317"></scales>
<clustering>
<clus scale="   55.263">  2  9  1 -1</clus>
<clus scale="   78.534">  5  6 -1 -1</clus>
<clus scale="   89.959">  7  8 -1 -1</clus>
<clus scale="   91.494">  1  5  2 -1</clus>
<clus scale="   55.263">  2  5  1 -1</clus>
</clustering>
</event>
<event>
 9    1  0.1601012E-005  0.1032645E+03  0.7546771E-02  0.1276150E+00
          3   -1    0    0  502    0 -0.00000000000E+00  0.00000000000E+00  0.15628487307E+03  0.15628487307E+03  0.00000000000E+00 0. -1.
         21   -1    0    0  501  502  0.00000000000E+00 -0.00000000000E+00 -0.22423072015E+03  0.22423072015E+03  0.00000000000E+00 0. -1.
         23    2    1    2    0    0  0.50500041424E+02 -0.80906671582E+01  0.90409454393E+02  0.13792662260E+03  0.90742331350E+02 0.  0.
         23    2    1    2    0    0  0.74513073462E+01  0.23663690996E+02 -0.34710547703E+02  0.10515206499E+03  0.96107452351E+02 0.  0.
        -11    1    4    4    0    0 -0.42740187095E+02  0.46637082226E+01 -0.36597976479E+01  0.43149367158E+02  0.00000000000E+00 0.  1.
         11    1    4    4    0    0  0.50191494442E+02  0.18999982773E+02 -0.31050750055E+02  0.62002697834E+02  0.00000000000E+00 0. -1.
        -13    1    3    3    0    0  0.65986179092E+02  0.11676721861E+02  0.90753924955E+02  0.11281310455E+03  0.00000000000E+00 0. -1.
         13    1    3    3    0    0 -0.15486137668E+02 -0.19767389020E+02 -0.34447056179E+00  0.25113518043E+02  0.00000000000E+00 0.  1.
          3    1    1    2  501    0 -0.57951348770E+02 -0.15573023838E+02 -0.12364475377E+03  0.13743690564E+03  0.00000000000E+00 0. -1.
<scales pt_clust_5="13000.00000" pt_clust_6="13000.00000" pt_clust_7="13000.00000" pt_clust_8="13000.00000" pt_clust_9="60.00732"></scales>
<clustering>
<clus scale="   60.007">  2  9  1 -1</clus>
<clus scale="   90.742">  7  8 -1 -1</clus>
<clus scale="   96.107">  5  6 -1 -1</clus>
<clus scale="   98.291">  1  7  2 -1</clus>
<clus scale="   60.007">  2  5  1 -1</clus>
</clustering>
</event>
<event>
 9    1  0.1601012E-005  0.1077061E+03  0.7546771E-02  0.1265369E+00
         21   -1    0    0  501  502  0.00000000000E+00  0.00000000000E+00  0.58193703320E+02  0.58193703320E+02  0.00000000000E+00 0.  1.
         -1   -1    0    0    0  501 -0.00000000000E+00 -0.00000000000E+00 -0.51783666712E+03  0.51783666712E+03  0.00000000000E+00 0.  1.
         23    2    1    2    0    0 -0.40798201622E+02 -0.18746491474E+02 -0.23464944688E+03  0.25443559032E+03  0.87528181187E+02 0.  0.
         23    2    1    2    0    0  0.71095138882E+02  0.92401678244E+02 -0.17612950141E+03  0.22815665644E+03  0.86262794388E+02 0.  0.
        -11    1    4    4    0    0  0.77846652339E+02  0.36269688475E+02 -0.12667251002E+03  0.15304089773E+03  0.00000000000E+00 0. -1.
         11    1    4    4    0    0 -0.67515134570E+01  0.56131989770E+02 -0.49456991388E+02  0.75115758710E+02  0.00000000000E+00 0.  1.
        -11    1    3    3    0    0  0.98583278272E+01 -0.18722826182E+02 -0.87018176717E+01  0.22879083866E+02  0.00000000000E+00 0. -1.
         11    1    3    3    0    0 -0.50656529449E+02 -0.23665292206E-01 -0.22594762921E+03  0.23155650645E+03  0.00000000000E+00 0.  1.
         -1    1    1    2    0  502 -0.30296937261E+02 -0.73655186771E+02 -0.48864015512E+02  0.93438123684E+02  0.00000000000E+00 0.  1.
<scales pt_clust_5="13000.00000" pt_clust_6="13000.00000" pt_clust_7="13000.00000" pt_clust_8="13000.00000" pt_clust_9="79.64290"></scales>
<clustering>
<clus scale="   79.643">  1  9  2 -1</clus>
<clus scale="   86.263">  5  6 -1 -1</clus>
<clus scale="   87.528">  7  8 -1 -1</clus>
<clus scale="  106.680">  1  5  2 -1</clus>
<clus scale="   79.643">  1  5  2 -1</clus>
</clustering>
</event>
<event>
 9    1  0.1601012E-005  0.1015605E+03  0.7546771E-02  0.1277143E+00
          4   -1    0    0  502    0 -0.00000000000E+00  0.00000000000E+00  0.47323148830E+03  0.47323148830E+03  0.00000000000E+00 0. -1.
         21   -1    0    0  501  502  0.00000000000E+00 -0.00000000000E+00 -0.69056859711E+02  0.69056859711E+02  0.00000000000E+00 0. -1.
         23    2    1    2    0    0  0.19302581394E+02  0.35463881590E+02  0.35005714875E+03  0.36401969868E+03  0.91323913044E+02 0.  0.
         23    2    1    2    0    0 -0.10842205626E+02 -0.59204699819E+02  0.84821818304E+02  0.13854509449E+03  0.91527331673E+02 0.  0.
        -13    1    4    4    0    0 -0.25982115914E+02  0.12342279702E+02  0.49684835836E+02  0.57410670852E+02  0.00000000000E+00 0.  1.
         13    1    4    4    0    0  0.15139910288E+02 -0.71546979521E+02  0.35136982469E+02  0.81134423638E+02  0.00000000000E+00 0. -1.
        -13    1    3    3    0    0  0.36970811892E+02 -0.17293883956E+02  0.10337357837E+03  0.11113962417E+03  0.00000000000E+00 0. -1.
         13    1    3    3    0    0 -0.17668230498E+02  0.52757765546E+02  0.24668357038E+03  0.25288007452E+03  0.00000000000E+00 0.  1.
          4    1    1    2  501    0 -0.84603757675E+01  0.23740818229E+02 -0.30704338465E+02  0.39723554837E+02  0.00000000000E+00 0. -1.
<scales pt_clust_5="13000.00000" pt_clust_6="13000.00000" pt_clust_7="13000.00000" pt_clust_8="13000.00000" pt_clust_9="25.20326"></scales>
<clustering>
<clus scale="   25.203">  2  9  1 -1</clus>
<clus scale="   91.324">  7  8 -1 -1</clus>
<clus scale="   91.527">  5  6 -1 -1</clus>
<clus scale="  101.377">  1  7  2 -1</clus>
<clus scale="   25.203">  2  5  1 -1</clus>
</clustering>
</event>
<event>
 9    1  0.1601012E-005  0.4383487E+03  0.7546771E-02  0.1031291E+00
         21   -1    0    0  501  502  0.00000000000E+00  0.00000000000E+00  0.30832466804E+03  0.30832466804E+03  0.00000000000E+00 0.  1.
          1   -1    0    0  502    0 -0.00000000000E+00 -0.00000000000E+00 -0.18605569570E+04  0.18605569570E+04  0.00000000000E+00 0. -1.
         23    2    1    2    0    0 -0.29297850756E+03  0.30731272529E+03 -0.15151390001E+04  0.15764096101E+04  0.95621922959E+02 0.  0.
         23    2    1    2    0    0  0.29869818424E+03 -0.33006165792E+03 -0.14861149107E+03  0.47851352216E+03  0.93426507555E+02 0.  0.
        -11    1    3    3    0    0 -0.23160085839E+03  0.22495031315E+03 -0.98993639546E+03  0.10412567733E+04  0.00000000000E+00 0. -1.
         11    1    3    3    0    0 -0.61377649173E+02  0.82362412140E+02 -0.52520260467E+03  0.53515283677E+03  0.00000000000E+00 0.  1.
        -13    1    4    4    0    0  0.28426087605E+03 -0.26682917356E+03 -0.13118832880E+03  0.41135438630E+03  0.00000000000E+00 0.  1.
         13    1    4    4    0    0  0.14437308194E+02 -0.63232484357E+02 -0.17423162264E+02  0.67159135857E+02  0.00000000000E+00 0. -1.
          1    1    1    2  501    0 -0.57196766787E+01  0.22748932632E+02  0.11151820225E+03  0.11395849275E+03  0.00000000000E+00 0. -1.
<scales pt_clust_5="13000.00000" pt_clust_6="13000.00000" pt_clust_7="13000.00000" pt_clust_8="13000.00000" pt_clust_9="23.45695"></scales>
<clustering>
<clus scale="   23.457">  1  9  2 -1</clus>
<clus scale="   93.427">  7  8 -1 -1</clus>
<clus scale="   95.622">  5  6 -1 -1</clus>
<clus scale="  437.875">  1  7  2 -1</clus>
<clus scale="   23.457">  1  5  2 -1</clus>
</clustering>
</event>
<event>
 9    1  0.1601012E-005  0.1116362E+03  0.7546771E-02  0.1257664E+00
          1   -1    0    0  502    0 -0.00000000000E+00  0.00000000000E+00  0.21682454258E+03  0.21682454258E+03  0.00000000000E+00 0. -1.
         21   -1    0    0  501  502  0.00000000000E+00 -0.00000000000E+00 -0.28270980973E+03  0.28270980973E+03  0.00000000000E+00 0. -1.
         23    2    1    2    0    0 -0.87451420610E+02  0.17245918589E+02  0.14209761031E+03  0.19093829053E+03  0.91216924210E+02 0.  0.
         23    2    1    2    0    0  0.14857709937E+02  0.15563995291E+02 -0.85748729294E+01  0.93863927366E+02  0.90961084650E+02 0.  0.
        -11    1    3    3    0    0 -0.31359178100E+01  0.20966953399E+02  0.88399526526E+02  0.90906124136E+02  0.00000000000E+00 0.  1.
         11    1    3    3    0    0 -0.84315502800E+02 -0.37210348108E+01  0.53698083780E+02  0.10003216640E+03  0.00000000000E+00 0. -1.
        -13    1    4    4    0    0  0.29207593870E+02 -0.32271904219E+02 -0.36177924923E+01  0.43676627206E+02  0.00000000000E+00 0.  1.
         13    1    4    4    0    0 -0.14349883933E+02  0.47835899510E+02 -0.49570804371E+01  0.50187300160E+02  0.00000000000E+00 0. -1.
          1    1    1    2  501    0  0.72593710673E+02 -0.32809913880E+02 -0.19940800453E+03  0.21473213441E+03  0.00000000000E+00 0. -1.
<scales pt_clust_5="13000.00000" pt_clust_6="13000.00000" pt_clust_7="13000.00000" pt_clust_8="13000.00000" pt_clust_9="79.66390"></scales>
<clustering>
<clus scale="   79.664">  2  9  1 -1</clus>
<clus scale="   90.961">  7  8 -1 -1</clus>
<clus scale="   91.217">  5  6 -1 -1</clus>
<clus scale="  111.427">  2  7  1 -1</clus>
<clus scale="   79.664">  2  5  1 -1</clus>
</clustering>
</event>
<event>
 9    1  0.1601012E-005  0.9257532E+02  0.7546771E-02  0.1296897E+00
          3   -1    0    0  502    0 -0.00000000000E+00  0.00000000000E+00  0.40163742678E+03  0.40163742678E+03  0.00000000000E+00 0. -1.
         21   -1    0    0  501  502  0.00000000000E+00 -0.00000000000E+00 -0.30911373517E+02  0.30911373517E+02  0.00000000000E+00 0.  1.
         23    2    1    2    0    0  0.15794825766E+02 -0.13079385653E+02  0.21179096162E+03  0.23167284901E+03  0.91631603162E+02 0.  0.
         23    2    1    2    0    0 -0.27026289262E+01 -0.54172353326E+01  0.90266188954E+02  0.12856448053E+03  0.91346538757E+02 0.  0.
        -11    1    3    3    0    0  0.16598185229E+01 -0.42174500107E+02  0.44693038184E+02  0.61472848631E+02  0.00000000000E+00 0.  1.
         11    1    3    3    0    0  0.14135007243E+02  0.29095114454E+02  0.16709792343E+03  0.17020000038E+03  0.00000000000E+00 0. -1.
        -13    1    4    4    0    0 -0.40451570649E+02 -0.53983695930E+01  0.79414357690E+02  0.89286685287E+02  0.00000000000E+00 0. -1.
         13    1    4    4    0    0  0.37748941723E+02 -0.18865739616E-01  0.10851831264E+02  0.39277795240E+02  0.00000000000E+00 0.  1.
          3    1    1    2  501    0 -0.13092196840E+02  0.18496620985E+02  0.68668902695E+02  0.72311470758E+02  0.00000000000E+00 0. -1.
<scales pt_clust_5="13000.00000" pt_clust_6="13000.00000" pt_clust_7="13000.00000" pt_clust_8="13000.00000" pt_clust_9="22.66123"></scales>
<clustering>
<clus scale="   22.661">  2  9  1 -1</clus>
<clus scale="   91.347">  7  8 -1 -1</clus>
<clus scale="   91.632">  5  6 -1 -1</clus>
<clus scale="   92.293">  2  7  1 -1</clus>
<clus scale="   22.661">  2  5  1 -1</clus>
</clustering>
</event>
<event>
 9    1  0.1601012E-005  0.9471069E+02  0.7546771E-02  0.1293285E+00
          2   -1    0    0  502    0 -0.00000000000E+00  0.00000000000E+00  0.17736914355E+03  0.17736914355E+03  0.00000000000E+00 0. -1.
         21   -1    0    0  501  502  0.00000000000E+00 -0.00000000000E+00 -0.23637113837E+03  0.23637113837E+03  0.00000000000E+00 0.  1.
         23    2    1    2    0    0 -0.20131079379E+02  0.11031054029E+02  0.14698735661E+03  0.17352632855E+03  0.89326139435E+02 0.  0.
         23    2    1    2    0    0  0.76338154859E+01 -0.26728232645E+02 -0.13009532895E+03  0.16171245229E+03  0.91942640023E+02 0.  0.
        -11    1    3    3    0    0  0.22855380870E+02 -0.10059627741E+02  0.75359205981E+01  0.26083608728E+02  0.00000000000E+00 0.  1.
         11    1    3    3    0    0 -0.42986460249E+02  0.21090681770E+02  0.13945143601E+03  0.14744271982E+03  0.00000000000E+00 0. -1.
        -13    1    4    4    0    0  0.49886004037E+02 -0.12096372450E+02 -0.70510813938E+02  0.87216457779E+02  0.00000000000E+00 0.  1.
         13    1    4    4    0    0 -0.42252188552E+02 -0.14631860194E+02 -0.59584515008E+02  0.74495994516E+02  0.00000000000E+00 0. -1.
          2    1    1    2  501    0  0.12497263893E+02  0.15697178616E+02 -0.75894022486E+02  0.78501501071E+02  0.00000000000E+00 0. -1.
<scales pt_clust_5="13000.00000" pt_clust_6="13000.00000" pt_clust_7="13000.00000" pt_clust_8="13000.00000" pt_clust_9="20.06447"></scales>
<clustering>
<clus scale="   20.064">  2  9  1 -1</clus>
<clus scale="   89.326">  5  6 -1 -1</clus>
<clus scale="   91.943">  7  8 -1 -1</clus>
<clus scale="   92.173">  1  5  2 -1</clus>
<clus scale="   20.064">  2  5  1 -1</clus>
</clustering>
</event>
<event>
 9    1  0.1601012E-005  0.1018455E+03  0.7546771E-02  0.1278811E+00
         -4   -1    0    0    0  501 -0.00000000000E+00  0.00000000000E+00  0.51023767790E+03  0.51023767790E+03  0.00000000000E+00 0.  1.
         21   -1    0    0  501  502  0.00000000000E+00 -0.00000000000E+00 -0.52549905197E+02  0.52549905197E+02  0.00000000000E+00 0. -1.
         23    2    1    2    0    0 -0.46082401888E+02  0.11548322227E+02  0.25030851260E+03  0.27165800494E+03  0.94269659270E+02 0.  0.
         23    2    1    2    0    0 -0.16713478129E+02 -0.63899614267E+02  0.16523140768E+03  0.19914902701E+03  0.89422680680E+02 0.  0.
        -11    1    4    4    0    0 -0.30718754245E+02 -0.10866851913E+02  0.12985209988E+03  0.13387792267E+03  0.00000000000E+00 0.  1.
         11    1    4    4    0    0  0.14005276115E+02 -0.53032762354E+02  0.35379307792E+02  0.65271104340E+02  0.00000000000E+00 0. -1.
        -13    1    3    3    0    0 -0.13994029762E+02  0.48636610581E+02  0.82098372682E+02  0.96444261388E+02  0.00000000000E+00 0.  1.
         13    1    3    3    0    0 -0.32088372126E+02 -0.37088288353E+02  0.16821013992E+03  0.17521374355E+03  0.00000000000E+00 0. -1.
         -4    1    1    2    0  502  0.62795880017E+02  0.52351292040E+02  0.42147852426E+02  0.91980551148E+02  0.00000000000E+00 0.  1.
<scales pt_clust_5="13000.00000" pt_clust_6="13000.00000" pt_clust_7="13000.00000" pt_clust_8="13000.00000" pt_clust_9="81.75561"></scales>
<clustering>
<clus scale="   81.756">  2  9  1 -1</clus>
<clus scale="   89.423">  5  6 -1 -1</clus>
<clus scale="   94.270">  7  8 -1 -1</clus>
<clus scale="   97.376">  2  5  1 -1</clus>
<clus scale="   81.756">  2  5  1 -1</clus>
</clustering>
</event>
<event>
 9    1  0.2717182E-005  0.9774669E+02  0.7546771E-02  0.1286351E+00
         21   -1    0    0  501  502  0.00000000000E+00  0.00000000000E+00  0.26318169928E+03  0.26318169928E+03  0.00000000000E+00 0. -1.
          2   -1    0    0  502    0 -0.00000000000E+00 -0.00000000000E+00 -0.35713839934E+03  0.35713839934E+03  0.00000000000E+00 0. -1.
         23    2    1    2    0    0  0.10576586881E+02  0.38699458109E+02 -0.18052467729E+03  0.20573808528E+03  0.90163675484E+02 0.  0.
         23    2    1    2    0    0 -0.28281382071E+02 -0.95734573938E+01 -0.14824901123E+03  0.17730411348E+03  0.92560745822E+02 0.  0.
        -11    1    4    4    0    0  0.10516660758E+02 -0.29294121906E+02 -0.10507833950E+02  0.32850575430E+02  0.00000000000E+00 0.  1.
         11    1    4    4    0    0 -0.38798042829E+02  0.19720664512E+02 -0.13774117728E+03  0.14445353805E+03  0.00000000000E+00 0. -1.
        -13    1    3    3    0    0  0.32614120274E+02 -0.13458344151E+02 -0.35494777552E+02  0.50046849072E+02  0.00000000000E+00 0.  1.
         13    1    3    3    0    0 -0.22037533393E+02  0.52157802260E+02 -0.14502989974E+03  0.15569123621E+03  0.00000000000E+00 0. -1.
          2    1    1    2  501    0  0.17704795190E+02 -0.29126000715E+02  0.23481698846E+03  0.23727789985E+03  0.00000000000E+00 0. -1.
<scales pt_clust_5="13000.00000" pt_clust_6="13000.00000" pt_clust_7="13000.00000" pt_clust_8="13000.00000" pt_clust_9="34.08495"></scales>
<clustering>
<clus scale="   34.085">  1  9  2 -1</clus>
<clus scale="   90.164">  7  8 -1 -1</clus>
<clus scale="   92.561">  5  6 -1 -1</clus>
<clus scale="   95.480">  2  7  1 -1</clus>
<clus scale="   34.085">  1  5  2 -1</clus>
</clustering>
</event>
<event>
 9    1  0.1601012E-005  0.1605552E+03  0.7546771E-02  0.1194542E+00
         -1   -1    0    0    0  501 -0.00000000000E+00  0.00000000000E+00  0.23320295137E+03  0.23320295137E+03  0.00000000000E+00 0.  1.
         21   -1    0    0  501  502  0.00000000000E+00 -0.00000000000E+00 -0.15901461949E+03  0.15901461949E+03  0.00000000000E+00 0. -1.
         23    2    1    2    0    0 -0.11193295981E+03  0.29929863261E+02  0.71915702385E+02  0.14979266635E+03  0.61977338083E+02 0.  0.
         23    2    1    2    0    0  0.13158716520E+03 -0.43740690793E+02  0.58440492870E+02  0.18133598881E+03  0.10118804056E+03 0.  0.
        -11    1    4    4    0    0  0.66849375092E+02  0.22203316120E+02  0.54111013241E+02  0.88824703494E+02  0.00000000000E+00 0.  1.
         11    1    4    4    0    0  0.64737790111E+02 -0.65944006914E+02  0.43294796295E+01  0.92511285312E+02  0.00000000000E+00 0. -1.
        -13    1    3    3    0    0 -0.18547273960E+02  0.20146477956E+02 -0.56987382943E+01  0.27970655401E+02  0.00000000000E+00 0. -1.
         13    1    3    3    0    0 -0.93385685851E+02  0.97833853045E+01  0.77614440679E+02  0.12182201095E+03  0.00000000000E+00 0.  1.
         -1    1    1    2    0  502 -0.19654205392E+02  0.13810827533E+02 -0.56167863375E+02  0.61088915712E+02  0.00000000000E+00 0.  1.
<scales pt_clust_5="13000.00000" pt_clust_6="13000.00000" pt_clust_7="13000.00000" pt_clust_8="13000.00000" pt_clust_9="24.02138"></scales>
<clustering>
<clus scale="   24.021">  2  9  1 -1</clus>
<clus scale="   61.977">  7  8 -1 -1</clus>
<clus scale="  101.188">  5  6 -1 -1</clus>
<clus scale="  139.213">  1  7  2 -1</clus>
<clus scale="   24.021">  2  5  1 -1</clus>
</clustering>
</event>
<event>
 9    1  0.1601012E-005  0.1005461E+03  0.7546771E-02  0.1281401E+00
         21   -1    0    0  501  502  0.00000000000E+00  0.00000000000E+00  0.10650585865E+03  0.10650585865E+03  0.00000000000E+00 0. -1.
          1   -1    0    0  502    0 -0.00000000000E+00 -0.00000000000E+00 -0.39413020921E+03  0.39413020921E+03  0.00000000000E+00 0. -1.
         23    2    1    2    0    0 -0.11299415635E+02 -0.38335894195E+02 -0.32091606071E+03  0.33678671663E+03  0.94025831017E+02 0.  0.
         23    2    1    2    0    0 -0.18018865203E+01  0.18612910098E+02 -0.30029566860E+02  0.96245916834E+02  0.89508739261E+02 0.  0.
        -11    1    4    4    0    0  0.11007872529E+02 -0.30589207729E+02 -0.31658313336E+02  0.45377546104E+02  0.00000000000E+00 0.  1.
         11    1    4    4    0    0 -0.12809759049E+02  0.49202117828E+02  0.16287464768E+01  0.50868370730E+02  0.00000000000E+00 0. -1.
        -13    1    3    3    0    0 -0.17385927829E+02 -0.64255276607E+02 -0.28120602826E+03  0.28897723334E+03  0.00000000000E+00 0. -1.
         13    1    3    3    0    0  0.60865121939E+01  0.25919382411E+02 -0.39710032448E+02  0.47809483288E+02  0.00000000000E+00 0.  1.
          1    1    1    2  501    0  0.13101302156E+02  0.19722984097E+02  0.63321277008E+02  0.67603434394E+02  0.00000000000E+00 0. -1.
<scales pt_clust_5="13000.00000" pt_clust_6="13000.00000" pt_clust_7="13000.00000" pt_clust_8="13000.00000" pt_clust_9="23.67784"></scales>
<clustering>
<clus scale="   23.678">  1  9  2 -1</clus>
<clus scale="   89.509">  5  6 -1 -1</clus>
<clus scale="   94.026">  7  8 -1 -1</clus>
<clus scale="   96.335">  1  5  2 -1</clus>
<clus scale="   23.678">  1  5  2 -1</clus>
</clustering>
</event>
<event>
 9    1  0.1601012E-005  0.1136412E+03  0.7546771E-02  0.1254264E+00
         21   -1    0    0  501  502  0.00000000000E+00  0.00000000000E+00  0.51722023922E+02  0.51722023922E+02  0.00000000000E+00 0.  1.
          2   -1    0    0  502    0 -0.00000000000E+00 -0.00000000000E+00 -0.50250505463E+03  0.50250505463E+03  0.00000000000E+00 0. -1.
         23    2    1    2    0    0 -0.71495770215E+02 -0.67474697849E+01 -0.36540715044E+03  0.38328876658E+03  0.90723312825E+02 0.  0.
         23    2    1    2    0    0  0.54986575832E+02 -0.17744405119E+02 -0.34834705282E+02  0.11239930101E+03  0.89898602546E+02 0.  0.
        -11    1    4    4    0    0  0.77893133894E+02 -0.24381296370E+02 -0.19091215679E+02  0.83822803799E+02  0.00000000000E+00 0.  1.
         11    1    4    4    0    0 -0.22906558063E+02  0.66368912512E+01 -0.15743489603E+02  0.28576497207E+02  0.00000000000E+00 0. -1.
        -13    1    3    3    0    0 -0.44650450609E+02 -0.47603315283E+02 -0.23920082173E+03  0.24794509771E+03  0.00000000000E+00 0.  1.
         13    1    3    3    0    0 -0.26845319606E+02  0.40855845498E+02 -0.12620632871E+03  0.13534366887E+03  0.00000000000E+00 0. -1.
          2    1    1    2  501    0  0.16509194383E+02  0.24491874904E+02 -0.50541174983E+02  0.58539010960E+02  0.00000000000E+00 0. -1.
<scales pt_clust_5="13000.00000" pt_clust_6="13000.00000" pt_clust_7="13000.00000" pt_clust_8="13000.00000" pt_clust_9="29.53652"></scales>
<clustering>
<clus scale="   29.537">  1  9  2 -1</clus>
<clus scale="   89.899">  5  6 -1 -1</clus>
<clus scale="   90.723">  7  8 -1 -1</clus>
<clus scale="  112.984">  1  5  2 -1</clus>
<clus scale="   29.537">  1  5  2 -1</clus>
</clustering>
</event>
<event>
 9    1  0.1601012E-005  0.1333505E+03  0.7546771E-02  0.1222922E+00
         21   -1    0    0  501  502  0.00000000000E+00  0.00000000000E+00  0.65550558619E+03  0.65550558619E+03  0.00000000000E+00 0.  1.
         -3   -1    0    0    0  501 -0.00000000000E+00 -0.00000000000E+00 -0.31940333964E+03  0.31940333964E+03  0.00000000000E+00 0.  1.
         23    2    1    2    0    0  0.35593593373E+02 -0.69484013269E+02 -0.11525801691E+03  0.16659720493E+03  0.91516589963E+02 0.  0.
         23    2    1    2    0    0 -0.14893454322E+03  0.38073750738E+02 -0.12579164699E+03  0.21929805107E+03  0.92935397390E+02 0.  0.
        -11    1    4    4    0    0 -0.10539098630E+03  0.48243916697E+02 -0.13025648480E+03  0.17436022288E+03  0.00000000000E+00 0.  1.
         11    1    4    4    0    0 -0.43543556927E+02 -0.10170165959E+02  0.44648378052E+01  0.44937828187E+02  0.00000000000E+00 0. -1.
        -13    1    3    3    0    0  0.57103607106E+02 -0.30303937595E+02 -0.10055878090E+03  0.11954588656E+03  0.00000000000E+00 0.  1.
         13    1    3    3    0    0 -0.21510013733E+02 -0.39180075674E+02 -0.14699236013E+02  0.47051318366E+02  0.00000000000E+00 0. -1.
         -3    1    1    2    0  502  0.11334094985E+03  0.31410262531E+02  0.57715191046E+03  0.58901366983E+03  0.00000000000E+00 0.  1.
<scales pt_clust_5="13000.00000" pt_clust_6="13000.00000" pt_clust_7="13000.00000" pt_clust_8="13000.00000" pt_clust_9="117.61282"></scales>
<clustering>
<clus scale="   91.517">  7  8 -1 -1</clus>
<clus scale="   92.935">  5  6 -1 -1</clus>
<clus scale="  117.613">  1  9  2 -1</clus>
<clus scale="  132.366">  2  7  1 -1</clus>
<clus scale="  117.613">  1  5  2 -1</clus>
</clustering>
</event>
<event>
 9    1  0.1601012E-005  0.1034447E+03  0.7546771E-02  0.1276309E+00
          3   -1    0    0  502    0 -0.00000000000E+00  0.00000000000E+00  0.19774164839E+03  0.19774164839E+03  0.00000000000E+00 0. -1.
         21   -1    0    0  501  502  0.00000000000E+00 -0.00000000000E+00 -0.10748087758E+03  0.10748087758E+03  0.00000000000E+00 0.  1.
         23    2    1    2    0    0  0.33038995785E+02 -0.42437745759E+01  0.10617447047E+03  0.14649935381E+03  0.95286187984E+02 0.  0.
         23    2    1    2    0    0 -0.52857923522E+02  0.95678904747E+01  0.30352596587E+02  0.10810987079E+03  0.88774768007E+02 0.  0.
        -11    1    4    4    0    0 -0.30513396620E+02  0.21256868429E+02 -0.26668404751E+02  0.45761617549E+02  0.00000000000E+00 0.  1.
         11    1    4    4    0    0 -0.22344526902E+02 -0.11688977954E+02  0.57021001339E+02  0.62348253237E+02  0.00000000000E+00 0. -1.
        -13    1    3    3    0    0  0.54559566701E+01 -0.48022837262E+02  0.60872218167E+02  0.77726361721E+02  0.00000000000E+00 0. -1.
         13    1    3    3    0    0  0.27583039115E+02  0.43779062686E+02  0.45302252306E+02  0.68772992086E+02  0.00000000000E+00 0.  1.
          3    1    1    2  501    0  0.19818927736E+02 -0.53241158988E+01 -0.46266296256E+02  0.50613301374E+02  0.00000000000E+00 0. -1.
<scales pt_clust_5="13000.00000" pt_clust_6="13000.00000" pt_clust_7="13000.00000" pt_clust_8="13000.00000" pt_clust_9="20.52160"></scales>
<clustering>
<clus scale="   20.522">  2  9  1 -1</clus>
<clus scale="   88.775">  5  6 -1 -1</clus>
<clus scale="   95.286">  7  8 -1 -1</clus>
<clus scale="   97.480">  2  5  1 -1</clus>
<clus scale="   20.522">  2  5  1 -1</clus>
</clustering>
</event>
<event>
 9    1  0.1601012E-005  0.1383268E+03  0.7546771E-02  0.1216443E+00
         21   -1    0    0  501  502  0.00000000000E+00  0.00000000000E+00  0.12245811441E+03  0.12245811441E+03  0.00000000000E+00 0. -1.
          2   -1    0    0  502    0 -0.00000000000E+00 -0.00000000000E+00 -0.63859178076E+03  0.63859178076E+03  0.00000000000E+00 0. -1.
         23    2    1    2    0    0 -0.87297044085E+02 -0.69095364295E+02 -0.51318426683E+03  0.53345645539E+03  0.93929520393E+02 0.  0.
         23    2    1    2    0    0  0.58729625301E+02  0.42306955400E+02 -0.80329726640E+02  0.14086725403E+03  0.90286604280E+02 0.  0.
        -11    1    3    3    0    0 -0.10686552109E+03 -0.56112847800E+02 -0.45433158986E+03  0.47009157068E+03  0.00000000000E+00 0. -1.
         11    1    3    3    0    0  0.19568477005E+02 -0.12982516494E+02 -0.58852676977E+02  0.63364884709E+02  0.00000000000E+00 0.  1.
        -11    1    4    4    0    0 -0.65627911899E+01  0.45742949894E+02 -0.15369087723E+02  0.48700067255E+02  0.00000000000E+00 0. -1.
         11    1    4    4    0    0  0.65292416491E+02 -0.34359944937E+01 -0.64960638917E+02  0.92167186775E+02  0.00000000000E+00 0.  1.
          2    1    1    2  501    0  0.28567418784E+02  0.26788408895E+02  0.77380327128E+02  0.86726185743E+02  0.00000000000E+00 0. -1.
<scales pt_clust_5="13000.00000" pt_clust_6="13000.00000" pt_clust_7="13000.00000" pt_clust_8="13000.00000" pt_clust_9="39.16269"></scales>
<clustering>
<clus scale="   39.163">  1  9  2 -1</clus>
<clus scale="   90.287">  7  8 -1 -1</clus>
<clus scale="   93.930">  5  6 -1 -1</clus>
<clus scale="  135.879">  1  7  2 -1</clus>
<clus scale="   39.163">  1  5  2 -1</clus>
</clustering>
</event>
<event>
 9    1  0.1601012E-005  0.1016553E+03  0.7546771E-02  0.1278950E+00
         21   -1    0    0  501  502  0.00000000000E+00  0.00000000000E+00  0.28201386294E+03  0.28201386294E+03  0.00000000000E+00 0. -1.
          4   -1    0    0  502    0 -0.00000000000E+00 -0.00000000000E+00 -0.83118907670E+02  0.83118907670E+02  0.00000000000E+00 0. -1.
         23    2    1    2    0    0 -0.39454048697E+01 -0.49077810488E+02 -0.18506072081E+02  0.10601912658E+03  0.92050979332E+02 0.  0.
         23    2    1    2    0    0  0.16161886969E+02  0.12831330628E+02  0.19502514042E+03  0.21479965015E+03  0.87625536654E+02 0.  0.
        -11    1    4    4    0    0  0.38654154714E+02 -0.90809316394E+01  0.17020050844E+03  0.17477076435E+03  0.00000000000E+00 0. -1.
         11    1    4    4    0    0 -0.22492267745E+02  0.21912262268E+02  0.24824631973E+02  0.40028885802E+02  0.00000000000E+00 0.  1.
        -13    1    3    3    0    0 -0.47885703465E+02 -0.22467927222E+02 -0.12003698093E+02  0.54239626823E+02  0.00000000000E+00 0. -1.
         13    1    3    3    0    0  0.43940298595E+02 -0.26609883265E+02 -0.65023739872E+01  0.51779499761E+02  0.00000000000E+00 0.  1.
          4    1    1    2  501    0 -0.12216482099E+02  0.36246479860E+02  0.22375886931E+02  0.44313993874E+02  0.00000000000E+00 0. -1.
<scales pt_clust_5="13000.00000" pt_clust_6="13000.00000" pt_clust_7="13000.00000" pt_clust_8="13000.00000" pt_clust_9="38.24985"></scales>
<clustering>
<clus scale="   38.250">  1  9  2 -1</clus>
<clus scale="   87.626">  5  6 -1 -1</clus>
<clus scale="   92.051">  7  8 -1 -1</clus>
<clus scale="   97.666">  1  5  2 -1</clus>
<clus scale="   38.250">  1  5  2 -1</clus>
</clustering>
</event>
<event>
 9    1  0.1700868E-005  0.3300175E+03  0.7546771E-02  0.1071139E+00
         21   -1    0    0  501  502  0.00000000000E+00  0.00000000000E+00  0.45717293713E+03  0.45717293713E+03  0.00000000000E+00 0. -1.
          1   -1    0    0  502    0 -0.00000000000E+00 -0.00000000000E+00 -0.41261202814E+03  0.41261202814E+03  0.00000000000E+00 0. -1.
         23    2    1    2    0    0 -0.17875183990E+01 -0.24655514816E+03  0.25713295023E+02  0.26421768827E+03  0.91417596487E+02 0.  0.
         23    2    1    2    0    0 -0.33009246953E+02  0.41694517127E+03 -0.14753795916E+02  0.42844407242E+03  0.91726563583E+02 0.  0.
        -13    1    4    4    0    0  0.15883235152E+02  0.40717766070E+02  0.18788240399E+02  0.47573223665E+02  0.00000000000E+00 0.  1.
         13    1    4    4    0    0 -0.48892482105E+02  0.37622740520E+03 -0.33542036314E+02  0.38087084875E+03  0.00000000000E+00 0. -1.
        -13    1    3    3    0    0  0.13727530097E+02 -0.18336983314E+03 -0.19609319233E+02  0.18492556933E+03  0.00000000000E+00 0. -1.
         13    1    3    3    0    0 -0.15515048496E+02 -0.63185315014E+02  0.45322614256E+02  0.79292118942E+02  0.00000000000E+00 0.  1.
          1    1    1    2  501    0  0.34796765353E+02 -0.17039002311E+03  0.33601409878E+02  0.17712320458E+03  0.00000000000E+00 0. -1.
<scales pt_clust_5="13000.00000" pt_clust_6="13000.00000" pt_clust_7="13000.00000" pt_clust_8="13000.00000" pt_clust_9="173.90680"></scales>
<clustering>
<clus scale="   91.418">  7  8 -1 -1</clus>
<clus scale="   91.727">  5  6 -1 -1</clus>
<clus scale="  173.907">  1  9  2 -1</clus>
<clus scale="  329.932">  2  7  1 -1</clus>
<clus scale="  173.907">  1  5  2 -1</clus>
</clustering>
</event>
<event>
 9    1  0.1601012E-005  0.9956331E+02  0.7546771E-02  0.1283303E+00
          2   -1    0    0  502    0 -0.00000000000E+00  0.00000000000E+00  0.60586616714E+03  0.60586616714E+03  0.00000000000E+00 0. -1.
         21   -1    0    0  501  502  0.00000000000E+00 -0.00000000000E+00 -0.29088092637E+02  0.29088092637E+02  0.00000000000E+00 0. -1.
         23    2    1    2    0    0 -0.17691071462E+02  0.26746142978E+01  0.22599572216E+03  0.24308956193E+03  0.87740190984E+02 0.  0.
         23    2    1    2    0    0  0.72697142914E+02  0.10841387364E+02  0.22545551860E+03  0.25433228184E+03  0.91936437006E+02 0.  0.
        -11    1    3    3    0    0 -0.29999814722E+02 -0.28710209069E+02  0.55620996874E+02  0.69411528447E+02  0.00000000000E+00 0.  1.
         11    1    3    3    0    0  0.12308743259E+02  0.31384823366E+02  0.17037472529E+03  0.17367803349E+03  0.00000000000E+00 0. -1.
        -13    1    4    4    0    0  0.13572279924E+02 -0.33529935202E+02  0.12152024791E+03  0.12678972351E+03  0.00000000000E+00 0. -1.
         13    1    4    4    0    0  0.59124862990E+02  0.44371322566E+02  0.10393527069E+03  0.12754255832E+03  0.00000000000E+00 0.  1.
          2    1    1    2  501    0 -0.55006071452E+02 -0.13516001662E+02  0.12532683374E+03  0.13753241601E+03  0.00000000000E+00 0. -1.
<scales pt_clust_5="13000.00000" pt_clust_6="13000.00000" pt_clust_7="13000.00000" pt_clust_8="13000.00000" pt_clust_9="56.64233"></scales>
<clustering>
<clus scale="   56.642">  2  9  1 -1</clus>
<clus scale="   87.740">  5  6 -1 -1</clus>
<clus scale="   91.936">  7  8 -1 -1</clus>
<clus scale="   95.702">  1  5  2 -1</clus>
<clus scale="   56.642">  2  5  1 -1</clus>
</clustering>
</event>
<event>
 9    1  0.1601012E-005  0.9820467E+02  0.7546771E-02  0.1291133E+00
         21   -1    0    0  501  502  0.00000000000E+00  0.00000000000E+00  0.12394503732E+03  0.12394503732E+03  0.00000000000E+00 0.  1.
          2   -1    0    0  502    0 -0.00000000000E+00 -0.00000000000E+00 -0.14215141767E+03  0.14215141767E+03  0.00000000000E+00 0. -1.
         23    2    1    2    0    0  0.24837473384E+02  0.28938529991E+02 -0.47293040015E+02  0.10839159718E+03  0.89765071732E+02 0.  0.
         23    2    1    2    0    0 -0.46038205181E+02 -0.81743197972E+01 -0.27662806298E+02  0.93664828599E+02  0.76298973937E+02 0.  0.
        -11    1    3    3    0    0 -0.21260218254E+02  0.44094856301E+02 -0.25521242609E+02  0.55205860710E+02  0.00000000000E+00 0.  1.
         11    1    3    3    0    0  0.46097691638E+02 -0.15156326310E+02 -0.21771797406E+02  0.53185736470E+02  0.00000000000E+00 0. -1.
        -13    1    4    4    0    0  0.37752786029E+01 -0.29005181531E+02  0.62423278821E+01  0.29908526236E+02  0.00000000000E+00 0. -1.
         13    1    4    4    0    0 -0.49813483784E+02  0.20830861734E+02 -0.33905134180E+02  0.63756302363E+02  0.00000000000E+00 0.  1.
          2    1    1    2  501    0  0.21200731797E+02 -0.20764210194E+02  0.56749465969E+02  0.64040029212E+02  0.00000000000E+00 0. -1.
<scales pt_clust_5="13000.00000" pt_clust_6="13000.00000" pt_clust_7="13000.00000" pt_clust_8="13000.00000" pt_clust_9="29.67530"></scales>
<clustering>
<clus scale="   29.675">  1  9  2 -1</clus>
<clus scale="   76.299">  7  8 -1 -1</clus>
<clus scale="   86.069">  1  7  2 -1</clus>
<clus scale="   89.765">  5  6 -1 -1</clus>
<clus scale="   29.675">  1  5  2 -1</clus>
</clustering>
</event>
<event>
 9    1  0.1601012E-005  0.1051710E+03  0.7546771E-02  0.1270590E+00
         21   -1    0    0  501  502  0.00000000000E+00  0.00000000000E+00  0.55385897314E+02  0.55385897314E+02  0.00000000000E+00 0. -1.
          2   -1    0    0  502    0 -0.00000000000E+00 -0.00000000000E+00 -0.46172163884E+03  0.46172163884E+03  0.00000000000E+00 0. -1.
         23    2    1    2    0    0  0.51139396437E+02 -0.35048701593E+02 -0.19508963830E+03  0.22397056046E+03  0.90880116791E+02 0.  0.
         23    2    1    2    0    0  0.11219854142E+02  0.62998098309E+02 -0.19373502136E+03  0.22259278460E+03  0.88992380207E+02 0.  0.
        -13    1    3    3    0    0 -0.23305059096E+02 -0.14069627912E+02 -0.24327191305E+02  0.36508799567E+02  0.00000000000E+00 0.  1.
         13    1    3    3    0    0  0.74444455533E+02 -0.20979073681E+02 -0.17076244700E+03  0.18746176089E+03  0.00000000000E+00 0. -1.
        -13    1    4    4    0    0  0.47223705121E+02  0.42223624548E+02 -0.14687219887E+03  0.15995110377E+03  0.00000000000E+00 0. -1.
         13    1    4    4    0    0 -0.36003850978E+02  0.20774473761E+02 -0.46862822492E+02  0.62641680830E+02  0.00000000000E+00 0.  1.
          2    1    1    2  501    0 -0.62359250580E+02 -0.27949396716E+02 -0.17511081859E+02  0.70544191097E+02  0.00000000000E+00 0. -1.
<scales pt_clust_5="13000.00000" pt_clust_6="13000.00000" pt_clust_7="13000.00000" pt_clust_8="13000.00000" pt_clust_9="68.33626"></scales>
<clustering>
<clus scale="   68.336">  1  9  2 -1</clus>
<clus scale="   88.992">  7  8 -1 -1</clus>
<clus scale="   90.880">  5  6 -1 -1</clus>
<clus scale="  103.544">  1  7  2 -1</clus>
<clus scale="   68.336">  1  5  2 -1</clus>
</clustering>
</event>
<event>
 9    1  0.1601012E-005  0.9549616E+02  0.7546771E-02  0.1291166E+00
          1   -1    0    0  502    0 -0.00000000000E+00  0.00000000000E+00  0.15897547848E+03  0.15897547848E+03  0.00000000000E+00 0. -1.
         21   -1    0    0  501  502  0.00000000000E+00 -0.00000000000E+00 -0.13801668261E+03  0.13801668261E+03  0.00000000000E+00 0.  1.
         23    2    1    2    0    0 -0.20529452919E+02 -0.84225761421E+01  0.63700946050E+02  0.11239667391E+03  0.89904413422E+02 0.  0.
         23    2    1    2    0    0  0.33416529045E+02 -0.20691610369E+02  0.30665706375E+02  0.10458032617E+03  0.91933954125E+02 0.  0.
        -13    1    3    3    0    0  0.22772017290E+02  0.27760435207E+02  0.28977354451E+02  0.46139935039E+02  0.00000000000E+00 0. -1.
         13    1    3    3    0    0 -0.43301470209E+02 -0.36183011350E+02  0.34723591599E+02  0.66256738873E+02  0.00000000000E+00 0.  1.
        -13    1    4    4    0    0 -0.13493107251E+02 -0.32697433643E+02 -0.14627260256E+02  0.38277184493E+02  0.00000000000E+00 0.  1.
         13    1    4    4    0    0  0.46909636296E+02  0.12005823273E+02  0.45292966631E+02  0.66303141676E+02  0.00000000000E+00 0. -1.
          1    1    1    2  501    0 -0.12887076127E+02  0.29114186512E+02 -0.73407856558E+02  0.80015161012E+02  0.00000000000E+00 0. -1.
<scales pt_clust_5="13000.00000" pt_clust_6="13000.00000" pt_clust_7="13000.00000" pt_clust_8="13000.00000" pt_clust_9="31.83885"></scales>
<clustering>
<clus scale="   31.839">  2  9  1 -1</clus>
<clus scale="   89.904">  5  6 -1 -1</clus>
<clus scale="   91.934">  7  8 -1 -1</clus>
<clus scale="   93.544">  1  5  2 -1</clus>
<clus scale="   31.839">  2  5  1 -1</clus>
</clustering>
</event>
<event>
 9    1  0.1601012E-005  0.1502746E+03  0.7546771E-02  0.1206810E+00
         21   -1    0    0  501  502  0.00000000000E+00  0.00000000000E+00  0.65675632420E+02  0.65675632420E+02  0.00000000000E+00 0. -1.
         -1   -1    0    0    0  501 -0.00000000000E+00 -0.00000000000E+00 -0.59074039516E+03  0.59074039516E+03  0.00000000000E+00 0.  1.
         23    2    1    2    0    0 -0.33836786831E+02  0.85193080892E+02 -0.37888288388E+03  0.40764597427E+03  0.11924852814E+03 0.  0.
         23    2    1    2    0    0 -0.20653756373E+02 -0.99977776996E+02 -0.13140512933E+03  0.19040774643E+03  0.92550895957E+02 0.  0.
        -11    1    4    4    0    0 -0.29564813463E+02 -0.58059773161E+01 -0.21078934486E+01  0.30203158485E+02  0.00000000000E+00 0.  1.
         11    1    4    4    0    0  0.89110570901E+01 -0.94171799680E+02 -0.12929723588E+03  0.16020458795E+03  0.00000000000E+00 0. -1.
        -11    1    3    3    0    0  0.36848109354E+02  0.45069985195E+01 -0.54136663735E+02  0.65642018243E+02  0.00000000000E+00 0. -1.
         11    1    3    3    0    0 -0.70684896186E+02  0.80686082373E+02 -0.32474622015E+03  0.34200395603E+03  0.00000000000E+00 0.  1.
         -1    1    1    2    0  502  0.54490543204E+02  0.14784696104E+02 -0.14776749532E+02  0.58362306879E+02  0.00000000000E+00 0.  1.
<scales pt_clust_5="13000.00000" pt_clust_6="13000.00000" pt_clust_7="13000.00000" pt_clust_8="13000.00000" pt_clust_9="56.46066"></scales>
<clustering>
<clus scale="   56.461">  1  9  2 -1</clus>
<clus scale="   92.551">  5  6 -1 -1</clus>
<clus scale="  119.249">  7  8 -1 -1</clus>
<clus scale="  130.107">  1  5  2 -1</clus>
<clus scale="   56.461">  1  5  2 -1</clus>
</clustering>
</event>
<event>
 9    1  0.1601012E-005  0.1541669E+03  0.7546771E-02  0.1196666E+00
         21   -1    0    0  501  502  0.00000000000E+00  0.00000000000E+00  0.55314850368E+03  0.55314850368E+03  0.00000000000E+00 0. -1.
          3   -1    0    0  502    0 -0.00000000000E+00 -0.00000000000E+00 -0.30280176406E+03  0.30280176406E+03  0.00000000000E+00 0. -1.
         23    2    1    2    0    0  0.10941897203E+03  0.15595266454E+02 -0.20093632902E+03  0.24657668491E+03  0.90603142576E+02 0.  0.
         23    2    1    2    0    0 -0.16587462745E+03 -0.65729901120E+02  0.61405887175E+02  0.21225277093E+03  0.97189216755E+02 0.  0.
        -13    1    4    4    0    0 -0.13967335199E+03 -0.42385617282E+02  0.85987122352E+02  0.16940770649E+03  0.00000000000E+00 0.  1.
         13    1    4    4    0    0 -0.26201275465E+02 -0.23344283838E+02 -0.24581235177E+02  0.42845064439E+02  0.00000000000E+00 0. -1.
        -13    1    3    3    0    0  0.73077601232E+02 -0.70003874223E+01 -0.47869146391E+02  0.87640152910E+02  0.00000000000E+00 0.  1.
         13    1    3    3    0    0  0.36341370796E+02  0.22595653876E+02 -0.15306718263E+03  0.15893653200E+03  0.00000000000E+00 0. -1.
          3    1    1    2  501    0  0.56455655423E+02  0.50134634666E+02  0.38987718146E+03  0.39712081191E+03  0.00000000000E+00 0. -1.
<scales pt_clust_5="13000.00000" pt_clust_6="13000.00000" pt_clust_7="13000.00000" pt_clust_8="13000.00000" pt_clust_9="75.50313"></scales>
<clustering>
<clus scale="   75.503">  1  9  2 -1</clus>
<clus scale="   90.603">  7  8 -1 -1</clus>
<clus scale="   97.189">  5  6 -1 -1</clus>
<clus scale="  150.102">  2  7  1 -1</clus>
<clus scale="   75.503">  1  5  2 -1</clus>
</clustering>
</event>
<event>
 9    1  0.1601012E-005  0.1018297E+03  0.7546771E-02  0.1277682E+00
         -1   -1    0    0    0  501 -0.00000000000E+00  0.00000000000E+00  0.58624116859E+02  0.58624116859E+02  0.00000000000E+00 0.  1.
         21   -1    0    0  501  502  0.00000000000E+00 -0.00000000000E+00 -0.60636670556E+03  0.60636670556E+03  0.00000000000E+00 0.  1.
         23    2    1    2    0    0  0.43934948638E+01 -0.33824098231E+02 -0.11768470591E+02  0.99730223030E+02  0.92974448465E+02 0.  0.
         23    2    1    2    0    0 -0.74446906287E+01  0.83538787903E+02 -0.30552500887E+03  0.32949026174E+03  0.90466286735E+02 0.  0.
        -11    1    4    4    0    0  0.82044837415E+01  0.96723859112E+02 -0.20392508999E+03  0.22585008480E+03  0.00000000000E+00 0.  1.
         11    1    4    4    0    0 -0.15649174370E+02 -0.13185071209E+02 -0.10159991887E+03  0.10364017694E+03  0.00000000000E+00 0. -1.
        -11    1    3    3    0    0 -0.26864137825E+02  0.94751351755E+01  0.22480744343E+02  0.36288344601E+02  0.00000000000E+00 0. -1.
         11    1    3    3    0    0  0.31257632689E+02 -0.43299233407E+02 -0.34249214935E+02  0.63441878429E+02  0.00000000000E+00 0.  1.
         -1    1    1    2    0  502  0.30511957649E+01 -0.49714689672E+02 -0.23044910924E+03  0.23577033765E+03  0.00000000000E+00 0.  1.
<scales pt_clust_5="13000.00000" pt_clust_6="13000.00000" pt_clust_7="13000.00000" pt_clust_8="13000.00000" pt_clust_9="49.80823"></scales>
<clustering>
<clus scale="   49.808">  2  9  1 -1</clus>
<clus scale="   90.466">  5  6 -1 -1</clus>
<clus scale="   92.974">  7  8 -1 -1</clus>
<clus scale="   99.545">  2  5  1 -1</clus>
<clus scale="   49.808">  2  5  1 -1</clus>
</clustering>
</event>
<event>
 9    1  0.2719045E-005  0.1120127E+03  0.7546771E-02  0.1262571E+00
          1   -1    0    0  502    0 -0.00000000000E+00  0.00000000000E+00  0.55111698216E+03  0.55111698216E+03  0.00000000000E+00 0. -1.
         21   -1    0    0  501  502  0.00000000000E+00 -0.00000000000E+00 -0.12323286573E+03  0.12323286573E+03  0.00000000000E+00 0.  1.
         23    2    1    2    0    0 -0.46845846651E+01 -0.39486709666E+02  0.46879662548E+03  0.47922845448E+03  0.91150918529E+02 0.  0.
         23    2    1    2    0    0 -0.27669330786E+02  0.77975670221E+02 -0.53511808123E+02  0.14328590106E+03  0.10402662555E+03 0.  0.
        -13    1    3    3    0    0 -0.31277308799E+01 -0.68858453164E+02  0.29382908875E+03  0.30180590231E+03  0.00000000000E+00 0. -1.
         13    1    3    3    0    0 -0.15568537852E+01  0.29371743499E+02  0.17496753673E+03  0.17742255217E+03  0.00000000000E+00 0.  1.
        -13    1    4    4    0    0 -0.53518153350E+02  0.64633671109E+02 -0.17767452184E+01  0.83933670256E+02  0.00000000000E+00 0.  1.
         13    1    4    4    0    0  0.25848822564E+02  0.13341999112E+02 -0.51735062905E+02  0.59352230809E+02  0.00000000000E+00 0. -1.
          1    1    1    2  501    0  0.32353915451E+02 -0.38488960556E+02  0.12599299073E+02  0.51835492347E+02  0.00000000000E+00 0. -1.
<scales pt_clust_5="13000.00000" pt_clust_6="13000.00000" pt_clust_7="13000.00000" pt_clust_8="13000.00000" pt_clust_9="50.28097"></scales>
<clustering>
<clus scale="   50.281">  2  9  1 -1</clus>
<clus scale="   91.151">  5  6 -1 -1</clus>
<clus scale="  100.169">  1  5  2 -1</clus>
<clus scale="  104.027">  7  8 -1 -1</clus>
<clus scale="   50.281">  2  5  1 -1</clus>
</clustering>
</event>
<event>
 9    1  0.1601012E-005  0.2984966E+03  0.7546771E-02  0.1114983E+00
          2   -1    0    0  502    0 -0.00000000000E+00  0.00000000000E+00  0.15367594258E+04  0.15367594258E+04  0.00000000000E+00 0. -1.
         21   -1    0    0  501  502  0.00000000000E+00 -0.00000000000E+00 -0.88104335204E+02  0.88104335204E+02  0.00000000000E+00 0.  1.
         23    2    1    2    0    0  0.51667012225E+02  0.99699912562E+02  0.31910642270E+03  0.34877692684E+03  0.84893362349E+02 0.  0.
         23    2    1    2    0    0  0.64469567391E+02 -0.31965196540E+03  0.55582939143E+03  0.65077057909E+03  0.90677065098E+02 0.  0.
        -11    1    3    3    0    0  0.34024396064E+02  0.11294338598E+03  0.25447078817E+03  0.28048039147E+03  0.00000000000E+00 0. -1.
         11    1    3    3    0    0  0.17642616161E+02 -0.13243473420E+02  0.64635634526E+02  0.68296535372E+02  0.00000000000E+00 0.  1.
        -13    1    4    4    0    0  0.47610218049E+02 -0.19484707079E+03  0.42060668428E+03  0.46598508207E+03  0.00000000000E+00 0.  1.
         13    1    4    4    0    0  0.16859349341E+02 -0.12480489461E+03  0.13522270715E+03  0.18478549701E+03  0.00000000000E+00 0. -1.
          2    1    1    2  501    0 -0.11613657962E+03  0.21995205283E+03  0.57371927651E+03  0.62531625511E+03  0.00000000000E+00 0. -1.
<scales pt_clust_5="13000.00000" pt_clust_6="13000.00000" pt_clust_7="13000.00000" pt_clust_8="13000.00000" pt_clust_9="284.39052"></scales>
<clustering>
<clus scale="   84.893">  5  6 -1 -1</clus>
<clus scale="   90.677">  7  8 -1 -1</clus>
<clus scale="  140.771">  1  5  2 -1</clus>
<clus scale="  284.391">  2  9  1 -1</clus>
<clus scale="  284.391">  2  5  1 -1</clus>
</clustering>
</event>
<event>
 9    1  0.1601012E-005  0.1117953E+03  0.7546771E-02  0.1257329E+00
         21   -1    0    0  501  502  0.00000000000E+00  0.00000000000E+00  0.30277341687E+03  0.30277341687E+03  0.00000000000E+00 0.  1.
          4   -1    0    0  502    0 -0.00000000000E+00 -0.00000000000E+00 -0.73396549399E+02  0.73396549399E+02  0.00000000000E+00 0. -1.
         23    2    1    2    0    0 -0.63913285300E+02  0.15490842652E+02  0.22791655180E+02  0.11468242477E+03  0.91146721072E+02 0.  0.
         23    2    1    2    0    0  0.54418482754E+02 -0.36510199070E+02  0.93330315974E+02  0.14590797514E+03  0.91017709417E+02 0.  0.
        -11    1    3    3    0    0 -0.47103058252E+02  0.49252471654E+02  0.32841950301E+02  0.75651158354E+02  0.00000000000E+00 0. -1.
         11    1    3    3    0    0 -0.16810227049E+02 -0.33761629003E+02 -0.10050295121E+02  0.39031266420E+02  0.00000000000E+00 0.  1.
        -13    1    4    4    0    0  0.66020451735E+02 -0.11507477031E+02  0.23805030429E+02  0.71118222339E+02  0.00000000000E+00 0.  1.
         13    1    4    4    0    0 -0.11601968981E+02 -0.25002722039E+02  0.69525285544E+02  0.74789752798E+02  0.00000000000E+00 0. -1.
          4    1    1    2  501    0  0.94948025467E+01  0.21019356419E+02  0.11325489632E+03  0.11557956636E+03  0.00000000000E+00 0. -1.
<scales pt_clust_5="13000.00000" pt_clust_6="13000.00000" pt_clust_7="13000.00000" pt_clust_8="13000.00000" pt_clust_9="23.06436"></scales>
<clustering>
<clus scale="   23.064">  1  9  2 -1</clus>
<clus scale="   91.018">  7  8 -1 -1</clus>
<clus scale="   91.147">  5  6 -1 -1</clus>
<clus scale="  111.690">  1  7  2 -1</clus>
<clus scale="   23.064">  1  5  2 -1</clus>
</clustering>
</event>
<event>
 9    1  0.1601012E-005  0.2250739E+03  0.7546771E-02  0.1130177E+00
          1   -1    0    0  502    0 -0.00000000000E+00  0.00000000000E+00  0.34473457921E+03  0.34473457921E+03  0.00000000000E+00 0. -1.
         21   -1    0    0  501  502  0.00000000000E+00 -0.00000000000E+00 -0.21227700128E+03  0.21227700128E+03  0.00000000000E+00 0.  1.
         23    2    1    2    0    0 -0.24938564741E+02 -0.17586497214E+03  0.57452821048E+02  0.20769760831E+03  0.91033232470E+02 0.  0.
         23    2    1    2    0    0 -0.95049605358E+01  0.24252646016E+03  0.86979176343E+02  0.27333044014E+03  0.90745381335E+02 0.  0.
        -11    1    4    4    0    0 -0.33421090516E+02  0.22546579322E+03  0.66205124172E+02  0.23734976653E+03  0.00000000000E+00 0.  1.
         11    1    4    4    0    0  0.23916129980E+02  0.17060666942E+02  0.20774052171E+02  0.35980673608E+02  0.00000000000E+00 0. -1.
        -11    1    3    3    0    0  0.19698475258E+02 -0.76981021310E+02 -0.97821903460E+01  0.80061219185E+02  0.00000000000E+00 0.  1.
         11    1    3    3    0    0 -0.44637039999E+02 -0.98883950831E+02  0.67235011394E+02  0.12763638912E+03  0.00000000000E+00 0. -1.
          1    1    1    2  501    0  0.34443525277E+02 -0.66661488024E+02 -0.11974419460E+02  0.75983532034E+02  0.00000000000E+00 0. -1.
<scales pt_clust_5="13000.00000" pt_clust_6="13000.00000" pt_clust_7="13000.00000" pt_clust_8="13000.00000" pt_clust_9="75.03406"></scales>
<clustering>
<clus scale="   75.034">  2  9  1 -1</clus>
<clus scale="   90.745">  5  6 -1 -1</clus>
<clus scale="   91.033">  7  8 -1 -1</clus>
<clus scale="  224.958">  2  5  1 -1</clus>
<clus scale="   75.034">  2  5  1 -1</clus>
</clustering>
</event>
<event>
 9    1  0.1601012E-005  0.1536573E+03  0.7546771E-02  0.1215109E+00
          1   -1    0    0  502    0 -0.00000000000E+00  0.00000000000E+00  0.93321073540E+02  0.93321073540E+02  0.00000000000E+00 0. -1.
         21   -1    0    0  501  502  0.00000000000E+00 -0.00000000000E+00 -0.53142272581E+03  0.53142272581E+03  0.00000000000E+00 0.  1.
         23    2    1    2    0    0  0.23088778331E+02  0.92614388036E+01 -0.27795090084E+02  0.10568846094E+03  0.98886894023E+02 0.  0.
         23    2    1    2    0    0  0.62266977687E+02  0.81779586931E+02 -0.70682310033E+02  0.15722843767E+03  0.95706401616E+02 0.  0.
        -11    1    4    4    0    0  0.65213062429E+02  0.41840275848E+02 -0.84704845540E+02  0.11479661603E+03  0.00000000000E+00 0.  1.
         11    1    4    4    0    0 -0.29460847427E+01  0.39939311083E+02  0.14022535507E+02  0.42431821634E+02  0.00000000000E+00 0. -1.
        -13    1    3    3    0    0  0.12479806697E+02 -0.42982102225E+02  0.16494252642E+01  0.44787579646E+02  0.00000000000E+00 0.  1.
         13    1    3    3    0    0  0.10608971634E+02  0.52243541028E+02 -0.29444515349E+02  0.60900881294E+02  0.00000000000E+00 0. -1.
          1    1    1    2  501    0 -0.85355756017E+02 -0.91041025734E+02 -0.33962425215E+03  0.36182690075E+03  0.00000000000E+00 0. -1.
<scales pt_clust_5="13000.00000" pt_clust_6="13000.00000" pt_clust_7="13000.00000" pt_clust_8="13000.00000" pt_clust_9="120.21173"></scales>
<clustering>
<clus scale="   95.706">  5  6 -1 -1</clus>
<clus scale="   98.887">  7  8 -1 -1</clus>
<clus scale="  101.968">  1  7  2 -1</clus>
<clus scale="  120.212">  2  9  1 -1</clus>
<clus scale="  120.212">  2  5  1 -1</clus>
</clustering>
</event>
<event>
 9    1  0.1601012E-005  0.9895247E+02  0.7546771E-02  0.1282602E+00
         21   -1    0    0  501  502  0.00000000000E+00  0.00000000000E+00  0.71054268718E+02  0.71054268718E+02  0.00000000000E+00 0.  1.
          1   -1    0    0  502    0 -0.00000000000E+00 -0.00000000000E+00 -0.18526035689E+03  0.18526035689E+03  0.00000000000E+00 0. -1.
         23    2    1    2    0    0 -0.46483496842E+02  0.18010936392E+02 -0.64781374720E+02  0.12232608240E+03  0.91005135112E+02 0.  0.
         23    2    1    2    0    0  0.25143063860E+02 -0.92491530816E+00 -0.26292605321E+02  0.98177363069E+02  0.91183684923E+02 0.  0.
        -13    1    3    3    0    0 -0.65423587430E+02 -0.11716141064E+02 -0.30399774413E+02  0.73086661150E+02  0.00000000000E+00 0.  1.
         13    1    3    3    0    0  0.18940090588E+02  0.29727077455E+02 -0.34381600307E+02  0.49239421252E+02  0.00000000000E+00 0. -1.
        -13    1    4    4    0    0 -0.88213985650E+01  0.38596237307E+02 -0.23393352439E+02  0.45986253873E+02  0.00000000000E+00 0.  1.
         13    1    4    4    0    0  0.33964462425E+02 -0.39521152615E+02 -0.28992528817E+01  0.52191109196E+02  0.00000000000E+00 0. -1.
          1    1    1    2  501    0  0.21340432982E+02 -0.17086021083E+02 -0.23132108131E+02  0.35811180138E+02  0.00000000000E+00 0. -1.
<scales pt_clust_5="13000.00000" pt_clust_6="13000.00000" pt_clust_7="13000.00000" pt_clust_8="13000.00000" pt_clust_9="27.33765"></scales>
<clustering>
<clus scale="   27.338">  1  9  2 -1</clus>
<clus scale="   91.005">  5  6 -1 -1</clus>
<clus scale="   91.184">  7  8 -1 -1</clus>
<clus scale="   98.788">  2  5  1 -1</clus>
<clus scale="   27.338">  1  5  2 -1</clus>
</clustering>
</event>
<event>
 9    1  0.1601012E-005  0.1404358E+03  0.7546771E-02  0.1213025E+00
          2   -1    0    0  502    0 -0.00000000000E+00  0.00000000000E+00  0.12281152797E+04  0.12281152797E+04  0.00000000000E+00 0. -1.
         21   -1    0    0  501  502  0.00000000000E+00 -0.00000000000E+00 -0.41383410844E+02  0.41383410844E+02  0.00000000000E+00 0. -1.
         23    2    1    2    0    0 -0.81334621397E+02  0.14474254526E+02  0.52830773792E+03  0.54264040457E+03  0.92329399663E+02 0.  0.
         23    2    1    2    0    0  0.15695769708E+03  0.41813927820E+02  0.56183408299E+03  0.59188848784E+03  0.91051205359E+02 0.  0.
        -13    1    3    3    0    0 -0.63581253085E+02 -0.32306695657E+02  0.36243022129E+03  0.36938051334E+03  0.00000000000E+00 0.  1.
         13    1    3    3    0    0 -0.17753368312E+02  0.46780950183E+02  0.16587751663E+03  0.17325989123E+03  0.00000000000E+00 0. -1.
        -13    1    4    4    0    0  0.18057916778E+02  0.42387554402E+02  0.17131805430E+03  0.17740538000E+03  0.00000000000E+00 0.  1.
         13    1    4    4    0    0  0.13889978030E+03 -0.57362658219E+00  0.39051602870E+03  0.41448310784E+03  0.00000000000E+00 0. -1.
          2    1    1    2  501    0 -0.75623075685E+02 -0.56288182346E+02  0.96590047967E+02  0.13496979816E+03  0.00000000000E+00 0. -1.
<scales pt_clust_5="13000.00000" pt_clust_6="13000.00000" pt_clust_7="13000.00000" pt_clust_8="13000.00000" pt_clust_9="94.27200"></scales>
<clustering>
<clus scale="   91.051">  7  8 -1 -1</clus>
<clus scale="   92.329">  5  6 -1 -1</clus>
<clus scale="   94.272">  2  9  1 -1</clus>
<clus scale="  139.599">  2  7  1 -1</clus>
<clus scale="   94.272">  2  5  1 -1</clus>
</clustering>
</event>
<event>
 9    1  0.1601012E-005  0.1953577E+03  0.7546771E-02  0.1153945E+00
         -1   -1    0    0    0  501 -0.00000000000E+00  0.00000000000E+00  0.53428809827E+03  0.53428809827E+03  0.00000000000E+00 0.  1.
         21   -1    0    0  501  502  0.00000000000E+00 -0.00000000000E+00 -0.33695052705E+03  0.33695052705E+03  0.00000000000E+00 0.  1.
         23    2    1    2    0    0  0.10801195673E+03 -0.10954183173E+03 -0.14609577397E+00  0.17941932435E+03  0.92332426109E+02 0.  0.
         23    2    1    2    0    0 -0.14713944788E+03  0.16648696685E+03 -0.18519525778E+03  0.30295316918E+03  0.90085581303E+02 0.  0.
        -13    1    4    4    0    0 -0.75174640057E+02  0.14633598297E+03 -0.11805939805E+03  0.20249313047E+03  0.00000000000E+00 0.  1.
         13    1    4    4    0    0 -0.71964807822E+02  0.20150983885E+02 -0.67135859738E+02  0.10046003872E+03  0.00000000000E+00 0. -1.
        -13    1    3    3    0    0  0.10577533677E+03 -0.46663725695E+02  0.84378054981E+01  0.11591859957E+03  0.00000000000E+00 0.  1.
         13    1    3    3    0    0  0.22366199656E+01 -0.62878106033E+02 -0.85839012721E+01  0.63500724785E+02  0.00000000000E+00 0. -1.
         -1    1    1    2    0  502  0.39127491148E+02 -0.56945135126E+02  0.38267892478E+03  0.38886613178E+03  0.00000000000E+00 0.  1.
<scales pt_clust_5="13000.00000" pt_clust_6="13000.00000" pt_clust_7="13000.00000" pt_clust_8="13000.00000" pt_clust_9="69.09207"></scales>
<clustering>
<clus scale="   69.092">  2  9  1 -1</clus>
<clus scale="   90.086">  5  6 -1 -1</clus>
<clus scale="   92.332">  7  8 -1 -1</clus>
<clus scale="  194.306">  2  5  1 -1</clus>
<clus scale="   69.092">  2  5  1 -1</clus>
</clustering>
</event>
<event>
 9    1  0.1601012E-005  0.1427657E+03  0.7546771E-02  0.1209740E+00
          2   -1    0    0  502    0 -0.00000000000E+00  0.00000000000E+00  0.19653423711E+03  0.19653423711E+03  0.00000000000E+00 0. -1.
         21   -1    0    0  501  502  0.00000000000E+00 -0.00000000000E+00 -0.35452023579E+03  0.35452023579E+03  0.00000000000E+00 0. -1.
         23    2    1    2    0    0  0.85042864965E+02 -0.24618556278E+02  0.63655568669E+02  0.14179206693E+03  0.90634411940E+02 0.  0.
         23    2    1    2    0    0 -0.17804174368E+03  0.16583605171E+02 -0.39371152216E+02  0.20447994550E+03  0.91038903940E+02 0.  0.
        -11    1    4    4    0    0 -0.12259570898E+03  0.10792018338E+02 -0.69265390022E+02  0.14122276649E+03  0.00000000000E+00 0.  1.
         11    1    4    4    0    0 -0.55446034704E+02  0.57915868336E+01  0.29894237806E+02  0.63257179011E+02  0.00000000000E+00 0. -1.
        -13    1    3    3    0    0  0.24027847145E+02  0.28169342610E+02 -0.29891608221E+01  0.37145449034E+02  0.00000000000E+00 0. -1.
         13    1    3    3    0    0  0.61015017820E+02 -0.52787898888E+02  0.66644729491E+02  0.10464661790E+03  0.00000000000E+00 0.  1.
          2    1    1    2  501    0  0.92998878718E+02  0.80349511066E+01 -0.18227041513E+03  0.20478246047E+03  0.00000000000E+00 0. -1.
<scales pt_clust_5="13000.00000" pt_clust_6="13000.00000" pt_clust_7="13000.00000" pt_clust_8="13000.00000" pt_clust_9="93.34534"></scales>
<clustering>
<clus scale="   90.634">  7  8 -1 -1</clus>
<clus scale="   91.039">  5  6 -1 -1</clus>
<clus scale="   93.345">  2  9  1 -1</clus>
<clus scale="  142.508">  1  7  2 -1</clus>
<clus scale="   93.345">  2  5  1 -1</clus>
</clustering>
</event>
<event>
 9    1  0.1601012E-005  0.9838530E+02  0.7546771E-02  0.1287580E+00
          3   -1    0    0  502    0 -0.00000000000E+00  0.00000000000E+00  0.37175708039E+03  0.37175708039E+03  0.00000000000E+00 0. -1.
         21   -1    0    0  501  502  0.00000000000E+00 -0.00000000000E+00 -0.81440527853E+02  0.81440527853E+02  0.00000000000E+00 0. -1.
         23    2    1    2    0    0  0.27594946969E+02 -0.93952767493E+01  0.25890983780E+03  0.27605215140E+03  0.91218056658E+02 0.  0.
         23    2    1    2    0    0 -0.64743190678E+02  0.51700668800E+02  0.25582700042E+02  0.12054459683E+03  0.83737001315E+02 0.  0.
        -13    1    4    4    0    0  0.20163281474E+02  0.15649164104E+02  0.43943942286E+01  0.25899130441E+02  0.00000000000E+00 0.  1.
         13    1    4    4    0    0 -0.84906472153E+02  0.36051504696E+02  0.21188305813E+02  0.94645466386E+02  0.00000000000E+00 0. -1.
        -13    1    3    3    0    0  0.60037615676E+02  0.40558693530E+01  0.15000994725E+03  0.16162904952E+03  0.00000000000E+00 0. -1.
         13    1    3    3    0    0 -0.32442668707E+02 -0.13451146102E+02  0.10889989054E+03  0.11442310188E+03  0.00000000000E+00 0.  1.
          3    1    1    2  501    0  0.37148243710E+02 -0.42305392051E+02  0.58240146970E+01  0.56600860015E+02  0.00000000000E+00 0. -1.
<scales pt_clust_5="13000.00000" pt_clust_6="13000.00000" pt_clust_7="13000.00000" pt_clust_8="13000.00000" pt_clust_9="56.30043"></scales>
<clustering>
<clus scale="   56.300">  2  9  1 -1</clus>
<clus scale="   83.737">  5  6 -1 -1</clus>
<clus scale="   91.218">  7  8 -1 -1</clus>
<clus scale="   91.492">  2  5  1 -1</clus>
<clus scale="   56.300">  2  5  1 -1</clus>
</clustering>
</event>
<event>
 9    1  0.1601012E-005  0.3859201E+03  0.7546771E-02  0.1048812E+00
         21   -1    0    0  501  502  0.00000000000E+00  0.00000000000E+00  0.28263255629E+03  0.28263255629E+03  0.00000000000E+00 0.  1.
         -1   -1    0    0    0  501 -0.00000000000E+00 -0.00000000000E+00 -0.94606950775E+03  0.94606950775E+03  0.00000000000E+00 0.  1.
         23    2    1    2    0    0 -0.28023964405E+03 -0.29354851331E+03 -0.65933288908E+03  0.77964633292E+03  0.91779943592E+02 0.  0.
         23    2    1    2    0    0  0.19641274099E+03  0.23816441252E+03 -0.69870612275E+02  0.32897414476E+03  0.89676269154E+02 0.  0.
        -13    1    3    3    0    0 -0.17125129078E+03 -0.11369818676E+03 -0.31289225651E+03  0.37437393933E+03  0.00000000000E+00 0. -1.
         13    1    3    3    0    0 -0.10898835327E+03 -0.17985032655E+03 -0.34644063258E+03  0.40527239359E+03  0.00000000000E+00 0.  1.
        -13    1    4    4    0    0 -0.51985076755E+01  0.23169994378E+02  0.62731753120E+01  0.24560656547E+02  0.00000000000E+00 0. -1.
         13    1    4    4    0    0  0.20161124866E+03  0.21499441815E+03 -0.76143787587E+02  0.30441348822E+03  0.00000000000E+00 0.  1.
         -1    1    1    2    0  502  0.83826903065E+02  0.55384100783E+02  0.65766549899E+02  0.12008158636E+03  0.00000000000E+00 0.  1.
<scales pt_clust_5="13000.00000" pt_clust_6="13000.00000" pt_clust_7="13000.00000" pt_clust_8="13000.00000" pt_clust_9="100.47063"></scales>
<clustering>
<clus scale="   89.676">  7  8 -1 -1</clus>
<clus scale="   91.780">  5  6 -1 -1</clus>
<clus scale="  100.471">  1  9  2 -1</clus>
<clus scale="  385.425">  1  7  2 -1</clus>
<clus scale="  100.471">  1  5  2 -1</clus>
</clustering>
</event>
<event>
 9    1  0.1601012E-005  0.1629730E+03  0.7546771E-02  0.1190049E+00
         -3   -1    0    0    0  501 -0.00000000000E+00  0.00000000000E+00  0.15792081062E+03  0.15792081062E+03  0.00000000000E+00 0.  1.
         21   -1    0    0  501  502  0.00000000000E+00 -0.00000000000E+00 -0.20861118389E+03  0.20861118389E+03  0.00000000000E+00 0.  1.
         23    2    1    2    0    0 -0.86128556357E+01 -0.12337301212E+03  0.43451364401E+02  0.17441373365E+03  0.11505237076E+03 0.  0.
         23    2    1    2    0    0 -0.11569147361E+02  0.10188361223E+03 -0.69332145228E+02  0.15358744942E+03  0.90928777874E+02 0.  0.
        -11    1    3    3    0    0 -0.18071187447E+02  0.10625256833E+02 -0.17111945328E+02  0.27060720083E+02  0.00000000000E+00 0. -1.
         11    1    3    3    0    0  0.94583318112E+01 -0.13399826895E+03  0.60563309729E+02  0.14735301357E+03  0.00000000000E+00 0.  1.
        -13    1    4    4    0    0  0.14189394383E+02  0.66361610845E+02  0.41643139398E+01  0.67989291933E+02  0.00000000000E+00 0.  1.
         13    1    4    4    0    0 -0.25758541744E+02  0.35522001389E+02 -0.73496459168E+02  0.85598157490E+02  0.00000000000E+00 0. -1.
         -3    1    1    2    0  502  0.20182002997E+02  0.21489399887E+02 -0.24809592438E+02  0.38530811429E+02  0.00000000000E+00 0.  1.
<scales pt_clust_5="13000.00000" pt_clust_6="13000.00000" pt_clust_7="13000.00000" pt_clust_8="13000.00000" pt_clust_9="29.48063"></scales>
<clustering>
<clus scale="   29.481">  2  9  1 -1</clus>
<clus scale="   90.929">  7  8 -1 -1</clus>
<clus scale="  115.052">  5  6 -1 -1</clus>
<clus scale="  146.939">  2  7  1 -1</clus>
<clus scale="   29.481">  2  5  1 -1</clus>
</clustering>
</event>
<event>
 9    1  0.1601012E-005  0.9593063E+02  0.7546771E-02  0.1295257E+00
         21   -1    0    0  501  502  0.00000000000E+00  0.00000000000E+00  0.34594587829E+02  0.34594587829E+02  0.00000000000E+00 0.  1.
          4   -1    0    0  502    0 -0.00000000000E+00 -0.00000000000E+00 -0.34719479938E+03  0.34719479938E+03  0.00000000000E+00 0. -1.
         23    2    1    2    0    0  0.11954072200E+02  0.32869656049E+02 -0.12330708347E+03  0.15231528828E+03  0.82292138637E+02 0.  0.
         23    2    1    2    0    0 -0.14674508071E+02 -0.27385763789E+01 -0.11152026724E+03  0.14602411020E+03  0.93077547065E+02 0.  0.
        -11    1    4    4    0    0  0.28567605272E+02  0.10015405457E+02 -0.54348918557E+01  0.30756372786E+02  0.00000000000E+00 0.  1.
         11    1    4    4    0    0 -0.43242113343E+02 -0.12753981836E+02 -0.10608537538E+03  0.11526773742E+03  0.00000000000E+00 0. -1.
        -13    1    3    3    0    0  0.16807899635E+02  0.59433299272E+02 -0.93884841584E+02  0.11237965132E+03  0.00000000000E+00 0.  1.
         13    1    3    3    0    0 -0.48538274352E+01 -0.26563643223E+02 -0.29422241883E+02  0.39935636961E+02  0.00000000000E+00 0. -1.
          4    1    1    2  501    0  0.27204358709E+01 -0.30131079670E+02 -0.77772860846E+02  0.83449988721E+02  0.00000000000E+00 0. -1.
<scales pt_clust_5="13000.00000" pt_clust_6="13000.00000" pt_clust_7="13000.00000" pt_clust_8="13000.00000" pt_clust_9="30.25366"></scales>
<clustering>
<clus scale="   30.254">  1  9  2 -1</clus>
<clus scale="   82.292">  7  8 -1 -1</clus>
<clus scale="   85.506">  2  7  1 -1</clus>
<clus scale="   93.078">  5  6 -1 -1</clus>
<clus scale="   30.254">  1  5  2 -1</clus>
</clustering>
</event>
<event>
 9    1  0.1601012E-005  0.1272940E+03  0.7546771E-02  0.1236294E+00
         -4   -1    0    0    0  501 -0.00000000000E+00  0.00000000000E+00  0.63422880719E+02  0.63422880719E+02  0.00000000000E+00 0.  1.
         21   -1    0    0  501  502  0.00000000000E+00 -0.00000000000E+00 -0.40826656497E+03  0.40826656497E+03  0.00000000000E+00 0.  1.
         23    2    1    2    0    0 -0.57575027211E+02  0.44435787179E+02 -0.66668818503E+02  0.13562805725E+03  0.93063503110E+02 0.  0.
         23    2    1    2    0    0  0.10321035666E+03 -0.57610706080E+02 -0.19671569796E+03  0.24176527082E+03  0.76039523775E+02 0.  0.
        -13    1    4    4    0    0  0.70010870921E+02 -0.24623586353E+02 -0.54583583432E+02  0.92126058378E+02  0.00000000000E+00 0.  1.
         13    1    4    4    0    0  0.33199485736E+02 -0.32987119726E+02 -0.14213211453E+03  0.14963921244E+03  0.00000000000E+00 0. -1.
        -13    1    3    3    0    0 -0.57187911620E+02 -0.72492646539E+01 -0.92678494582E+01  0.58385803985E+02  0.00000000000E+00 0. -1.
         13    1    3    3    0    0 -0.38711559097E+00  0.51685051832E+02 -0.57400969045E+02  0.77242253260E+02  0.00000000000E+00 0.  1.
         -4    1    1    2    0  502 -0.45635329446E+02  0.13174918901E+02 -0.81459167787E+02  0.94296117620E+02  0.00000000000E+00 0.  1.
<scales pt_clust_5="13000.00000" pt_clust_6="13000.00000" pt_clust_7="13000.00000" pt_clust_8="13000.00000" pt_clust_9="47.49907"></scales>
<clustering>
<clus scale="   47.499">  2  9  1 -1</clus>
<clus scale="   76.040">  5  6 -1 -1</clus>
<clus scale="   93.064">  7  8 -1 -1</clus>
<clus scale="  115.434">  2  5  1 -1</clus>
<clus scale="   47.499">  2  5  1 -1</clus>
</clustering>
</event>
<event>
 9    1  0.1601012E-005  0.1105367E+03  0.7546771E-02  0.1260189E+00
         -2   -1    0    0    0  501 -0.00000000000E+00  0.00000000000E+00  0.33173529406E+02  0.33173529406E+02  0.00000000000E+00 0.  1.
         21   -1    0    0  501  502  0.00000000000E+00 -0.00000000000E+00 -0.52873647247E+03  0.52873647247E+03  0.00000000000E+00 0. -1.
         23    2    1    2    0    0  0.53734962887E+02  0.14524890256E+02 -0.15029454065E+03  0.18542729406E+03  0.93254564288E+02 0.  0.
         23    2    1    2    0    0 -0.65888220969E+02  0.48236355681E+01 -0.20252748127E+03  0.23192463054E+03  0.91690394602E+02 0.  0.
        -11    1    4    4    0    0 -0.17890372964E+02 -0.42158640875E+02 -0.78764447321E+02  0.91111221082E+02  0.00000000000E+00 0.  1.
         11    1    4    4    0    0 -0.47997848005E+02  0.46982276443E+02 -0.12376303394E+03  0.14081340946E+03  0.00000000000E+00 0. -1.
        -11    1    3    3    0    0  0.74447527409E+02 -0.37981124574E+01 -0.13397451639E+03  0.15331676698E+03  0.00000000000E+00 0. -1.
         11    1    3    3    0    0 -0.20712564522E+02  0.18323002714E+02 -0.16320024258E+02  0.32110527079E+02  0.00000000000E+00 0.  1.
         -2    1    1    2    0  502  0.12153258082E+02 -0.19348525824E+02 -0.14274092115E+03  0.14455807728E+03  0.00000000000E+00 0.  1.
<scales pt_clust_5="13000.00000" pt_clust_6="13000.00000" pt_clust_7="13000.00000" pt_clust_8="13000.00000" pt_clust_9="22.84879"></scales>
<clustering>
<clus scale="   22.849">  2  9  1 -1</clus>
<clus scale="   91.690">  5  6 -1 -1</clus>
<clus scale="   93.255">  7  8 -1 -1</clus>
<clus scale="  109.220">  2  5  1 -1</clus>
<clus scale="   22.849">  2  5  1 -1</clus>
</clustering>
</event>
<event>
 9    1  0.1601012E-005  0.1116111E+03  0.7546771E-02  0.1258727E+00
          2   -1    0    0  502    0 -0.00000000000E+00  0.00000000000E+00  0.12735095453E+03  0.12735095453E+03  0.00000000000E+00 0. -1.
         21   -1    0    0  501  502  0.00000000000E+00 -0.00000000000E+00 -0.11611662150E+03  0.11611662150E+03  0.00000000000E+00 0. -1.
         23    2    1    2    0    0 -0.62209057410E+02 -0.14475248187E+02  0.17985233889E+02  0.11503357490E+03  0.93966776482E+02 0.  0.
         23    2    1    2    0    0  0.49384004242E+02  0.29830971113E+02 -0.18265449114E+01  0.10782988754E+03  0.91078436905E+02 0.  0.
        -11    1    4    4    0    0  0.17179548712E+02  0.56271103536E+02 -0.20316103016E+02  0.62244020025E+02  0.00000000000E+00 0. -1.
         11    1    4    4    0    0  0.32204455531E+02 -0.26440132423E+02  0.18489558104E+02  0.45585867519E+02  0.00000000000E+00 0.  1.
        -11    1    3    3    0    0 -0.45077721276E+02 -0.35628252310E+02  0.47742771776E+02  0.74704387923E+02  0.00000000000E+00 0. -1.
         11    1    3    3    0    0 -0.17131336134E+02  0.21153004122E+02 -0.29757537888E+02  0.40329186978E+02  0.00000000000E+00 0.  1.
          2    1    1    2  501    0  0.12825053168E+02 -0.15355722926E+02 -0.49243559444E+01  0.20604113589E+02  0.00000000000E+00 0. -1.
<scales pt_clust_5="13000.00000" pt_clust_6="13000.00000" pt_clust_7="13000.00000" pt_clust_8="13000.00000" pt_clust_9="20.00700"></scales>
<clustering>
<clus scale="   20.007">  2  9  1 -1</clus>
<clus scale="   91.078">  5  6 -1 -1</clus>
<clus scale="   93.967">  7  8 -1 -1</clus>
<clus scale="  109.191">  2  5  1 -1</clus>
<clus scale="   20.007">  2  5  1 -1</clus>
</clustering>
</event>
<event>
 9    1  0.1601012E-005  0.2437656E+03  0.7546771E-02  0.1146814E+00
          1   -1    0    0  502    0 -0.00000000000E+00  0.00000000000E+00  0.27647113899E+03  0.27647113899E+03  0.00000000000E+00 0. -1.
         21   -1    0    0  501  502  0.00000000000E+00 -0.00000000000E+00 -0.37429713604E+03  0.37429713604E+03  0.00000000000E+00 0.  1.
         23    2    1    2    0    0  0.34706080209E+02 -0.67303621632E+02  0.40610801059E+02  0.12518303559E+03  0.91034420685E+02 0.  0.
         23    2    1    2    0    0 -0.11713034894E+03 -0.15998428021E+03  0.44583406284E+02  0.22235274511E+03  0.90214048730E+02 0.  0.
        -11    1    4    4    0    0 -0.10916362025E+02 -0.85835787915E+02  0.40427201574E+01  0.86621550628E+02  0.00000000000E+00 0.  1.
         11    1    4    4    0    0 -0.10621398691E+03 -0.74148492290E+02  0.40540686126E+02  0.13573119448E+03  0.00000000000E+00 0. -1.
        -13    1    3    3    0    0  0.10635373599E+02 -0.81951663647E+02  0.48631389045E+02  0.95886382488E+02  0.00000000000E+00 0.  1.
         13    1    3    3    0    0  0.24070706610E+02  0.14648042015E+02 -0.80205879862E+01  0.29296653106E+02  0.00000000000E+00 0. -1.
          1    1    1    2  501    0  0.82424268728E+02  0.22728790184E+03 -0.18302020439E+03  0.30323249432E+03  0.00000000000E+00 0. -1.
<scales pt_clust_5="13000.00000" pt_clust_6="13000.00000" pt_clust_7="13000.00000" pt_clust_8="13000.00000" pt_clust_9="226.45766"></scales>
<clustering>
<clus scale="   90.214">  5  6 -1 -1</clus>
<clus scale="   91.034">  7  8 -1 -1</clus>
<clus scale="  118.413">  1  7  2 -1</clus>
<clus scale="  226.458">  2  9  1 -1</clus>
<clus scale="  226.458">  2  5  1 -1</clus>
</clustering>
</event>
<event>
 9    1  0.1601012E-005  0.1581522E+03  0.7546771E-02  0.1191189E+00
         21   -1    0    0  501  502  0.00000000000E+00  0.00000000000E+00  0.90410401103E+02  0.90410401103E+02  0.00000000000E+00 0. -1.
          2   -1    0    0  502    0 -0.00000000000E+00 -0.00000000000E+00 -0.50531912483E+03  0.50531912483E+03  0.00000000000E+00 0. -1.
         23    2    1    2    0    0 -0.90584568770E+02  0.63285613053E+00 -0.11342397527E+03  0.17218158307E+03  0.92604183368E+02 0.  0.
         23    2    1    2    0    0  0.18249849410E+03 -0.15742006627E+02 -0.20116437429E+03  0.28665150912E+03  0.90268882079E+02 0.  0.
        -11    1    4    4    0    0  0.88258302106E+02 -0.26572412720E+00 -0.34895612420E+02  0.94906808324E+02  0.00000000000E+00 0. -1.
         11    1    4    4    0    0  0.94240191997E+02 -0.15476282500E+02 -0.16626876187E+03  0.19174470079E+03  0.00000000000E+00 0.  1.
        -11    1    3    3    0    0 -0.18470043639E+02 -0.34837802187E+02 -0.90571167426E+01  0.40457957647E+02  0.00000000000E+00 0.  1.
         11    1    3    3    0    0 -0.72114525131E+02  0.35470658318E+02 -0.10436685853E+03  0.13172362543E+03  0.00000000000E+00 0. -1.
          2    1    1    2  501    0 -0.91913925334E+02  0.15109150497E+02 -0.10032037416E+03  0.13689643374E+03  0.00000000000E+00 0. -1.
<scales pt_clust_5="13000.00000" pt_clust_6="13000.00000" pt_clust_7="13000.00000" pt_clust_8="13000.00000" pt_clust_9="93.14754"></scales>
<clustering>
<clus scale="   90.269">  5  6 -1 -1</clus>
<clus scale="   92.604">  7  8 -1 -1</clus>
<clus scale="   93.148">  1  9  2 -1</clus>
<clus scale="  156.796">  1  5  2 -1</clus>
<clus scale="   93.148">  1  5  2 -1</clus>
</clustering>
</event>
<event>
 9    1  0.1601012E-005  0.9755918E+02  0.7546771E-02  0.1287779E+00
         21   -1    0    0  501  502  0.00000000000E+00  0.00000000000E+00  0.18498522307E+03  0.18498522307E+03  0.00000000000E+00 0.  1.
         -2   -1    0    0    0  501 -0.00000000000E+00 -0.00000000000E+00 -0.90898264751E+02  0.90898264751E+02  0.00000000000E+00 0.  1.
         23    2    1    2    0    0 -0.32692147934E+02 -0.43457687637E+01 -0.16078983434E+01  0.10146935322E+03  0.95946766822E+02 0.  0.
         23    2    1    2    0    0 -0.14066754458E+01  0.42755020978E+01  0.23953622760E+02  0.94981525834E+02  0.91801174026E+02 0.  0.
        -13    1    4    4    0    0  0.40175361381E+02  0.21765256445E+02  0.46978706867E+01  0.45933169270E+02  0.00000000000E+00 0. -1.
         13    1    4    4    0    0 -0.41582036826E+02 -0.17489754347E+02  0.19255752074E+02  0.49048356565E+02  0.00000000000E+00 0.  1.
        -13    1    3    3    0    0 -0.41411808313E+02 -0.34083499598E+02 -0.28234340997E+02  0.60611886822E+02  0.00000000000E+00 0.  1.
         13    1    3    3    0    0  0.87196603780E+01  0.29737730835E+02  0.26626442654E+02  0.40857466401E+02  0.00000000000E+00 0. -1.
         -2    1    1    2    0  502  0.34098823380E+02  0.70266665932E-01  0.71741233905E+02  0.79432608767E+02  0.00000000000E+00 0.  1.
<scales pt_clust_5="13000.00000" pt_clust_6="13000.00000" pt_clust_7="13000.00000" pt_clust_8="13000.00000" pt_clust_9="34.09890"></scales>
<clustering>
<clus scale="   34.099">  1  9  2 -1</clus>
<clus scale="   91.801">  5  6 -1 -1</clus>
<clus scale="   93.485">  1  5  2 -1</clus>
<clus scale="   95.947">  7  8 -1 -1</clus>
<clus scale="   34.099">  1  5  2 -1</clus>
</clustering>
</event>
<event>
 9    1  0.1601012E-005  0.1059505E+03  0.7546771E-02  0.1269470E+00
          1   -1    0    0  502    0 -0.00000000000E+00  0.00000000000E+00  0.45929753717E+03  0.45929753717E+03  0.00000000000E+00 0. -1.
         21   -1    0    0  501  502  0.00000000000E+00 -0.00000000000E+00 -0.60534149339E+02  0.60534149339E+02  0.00000000000E+00 0.  1.
         23    2    1    2    0    0 -0.45820942246E+02  0.50347576243E+02  0.31230443857E+03  0.33296735038E+03  0.93267126526E+02 0.  0.
         23    2    1    2    0    0 -0.17318285082E+02 -0.21683840389E+02  0.62926437843E+02  0.11363899301E+03  0.90465309488E+02 0.  0.
        -13    1    4    4    0    0  0.17620913562E+01 -0.50917441883E+02  0.12759834748E+02  0.52521464532E+02  0.00000000000E+00 0.  1.
         13    1    4    4    0    0 -0.19080376438E+02  0.29233601494E+02  0.50166603095E+02  0.61117528479E+02  0.00000000000E+00 0. -1.
        -13    1    3    3    0    0 -0.55844095123E+02 -0.24832206057E+01  0.10680436459E+03  0.12054833736E+03  0.00000000000E+00 0.  1.
         13    1    3    3    0    0  0.10023152877E+02  0.52830796849E+02  0.20550007398E+03  0.21241901302E+03  0.00000000000E+00 0. -1.
          1    1    1    2  501    0  0.63139227327E+02 -0.28663735854E+02  0.23532511422E+02  0.73225343116E+02  0.00000000000E+00 0. -1.
<scales pt_clust_5="13000.00000" pt_clust_6="13000.00000" pt_clust_7="13000.00000" pt_clust_8="13000.00000" pt_clust_9="69.34098"></scales>
<clustering>
<clus scale="   69.341">  2  9  1 -1</clus>
<clus scale="   90.465">  5  6 -1 -1</clus>
<clus scale="   93.267">  7  8 -1 -1</clus>
<clus scale="  103.493">  2  5  1 -1</clus>
<clus scale="   69.341">  2  5  1 -1</clus>
</clustering>
</event>
<event>
 9    1  0.1601012E-005  0.1037552E+03  0.7546771E-02  0.1272779E+00
         21   -1    0    0  501  502  0.00000000000E+00  0.00000000000E+00  0.12479117143E+03  0.12479117143E+03  0.00000000000E+00 0.  1.
          2   -1    0    0  502    0 -0.00000000000E+00 -0.00000000000E+00 -0.18956770073E+03  0.18956770073E+03  0.00000000000E+00 0. -1.
         23    2    1    2    0    0  0.15514900215E+02  0.39524395991E+02 -0.11716128042E+03  0.15449909035E+03  0.91325315667E+02 0.  0.
         23    2    1    2    0    0 -0.18201357809E+02 -0.69833340183E+02  0.26008821024E+02  0.11959144635E+03  0.91747863413E+02 0.  0.
        -13    1    4    4    0    0  0.34640598888E+02 -0.98061175449E+01  0.14427477553E+02  0.38785089160E+02  0.00000000000E+00 0.  1.
         13    1    4    4    0    0 -0.52841956696E+02 -0.60027222638E+02  0.11581343472E+02  0.80806357186E+02  0.00000000000E+00 0. -1.
        -13    1    3    3    0    0 -0.23718664493E+02  0.21290127865E+02 -0.25268763229E+01  0.31972327000E+02  0.00000000000E+00 0. -1.
         13    1    3    3    0    0  0.39233564708E+02  0.18234268126E+02 -0.11463440410E+03  0.12252676335E+03  0.00000000000E+00 0.  1.
          2    1    1    2  501    0  0.26864575932E+01  0.30308944191E+02  0.26375930105E+02  0.40268335467E+02  0.00000000000E+00 0. -1.
<scales pt_clust_5="13000.00000" pt_clust_6="13000.00000" pt_clust_7="13000.00000" pt_clust_8="13000.00000" pt_clust_9="30.42777"></scales>
<clustering>
<clus scale="   30.428">  1  9  2 -1</clus>
<clus scale="   91.325">  7  8 -1 -1</clus>
<clus scale="   91.748">  5  6 -1 -1</clus>
<clus scale="  103.382">  2  7  1 -1</clus>
<clus scale="   30.428">  1  5  2 -1</clus>
</clustering>
</event>
<event>
 9    1  0.1601012E-005  0.9686246E+02  0.7546771E-02  0.1287966E+00
         21   -1    0    0  501  502  0.00000000000E+00  0.00000000000E+00  0.14814146376E+03  0.14814146376E+03  0.00000000000E+00 0. -1.
          3   -1    0    0  502    0 -0.00000000000E+00 -0.00000000000E+00 -0.41759834067E+03  0.41759834067E+03  0.00000000000E+00 0. -1.
         23    2    1    2    0    0 -0.19243489246E+02 -0.98278634849E+01 -0.27084155758E+03  0.28708785030E+03  0.92722088511E+02 0.  0.
         23    2    1    2    0    0  0.36780226876E+02  0.21259833605E+02 -0.11943821194E+03  0.15602896081E+03  0.90965842636E+02 0.  0.
        -11    1    3    3    0    0  0.13397714284E+02  0.18741935710E+02 -0.14765755734E+02  0.27363962516E+02  0.00000000000E+00 0.  1.
         11    1    3    3    0    0 -0.32641203530E+02 -0.28569799195E+02 -0.25607580185E+03  0.25972388779E+03  0.00000000000E+00 0. -1.
        -13    1    4    4    0    0  0.15907207406E+02  0.56693868915E+02 -0.76993140408E+02  0.96928724793E+02  0.00000000000E+00 0.  1.
         13    1    4    4    0    0  0.20873019470E+02 -0.35434035310E+02 -0.42445071536E+02  0.59100236022E+02  0.00000000000E+00 0. -1.
          3    1    1    2  501    0 -0.17536737630E+02 -0.11431970120E+02  0.12082289262E+03  0.12262299331E+03  0.00000000000E+00 0. -1.
<scales pt_clust_5="13000.00000" pt_clust_6="13000.00000" pt_clust_7="13000.00000" pt_clust_8="13000.00000" pt_clust_9="20.93387"></scales>
<clustering>
<clus scale="   20.934">  1  9  2 -1</clus>
<clus scale="   90.966">  7  8 -1 -1</clus>
<clus scale="   92.722">  5  6 -1 -1</clus>
<clus scale="   95.183">  1  7  2 -1</clus>
<clus scale="   20.934">  1  5  2 -1</clus>
</clustering>
</event>
<event>
 9    1  0.1601012E-005  0.1588400E+03  0.7546771E-02  0.1190226E+00
         21   -1    0    0  501  502  0.00000000000E+00  0.00000000000E+00  0.12452339649E+03  0.12452339649E+03  0.00000000000E+00 0.  1.
         -3   -1    0    0    0  501 -0.00000000000E+00 -0.00000000000E+00 -0.26560204313E+03  0.26560204313E+03  0.00000000000E+00 0.  1.
         23    2    1    2    0    0 -0.64482620232E+02 -0.11248395477E+03 -0.11493048297E+03  0.19712997936E+03  0.94024275878E+02 0.  0.
         23    2    1    2    0    0  0.84200745695E+02  0.95317865732E+02 -0.41349707909E+02  0.16275366747E+03  0.92756114767E+02 0.  0.
        -11    1    3    3    0    0 -0.19400276902E+02  0.14920634271E+02 -0.23735633739E+02  0.34093641341E+02  0.00000000000E+00 0. -1.
         11    1    3    3    0    0 -0.45082343331E+02 -0.12740458904E+03 -0.91194849230E+02  0.16303633802E+03  0.00000000000E+00 0.  1.
        -13    1    4    4    0    0  0.84960565286E+02  0.27695253168E+02 -0.29445866101E+02  0.94087107152E+02  0.00000000000E+00 0.  1.
         13    1    4    4    0    0 -0.75981959097E+00  0.67622612564E+02 -0.11903841807E+02  0.68666560316E+02  0.00000000000E+00 0. -1.
         -3    1    1    2    0  502 -0.19718125463E+02  0.17166089034E+02  0.15201544239E+02  0.30241792800E+02  0.00000000000E+00 0.  1.
<scales pt_clust_5="13000.00000" pt_clust_6="13000.00000" pt_clust_7="13000.00000" pt_clust_8="13000.00000" pt_clust_9="26.14343"></scales>
<clustering>
<clus scale="   26.143">  1  9  2 -1</clus>
<clus scale="   92.756">  7  8 -1 -1</clus>
<clus scale="   94.024">  5  6 -1 -1</clus>
<clus scale="  158.093">  1  7  2 -1</clus>
<clus scale="   26.143">  1  5  2 -1</clus>
</clustering>
</event>
<event>
 9    1  0.1601012E-005  0.1047533E+03  0.7546771E-02  0.1271017E+00
         21   -1    0    0  501  502  0.00000000000E+00  0.00000000000E+00  0.27560368386E+02  0.27560368386E+02  0.00000000000E+00 0. -1.
         -1   -1    0    0    0  501 -0.00000000000E+00 -0.00000000000E+00 -0.63988782322E+03  0.63988782322E+03  0.00000000000E+00 0.  1.
         23    2    1    2    0    0 -0.40704603536E+02 -0.53750524487E+02 -0.32604203125E+03  0.34496193304E+03  0.90273725277E+02 0.  0.
         23    2    1    2    0    0 -0.50806749513E+01  0.37114763484E+02 -0.17226226957E+03  0.19849303325E+03  0.91224315880E+02 0.  0.
        -11    1    4    4    0    0  0.40626566696E+02  0.13944993670E+02 -0.49942652348E+02  0.65872978478E+02  0.00000000000E+00 0.  1.
         11    1    4    4    0    0 -0.45707241648E+02  0.23169769814E+02 -0.12231961722E+03  0.13262005478E+03  0.00000000000E+00 0. -1.
        -13    1    3    3    0    0 -0.52902673459E+02 -0.70158124447E+02 -0.29486774126E+03  0.30768139384E+03  0.00000000000E+00 0. -1.
         13    1    3    3    0    0  0.12198069923E+02  0.16407599959E+02 -0.31174289993E+02  0.37280539197E+02  0.00000000000E+00 0.  1.
         -1    1    1    2    0  502  0.45785278487E+02  0.16635761003E+02 -0.11402315402E+03  0.12399322531E+03  0.00000000000E+00 0.  1.
<scales pt_clust_5="13000.00000" pt_clust_6="13000.00000" pt_clust_7="13000.00000" pt_clust_8="13000.00000" pt_clust_9="48.71389"></scales>
<clustering>
<clus scale="   48.714">  1  9  2 -1</clus>
<clus scale="   90.274">  7  8 -1 -1</clus>
<clus scale="   91.224">  5  6 -1 -1</clus>
<clus scale="  103.927">  2  7  1 -1</clus>
<clus scale="   48.714">  1  5  2 -1</clus>
</clustering>
</event>
<event>
 9    1  0.1601012E-005  0.9700467E+02  0.7546771E-02  0.1289419E+00
         21   -1    0    0  501  502  0.00000000000E+00  0.00000000000E+00  0.10476615942E+03  0.10476615942E+03  0.00000000000E+00 0.  1.
         -2   -1    0    0    0  501 -0.00000000000E+00 -0.00000000000E+00 -0.22755611742E+03  0.22755611742E+03  0.00000000000E+00 0.  1.
         23    2    1    2    0    0 -0.77750908555E+00 -0.23437454748E+01 -0.14076673880E+03  0.16819124261E+03  0.92015877299E+02 0.  0.
         23    2    1    2    0    0 -0.17884297873E+02 -0.45710025282E+02  0.26858605194E+02  0.11182123852E+03  0.96816063691E+02 0.  0.
        -13    1    4    4    0    0 -0.37663453452E+02 -0.67126714720E+02  0.86652756663E+01  0.77457204684E+02  0.00000000000E+00 0.  1.
         13    1    4    4    0    0  0.19779155579E+02  0.21416689438E+02  0.18193329527E+02  0.34364033832E+02  0.00000000000E+00 0. -1.
        -13    1    3    3    0    0 -0.33574871407E+02 -0.29343748240E+02 -0.44638322641E+02  0.63094432393E+02  0.00000000000E+00 0.  1.
         13    1    3    3    0    0  0.32797362321E+02  0.27000002766E+02 -0.96128416163E+02  0.10509681022E+03  0.00000000000E+00 0. -1.
         -2    1    1    2    0  502  0.18661806959E+02  0.48053770757E+02 -0.88818243927E+01  0.52309795712E+02  0.00000000000E+00 0.  1.
<scales pt_clust_5="13000.00000" pt_clust_6="13000.00000" pt_clust_7="13000.00000" pt_clust_8="13000.00000" pt_clust_9="51.55025"></scales>
<clustering>
<clus scale="   51.550">  1  9  2 -1</clus>
<clus scale="   92.016">  7  8 -1 -1</clus>
<clus scale="   92.214">  2  7  1 -1</clus>
<clus scale="   96.816">  5  6 -1 -1</clus>
<clus scale="   51.550">  1  5  2 -1</clus>
</clustering>
</event>
<event>
 9    1  0.1601012E-005  0.9061428E+02  0.7546771E-02  0.1303565E+00
         21   -1    0    0  501  502  0.00000000000E+00  0.00000000000E+00  0.42028122236E+02  0.42028122236E+02  0.00000000000E+00 0. -1.
          1   -1    0    0  502    0 -0.00000000000E+00 -0.00000000000E+00 -0.41884396697E+03  0.41884396697E+03  0.00000000000E+00 0. -1.
         23    2    1    2    0    0  0.22783937172E+02  0.22358606433E+00 -0.23215794422E+03  0.24818043605E+03  0.84717530619E+02 0.  0.
         23    2    1    2    0    0 -0.11950450537E+02 -0.18670129196E+02 -0.16151944269E+03  0.18545287581E+03  0.88390337635E+02 0.  0.
        -13    1    3    3    0    0  0.49167668479E+02  0.17341908020E+02 -0.17877073344E+03  0.18621808863E+03  0.00000000000E+00 0. -1.
         13    1    3    3    0    0 -0.26383731307E+02 -0.17118321956E+02 -0.53387210775E+02  0.61962347427E+02  0.00000000000E+00 0.  1.
        -13    1    4    4    0    0 -0.26735479304E+02  0.22556616341E+02 -0.27611536588E+02  0.44564377558E+02  0.00000000000E+00 0.  1.
         13    1    4    4    0    0  0.14785028767E+02 -0.41226745537E+02 -0.13390790610E+03  0.14088849826E+03  0.00000000000E+00 0. -1.
          1    1    1    2  501    0 -0.10833486635E+02  0.18446543132E+02  0.16861542177E+02  0.27238777336E+02  0.00000000000E+00 0. -1.
<scales pt_clust_5="13000.00000" pt_clust_6="13000.00000" pt_clust_7="13000.00000" pt_clust_8="13000.00000" pt_clust_9="21.39251"></scales>
<clustering>
<clus scale="   21.393">  1  9  2 -1</clus>
<clus scale="   84.718">  5  6 -1 -1</clus>
<clus scale="   87.035">  2  5  1 -1</clus>
<clus scale="   88.390">  7  8 -1 -1</clus>
<clus scale="   21.393">  1  5  2 -1</clus>
</clustering>
</event>
<event>
 9    1  0.1601012E-005  0.1314275E+03  0.7546771E-02  0.1225516E+00
         21   -1    0    0  501  502  0.00000000000E+00  0.00000000000E+00  0.54747111739E+02  0.54747111739E+02  0.00000000000E+00 0.  1.
          2   -1    0    0  502    0 -0.00000000000E+00 -0.00000000000E+00 -0.79377031171E+03  0.79377031171E+03  0.00000000000E+00 0. -1.
         23    2    1    2    0    0 -0.86728578392E+01 -0.79077082550E+02 -0.36038892433E+03  0.37986185879E+03  0.89924699238E+02 0.  0.
         23    2    1    2    0    0  0.52236939903E+01  0.11652329909E+03 -0.39930919556E+03  0.42574206821E+03  0.90573223290E+02 0.  0.
        -11    1    4    4    0    0  0.41027792831E+02  0.85255663308E+02 -0.20623564254E+03  0.22690294878E+03  0.00000000000E+00 0.  1.
         11    1    4    4    0    0 -0.35804098841E+02  0.31267635779E+02 -0.19307355302E+03  0.19883911943E+03  0.00000000000E+00 0. -1.
        -13    1    3    3    0    0  0.13836283011E+02  0.16646867713E+02 -0.70534509439E+02  0.73781284579E+02  0.00000000000E+00 0.  1.
         13    1    3    3    0    0 -0.22509140850E+02 -0.95723950263E+02 -0.28985441489E+03  0.30608057421E+03  0.00000000000E+00 0. -1.
          2    1    1    2  501    0  0.34491638489E+01 -0.37446216536E+02  0.20674919918E+02  0.42913496452E+02  0.00000000000E+00 0. -1.
<scales pt_clust_5="13000.00000" pt_clust_6="13000.00000" pt_clust_7="13000.00000" pt_clust_8="13000.00000" pt_clust_9="37.60473"></scales>
<clustering>
<clus scale="   37.605">  1  9  2 -1</clus>
<clus scale="   89.925">  7  8 -1 -1</clus>
<clus scale="   90.573">  5  6 -1 -1</clus>
<clus scale="  130.981">  2  7  1 -1</clus>
<clus scale="   37.605">  1  5  2 -1</clus>
</clustering>
</event>
<event>
 9    1  0.1601012E-005  0.9849361E+02  0.7546771E-02  0.1286816E+00
         21   -1    0    0  501  502  0.00000000000E+00  0.00000000000E+00  0.57321490125E+02  0.57321490125E+02  0.00000000000E+00 0.  1.
          2   -1    0    0  502    0 -0.00000000000E+00 -0.00000000000E+00 -0.50460239540E+03  0.50460239540E+03  0.00000000000E+00 0. -1.
         23    2    1    2    0    0 -0.34182769707E+02 -0.12818595836E+02 -0.26239190569E+03  0.27871238301E+03  0.86592737148E+02 0.  0.
         23    2    1    2    0    0  0.21865880501E+02 -0.69991670035E+02 -0.15337135116E+03  0.19375420513E+03  0.92956818175E+02 0.  0.
        -11    1    4    4    0    0  0.13080158087E+02  0.22085338851E+02 -0.38512355631E+02  0.46282332093E+02  0.00000000000E+00 0. -1.
         11    1    4    4    0    0  0.87857224138E+01 -0.92077008886E+02 -0.11485899552E+03  0.14747187304E+03  0.00000000000E+00 0.  1.
        -11    1    3    3    0    0  0.17006026094E+02 -0.34389209298E+02 -0.11217558137E+03  0.11855455999E+03  0.00000000000E+00 0.  1.
         11    1    3    3    0    0 -0.51188795801E+02  0.21570613462E+02 -0.15021632432E+03  0.16015782302E+03  0.00000000000E+00 0. -1.
          2    1    1    2  501    0  0.12316889206E+02  0.82810265871E+02 -0.31517648431E+02  0.89457297388E+02  0.00000000000E+00 0. -1.
<scales pt_clust_5="13000.00000" pt_clust_6="13000.00000" pt_clust_7="13000.00000" pt_clust_8="13000.00000" pt_clust_9="83.72124"></scales>
<clustering>
<clus scale="   83.721">  1  9  2 -1</clus>
<clus scale="   86.593">  7  8 -1 -1</clus>
<clus scale="   92.511">  2  7  1 -1</clus>
<clus scale="   92.957">  5  6 -1 -1</clus>
<clus scale="   83.721">  1  5  2 -1</clus>
</clustering>
</event>
<event>
 9    1  0.1601012E-005  0.9544069E+02  0.7546771E-02  0.1291125E+00
         21   -1    0    0  501  502  0.00000000000E+00  0.00000000000E+00  0.13405866082E+03  0.13405866082E+03  0.00000000000E+00 0. -1.
          1   -1    0    0  502    0 -0.00000000000E+00 -0.00000000000E+00 -0.17052554886E+03  0.17052554886E+03  0.00000000000E+00 0. -1.
         23    2    1    2    0    0  0.25541185582E+02 -0.61675039975E+01 -0.61928344286E+02  0.11155059768E+03  0.88983289161E+02 0.  0.
         23    2    1    2    0    0 -0.39323292404E+02  0.21491070865E+02 -0.53319144731E+02  0.11160179229E+03  0.87200008006E+02 0.  0.
        -11    1    3    3    0    0  0.57587994847E+02 -0.45833934331E+01 -0.25912991016E+02  0.63315620105E+02  0.00000000000E+00 0. -1.
         11    1    3    3    0    0 -0.32046809265E+02 -0.15841105643E+01 -0.36015353270E+02  0.48234977573E+02  0.00000000000E+00 0.  1.
        -11    1    4    4    0    0  0.23052802442E+02 -0.14150696636E+01 -0.36271820394E+02  0.43000919493E+02  0.00000000000E+00 0. -1.
         11    1    4    4    0    0 -0.62376094846E+02  0.22906140528E+02 -0.17047324337E+02  0.68600872801E+02  0.00000000000E+00 0.  1.
          1    1    1    2  501    0  0.13782106822E+02 -0.15323566867E+02  0.78780600979E+02  0.81431819706E+02  0.00000000000E+00 0. -1.
<scales pt_clust_5="13000.00000" pt_clust_6="13000.00000" pt_clust_7="13000.00000" pt_clust_8="13000.00000" pt_clust_9="20.60966"></scales>
<clustering>
<clus scale="   20.610">  1  9  2 -1</clus>
<clus scale="   87.200">  7  8 -1 -1</clus>
<clus scale="   88.983">  5  6 -1 -1</clus>
<clus scale="   93.780">  1  7  2 -1</clus>
<clus scale="   20.610">  1  5  2 -1</clus>
</clustering>
</event>
<event>
 9    1  0.1601012E-005  0.1012184E+03  0.7546771E-02  0.1283003E+00
          2   -1    0    0  502    0 -0.00000000000E+00  0.00000000000E+00  0.31420879749E+03  0.31420879749E+03  0.00000000000E+00 0. -1.
         21   -1    0    0  501  502  0.00000000000E+00 -0.00000000000E+00 -0.12451679707E+03  0.12451679707E+03  0.00000000000E+00 0. -1.
         23    2    1    2    0    0 -0.21423495834E+02 -0.85838771210E+01  0.24887845053E+03  0.26913044423E+03  0.99790098479E+02 0.  0.
         23    2    1    2    0    0 -0.11254501963E+02  0.66227607177E+01  0.11507507633E+02  0.91689225146E+02  0.90022033426E+02 0.  0.
        -11    1    4    4    0    0 -0.28481145717E+02 -0.19614649640E+02  0.37445583031E+02  0.50971382465E+02  0.00000000000E+00 0. -1.
         11    1    4    4    0    0  0.17226643754E+02  0.26237410357E+02 -0.25938075398E+02  0.40717842682E+02  0.00000000000E+00 0.  1.
        -11    1    3    3    0    0 -0.31629180901E+02  0.38656417923E+02  0.16422180912E+03  0.17164942855E+03  0.00000000000E+00 0.  1.
         11    1    3    3    0    0  0.10205685068E+02 -0.47240295044E+02  0.84656641408E+02  0.97481015680E+02  0.00000000000E+00 0. -1.
          2    1    1    2  501    0  0.32677997796E+02  0.19611164032E+01 -0.70693957744E+02  0.77905925185E+02  0.00000000000E+00 0. -1.
<scales pt_clust_5="13000.00000" pt_clust_6="13000.00000" pt_clust_7="13000.00000" pt_clust_8="13000.00000" pt_clust_9="32.73679"></scales>
<clustering>
<clus scale="   32.737">  2  9  1 -1</clus>
<clus scale="   90.022">  5  6 -1 -1</clus>
<clus scale="   91.603">  2  5  1 -1</clus>
<clus scale="   99.790">  7  8 -1 -1</clus>
<clus scale="   32.737">  2  5  1 -1</clus>
</clustering>
</event>
<event>
 9    1  0.1601012E-005  0.1015974E+03  0.7546771E-02  0.1277655E+00
         21   -1    0    0  501  502  0.00000000000E+00  0.00000000000E+00  0.39256193501E+03  0.39256193501E+03  0.00000000000E+00 0. -1.
          2   -1    0    0  502    0 -0.00000000000E+00 -0.00000000000E+00 -0.10777618037E+03  0.10777618037E+03  0.00000000000E+00 0. -1.
         23    2    1    2    0    0 -0.46420638736E+02 -0.30968748932E+02 -0.17600070727E+02  0.10515510730E+03  0.87372163709E+02 0.  0.
         23    2    1    2    0    0  0.62943575976E+01  0.51050384209E+02  0.14368669464E+02  0.10369154575E+03  0.88880354026E+02 0.  0.
        -13    1    3    3    0    0  0.20425380455E+02  0.97911727396E+00  0.13818819388E+02  0.24680247297E+02  0.00000000000E+00 0.  1.
         13    1    3    3    0    0 -0.66846019191E+02 -0.31947866206E+02 -0.31418890116E+02  0.80474860005E+02  0.00000000000E+00 0. -1.
        -13    1    4    4    0    0  0.22080780203E+02 -0.17338215849E+02 -0.93731024429E+01  0.29597797766E+02  0.00000000000E+00 0.  1.
         13    1    4    4    0    0 -0.15786422605E+02  0.68388600059E+02  0.23741771907E+02  0.74093747981E+02  0.00000000000E+00 0. -1.
          2    1    1    2  501    0  0.40126281138E+02 -0.20081635278E+02  0.28801715591E+03  0.29149146233E+03  0.00000000000E+00 0. -1.
<scales pt_clust_5="13000.00000" pt_clust_6="13000.00000" pt_clust_7="13000.00000" pt_clust_8="13000.00000" pt_clust_9="44.87082"></scales>
<clustering>
<clus scale="   44.871">  1  9  2 -1</clus>
<clus scale="   87.372">  5  6 -1 -1</clus>
<clus scale="   88.880">  7  8 -1 -1</clus>
<clus scale="  100.281">  2  5  1 -1</clus>
<clus scale="   44.871">  1  5  2 -1</clus>
</clustering>
</event>
<event>
 9    1  0.1601012E-005  0.2585952E+03  0.7546771E-02  0.1108687E+00
         21   -1    0    0  501  502  0.00000000000E+00  0.00000000000E+00  0.24574678633E+03  0.24574678633E+03  0.00000000000E+00 0.  1.
         -2   -1    0    0    0  501 -0.00000000000E+00 -0.00000000000E+00 -0.92151643147E+03  0.92151643147E+03  0.00000000000E+00 0.  1.
         23    2    1    2    0    0 -0.19212358068E+03 -0.14503398999E+03 -0.81349029257E+03  0.85345246842E+03  0.93103873411E+02 0.  0.
         23    2    1    2    0    0  0.17586448758E+03  0.99105662669E+02  0.87242621519E+02  0.24365520462E+03  0.10491107360E+03 0.  0.
        -11    1    4    4    0    0  0.13376166890E+03  0.31973008704E+02  0.90006130796E+02  0.16436411084E+03  0.00000000000E+00 0. -1.
         11    1    4    4    0    0  0.42102818682E+02  0.67132653965E+02 -0.27635092768E+01  0.79291093780E+02  0.00000000000E+00 0.  1.
        -13    1    3    3    0    0 -0.11787345058E+03 -0.46137914913E+02 -0.30676362967E+03  0.33185355510E+03  0.00000000000E+00 0. -1.
         13    1    3    3    0    0 -0.74250130101E+02 -0.98896075077E+02 -0.50672666290E+03  0.52159891332E+03  0.00000000000E+00 0.  1.
         -2    1    1    2    0  502  0.16259093097E+02  0.45928327321E+02  0.50478025918E+02  0.70155544752E+02  0.00000000000E+00 0.  1.
<scales pt_clust_5="13000.00000" pt_clust_6="13000.00000" pt_clust_7="13000.00000" pt_clust_8="13000.00000" pt_clust_9="48.72134"></scales>
<clustering>
<clus scale="   48.721">  1  9  2 -1</clus>
<clus scale="   93.104">  7  8 -1 -1</clus>
<clus scale="  104.911">  5  6 -1 -1</clus>
<clus scale="  254.034">  2  7  1 -1</clus>
<clus scale="   48.721">  1  5  2 -1</clus>
</clustering>
</event>
<event>
 9    1  0.1601012E-005  0.9683153E+02  0.7546771E-02  0.1287113E+00
         21   -1    0    0  501  502  0.00000000000E+00  0.00000000000E+00  0.51898303045E+03  0.51898303045E+03  0.00000000000E+00 0. -1.
          4   -1    0    0  502    0 -0.00000000000E+00 -0.00000000000E+00 -0.93686154397E+02  0.93686154397E+02  0.00000000000E+00 0. -1.
         23    2    1    2    0    0 -0.84228748908E+01  0.35592759484E+02 -0.49315507316E+02  0.10932148562E+03  0.90450973506E+02 0.  0.
         23    2    1    2    0    0  0.55302266224E+02  0.37256634039E+01  0.31710661807E+03  0.33437527007E+03  0.90432255284E+02 0.  0.
        -13    1    4    4    0    0  0.38022562840E+02  0.46340930689E+02  0.18785562848E+03  0.19718756121E+03  0.00000000000E+00 0. -1.
         13    1    4    4    0    0  0.17279703385E+02 -0.42615267285E+02  0.12925098959E+03  0.13718770887E+03  0.00000000000E+00 0.  1.
        -13    1    3    3    0    0  0.34222675035E+02  0.22742674168E+02 -0.50074410108E+02  0.64775514375E+02  0.00000000000E+00 0. -1.
         13    1    3    3    0    0 -0.42645549926E+02  0.12850085316E+02  0.75890279200E+00  0.44545971250E+02  0.00000000000E+00 0.  1.
          4    1    1    2  501    0 -0.46879391334E+02 -0.39318422888E+02  0.15750576530E+03  0.16897242915E+03  0.00000000000E+00 0. -1.
<scales pt_clust_5="13000.00000" pt_clust_6="13000.00000" pt_clust_7="13000.00000" pt_clust_8="13000.00000" pt_clust_9="61.18509"></scales>
<clustering>
<clus scale="   61.185">  1  9  2 -1</clus>
<clus scale="   90.432">  5  6 -1 -1</clus>
<clus scale="   90.451">  7  8 -1 -1</clus>
<clus scale="   96.814">  1  5  2 -1</clus>
<clus scale="   61.185">  1  5  2 -1</clus>
</clustering>
</event>
<event>
 9    1  0.1601012E-005  0.9483090E+02  0.7546771E-02  0.1292147E+00
          2   -1    0    0  502    0 -0.00000000000E+00  0.00000000000E+00  0.33871078149E+03  0.33871078149E+03  0.00000000000E+00 0. -1.
         21   -1    0    0  501  502  0.00000000000E+00 -0.00000000000E+00 -0.12809477173E+03  0.12809477173E+03  0.00000000000E+00 0. -1.
         23    2    1    2    0    0 -0.11110558803E+02  0.20585328668E+02  0.18364861441E+03  0.20601608016E+03  0.90380370855E+02 0.  0.
         23    2    1    2    0    0  0.32724659099E+02 -0.76578361482E+01  0.12561655355E+03  0.15897618411E+03  0.91456890498E+02 0.  0.
        -11    1    3    3    0    0 -0.32416635228E+02  0.46641177547E+02  0.13856101424E+03  0.14975110133E+03  0.00000000000E+00 0.  1.
         11    1    3    3    0    0  0.21306076424E+02 -0.26055848879E+02  0.45087600165E+02  0.56264978824E+02  0.00000000000E+00 0. -1.
        -13    1    4    4    0    0 -0.20770843158E+02 -0.28367492070E+02  0.24948598330E+02  0.43111194491E+02  0.00000000000E+00 0.  1.
         13    1    4    4    0    0  0.53495502257E+02  0.20709655922E+02  0.10066795522E+03  0.11586498962E+03  0.00000000000E+00 0. -1.
          2    1    1    2  501    0 -0.21614100295E+02 -0.12927492520E+02 -0.98649158204E+02  0.10181328896E+03  0.00000000000E+00 0. -1.
<scales pt_clust_5="13000.00000" pt_clust_6="13000.00000" pt_clust_7="13000.00000" pt_clust_8="13000.00000" pt_clust_9="25.18510"></scales>
<clustering>
<clus scale="   25.185">  2  9  1 -1</clus>
<clus scale="   90.380">  5  6 -1 -1</clus>
<clus scale="   91.457">  7  8 -1 -1</clus>
<clus scale="   93.793">  1  5  2 -1</clus>
<clus scale="   25.185">  2  5  1 -1</clus>
</clustering>
</event>
<event>
 9    1  0.1601012E-005  0.1025070E+03  0.7546771E-02  0.1275484E+00
          2   -1    0    0  502    0 -0.00000000000E+00  0.00000000000E+00  0.21114142010E+03  0.21114142010E+03  0.00000000000E+00 0. -1.
         21   -1    0    0  501  502  0.00000000000E+00 -0.00000000000E+00 -0.77751742410E+02  0.77751742410E+02  0.00000000000E+00 0.  1.
         23    2    1    2    0    0  0.30788296443E+02  0.44104855438E+02  0.11094942081E+03  0.15403726878E+03  0.92328482734E+02 0.  0.
         23    2    1    2    0    0 -0.15143580649E+02 -0.26969094864E+02  0.41198144561E+02  0.10501884003E+03  0.91515078171E+02 0.  0.
        -11    1    3    3    0    0  0.24359264841E+02 -0.10993209165E+02 -0.34026773751E+01  0.26940724649E+02  0.00000000000E+00 0. -1.
         11    1    3    3    0    0  0.64290316018E+01  0.55098064603E+02  0.11435209819E+03  0.12709654413E+03  0.00000000000E+00 0.  1.
        -11    1    4    4    0    0 -0.13651853858E+02  0.16777068738E+02  0.55018313912E+02  0.59117324152E+02  0.00000000000E+00 0. -1.
         11    1    4    4    0    0 -0.14917267917E+01 -0.43746163602E+02 -0.13820169351E+02  0.45901515875E+02  0.00000000000E+00 0.  1.
          2    1    1    2  501    0 -0.15644715793E+02 -0.17135760574E+02 -0.18757887689E+02  0.29837053696E+02  0.00000000000E+00 0. -1.
<scales pt_clust_5="13000.00000" pt_clust_6="13000.00000" pt_clust_7="13000.00000" pt_clust_8="13000.00000" pt_clust_9="23.20326"></scales>
<clustering>
<clus scale="   23.203">  2  9  1 -1</clus>
<clus scale="   91.515">  7  8 -1 -1</clus>
<clus scale="   92.328">  5  6 -1 -1</clus>
<clus scale="  101.775">  2  7  1 -1</clus>
<clus scale="   23.203">  2  5  1 -1</clus>
</clustering>
</event>
<event>
 9    1  0.1601012E-005  0.1381936E+03  0.7546771E-02  0.1216734E+00
         21   -1    0    0  501  502  0.00000000000E+00  0.00000000000E+00  0.71918820712E+03  0.71918820712E+03  0.00000000000E+00 0. -1.
          1   -1    0    0  502    0 -0.00000000000E+00 -0.00000000000E+00 -0.98060894610E+02  0.98060894610E+02  0.00000000000E+00 0. -1.
         23    2    1    2    0    0 -0.16159445108E+01  0.13847879835E+03  0.43460695725E+02  0.17148687101E+03  0.91323195223E+02 0.  0.
         23    2    1    2    0    0 -0.47579255852E+02 -0.61763267446E+02  0.84481476832E+02  0.14422756324E+03  0.87097550349E+02 0.  0.
        -13    1    4    4    0    0 -0.28548206135E+02 -0.73878450815E+01  0.81353527803E+02  0.86533096642E+02  0.00000000000E+00 0.  1.
         13    1    4    4    0    0 -0.19031049716E+02 -0.54375422365E+02  0.31279490292E+01  0.57694466596E+02  0.00000000000E+00 0. -1.
        -13    1    3    3    0    0  0.34656340602E+02  0.11001295867E+03  0.48458317922E+02  0.12510843934E+03  0.00000000000E+00 0. -1.
         13    1    3    3    0    0 -0.36272285113E+02  0.28465839682E+02 -0.49976221969E+01  0.46378431665E+02  0.00000000000E+00 0.  1.
          1    1    1    2  501    0  0.49195200363E+02 -0.76715530902E+02  0.49318513995E+03  0.50153466748E+03  0.00000000000E+00 0. -1.
<scales pt_clust_5="13000.00000" pt_clust_6="13000.00000" pt_clust_7="13000.00000" pt_clust_8="13000.00000" pt_clust_9="91.13419"></scales>
<clustering>
<clus scale="   87.098">  5  6 -1 -1</clus>
<clus scale="   91.134">  1  9  2 -1</clus>
<clus scale="   91.323">  7  8 -1 -1</clus>
<clus scale="  135.438">  1  5  2 -1</clus>
<clus scale="   91.134">  1  5  2 -1</clus>
</clustering>
</event>
<event>
 9    1  0.1601012E-005  0.9263076E+02  0.7546771E-02  0.1297750E+00
         21   -1    0    0  501  502  0.00000000000E+00  0.00000000000E+00  0.12859089977E+03  0.12859089977E+03  0.00000000000E+00 0. -1.
          1   -1    0    0  502    0 -0.00000000000E+00 -0.00000000000E+00 -0.24978242068E+03  0.24978242068E+03  0.00000000000E+00 0. -1.
         23    2    1    2    0    0 -0.38542811578E+02  0.14189047541E+02 -0.12506862479E+03  0.15954488655E+03  0.90141735739E+02 0.  0.
         23    2    1    2    0    0 -0.47582426557E+02  0.19912277280E+02 -0.45844652278E+02  0.11369656416E+03  0.90358123350E+02 0.  0.
        -13    1    4    4    0    0 -0.13359837241E+02  0.51738369636E+02 -0.90064968788E+01  0.54189123721E+02  0.00000000000E+00 0. -1.
         13    1    4    4    0    0 -0.34222589316E+02 -0.31826092356E+02 -0.36838155399E+02  0.59507440437E+02  0.00000000000E+00 0.  1.
        -13    1    3    3    0    0 -0.10685957412E+02 -0.18664026968E+02  0.53795911311E+01  0.22169248730E+02  0.00000000000E+00 0.  1.
         13    1    3    3    0    0 -0.27856854166E+02  0.32853074510E+02 -0.13044821592E+03  0.13737563782E+03  0.00000000000E+00 0. -1.
          1    1    1    2  501    0  0.86125238135E+02 -0.34101324821E+02  0.49721756159E+02  0.10513186973E+03  0.00000000000E+00 0. -1.
<scales pt_clust_5="13000.00000" pt_clust_6="13000.00000" pt_clust_7="13000.00000" pt_clust_8="13000.00000" pt_clust_9="92.63076"></scales>
<clustering>
<clus scale="   90.142">  7  8 -1 -1</clus>
<clus scale="   90.358">  5  6 -1 -1</clus>
<clus scale="   92.631">  1  9  2 -1</clus>
<clus scale="   90.684">  2  7  1 -1</clus>
<clus scale="   92.631">  1  5  2 -1</clus>
</clustering>
</event>
<event>
 9    1  0.1679299E-005  0.9178701E+02  0.7546771E-02  0.1301654E+00
         21   -1    0    0  501  502  0.00000000000E+00  0.00000000000E+00  0.20295744029E+03  0.20295744029E+03  0.00000000000E+00 0.  1.
         -3   -1    0    0    0  501 -0.00000000000E+00 -0.00000000000E+00 -0.30595472484E+03  0.30595472484E+03  0.00000000000E+00 0.  1.
         23    2    1    2    0    0 -0.12064863001E+02  0.30408151096E+01 -0.17510617211E+03  0.19580397798E+03  0.86730725856E+02 0.  0.
         23    2    1    2    0    0 -0.23511878970E+02  0.61006576884E+01 -0.99547453175E+02  0.13756568401E+03  0.91785595312E+02 0.  0.
        -11    1    4    4    0    0  0.64839793369E+01  0.34637350054E+02 -0.66512566610E+01  0.35861221702E+02  0.00000000000E+00 0.  1.
         11    1    4    4    0    0 -0.29995858307E+02 -0.28536692365E+02 -0.92896196514E+02  0.10170446231E+03  0.00000000000E+00 0. -1.
        -13    1    3    3    0    0 -0.32317497514E+01  0.27759178111E+02 -0.16551440228E+03  0.16785718196E+03  0.00000000000E+00 0.  1.
         13    1    3    3    0    0 -0.88331132496E+01 -0.24718363001E+02 -0.95917698301E+01  0.27946796017E+02  0.00000000000E+00 0. -1.
         -3    1    1    2    0  502  0.35576741971E+02 -0.91414727980E+01  0.17165634073E+03  0.17554250314E+03  0.00000000000E+00 0.  1.
<scales pt_clust_5="13000.00000" pt_clust_6="13000.00000" pt_clust_7="13000.00000" pt_clust_8="13000.00000" pt_clust_9="36.73243"></scales>
<clustering>
<clus scale="   36.732">  1  9  2 -1</clus>
<clus scale="   86.731">  7  8 -1 -1</clus>
<clus scale="   86.732">  2  7  1 -1</clus>
<clus scale="   91.786">  5  6 -1 -1</clus>
<clus scale="   36.732">  1  5  2 -1</clus>
</clustering>
</event>
<event>
 9    1  0.1601012E-005  0.1781888E+03  0.7546771E-02  0.1171707E+00
         21   -1    0    0  501  502  0.00000000000E+00  0.00000000000E+00  0.78148801517E+02  0.78148801517E+02  0.00000000000E+00 0. -1.
          1   -1    0    0  502    0 -0.00000000000E+00 -0.00000000000E+00 -0.69268925012E+03  0.69268925012E+03  0.00000000000E+00 0. -1.
         23    2    1    2    0    0 -0.88576657295E+02  0.40040722034E+02 -0.15637286056E+03  0.21141326989E+03  0.10389425166E+03 0.  0.
         23    2    1    2    0    0  0.16709192345E+03 -0.93069947570E+02 -0.38792748702E+03  0.44148234845E+03  0.88527977444E+02 0.  0.
        -11    1    4    4    0    0  0.10197465477E+03 -0.45205805812E+02 -0.30900723303E+03  0.32852376651E+03  0.00000000000E+00 0. -1.
         11    1    4    4    0    0  0.65117268674E+02 -0.47864141757E+02 -0.78920253987E+02  0.11295858195E+03  0.00000000000E+00 0.  1.
        -13    1    3    3    0    0 -0.29243832671E+01  0.43041778714E+02 -0.14222065457E+02  0.45424815665E+02  0.00000000000E+00 0.  1.
         13    1    3    3    0    0 -0.85652274028E+02 -0.30010566803E+01 -0.14215079510E+03  0.16598845422E+03  0.00000000000E+00 0. -1.
          1    1    1    2  501    0 -0.78515266151E+02  0.53029225536E+02 -0.70240101030E+02  0.11794243330E+03  0.00000000000E+00 0. -1.
<scales pt_clust_5="13000.00000" pt_clust_6="13000.00000" pt_clust_7="13000.00000" pt_clust_8="13000.00000" pt_clust_9="94.74569"></scales>
<clustering>
<clus scale="   88.528">  5  6 -1 -1</clus>
<clus scale="   94.746">  1  9  2 -1</clus>
<clus scale="  103.894">  7  8 -1 -1</clus>
<clus scale="  169.689">  1  5  2 -1</clus>
<clus scale="   94.746">  1  5  2 -1</clus>
</clustering>
</event>
<event>
 9    1  0.1601012E-005  0.1179753E+03  0.7546771E-02  0.1251385E+00
         21   -1    0    0  501  502  0.00000000000E+00  0.00000000000E+00  0.36619969494E+02  0.36619969494E+02  0.00000000000E+00 0. -1.
         -1   -1    0    0    0  501 -0.00000000000E+00 -0.00000000000E+00 -0.51766870128E+03  0.51766870128E+03  0.00000000000E+00 0.  1.
         23    2    1    2    0    0  0.42855320607E+02 -0.45770696319E+02 -0.21608060119E+03  0.23783738251E+03  0.77099021796E+02 0.  0.
         23    2    1    2    0    0 -0.65843718661E+02  0.61518053800E+02 -0.25711802917E+03  0.28750185295E+03  0.91802877366E+02 0.  0.
        -11    1    3    3    0    0  0.41154427662E+02 -0.66651036415E+02 -0.16613141762E+03  0.18367279464E+03  0.00000000000E+00 0.  1.
         11    1    3    3    0    0  0.17008929449E+01  0.20880340096E+02 -0.49949183571E+02  0.54164587866E+02  0.00000000000E+00 0. -1.
        -13    1    4    4    0    0 -0.42980134410E+02  0.15108584571E+01 -0.18922601292E+03  0.19405169057E+03  0.00000000000E+00 0.  1.
         13    1    4    4    0    0 -0.22863584251E+02  0.60007195343E+02 -0.67892016252E+02  0.93450162378E+02  0.00000000000E+00 0. -1.
         -1    1    1    2    0  502  0.22988398054E+02 -0.15747357482E+02 -0.78501014197E+01  0.28949435315E+02  0.00000000000E+00 0.  1.
<scales pt_clust_5="13000.00000" pt_clust_6="13000.00000" pt_clust_7="13000.00000" pt_clust_8="13000.00000" pt_clust_9="27.86478"></scales>
<clustering>
<clus scale="   27.865">  1  9  2 -1</clus>
<clus scale="   77.099">  5  6 -1 -1</clus>
<clus scale="   91.803">  7  8 -1 -1</clus>
<clus scale="  106.933">  2  5  1 -1</clus>
<clus scale="   27.865">  1  5  2 -1</clus>
</clustering>
</event>
<event>
 9    1  0.1601012E-005  0.1398501E+03  0.7546771E-02  0.1233665E+00
         21   -1    0    0  501  502  0.00000000000E+00  0.00000000000E+00  0.72305316437E+02  0.72305316437E+02  0.00000000000E+00 0. -1.
          1   -1    0    0  502    0 -0.00000000000E+00 -0.00000000000E+00 -0.41735715918E+03  0.41735715918E+03  0.00000000000E+00 0. -1.
         23    2    1    2    0    0 -0.12028449875E+02  0.67441964471E+01 -0.14654878317E+03  0.17296192019E+03  0.90824623286E+02 0.  0.
         23    2    1    2    0    0 -0.40596670713E+02 -0.98883854178E+02 -0.12066922776E+03  0.18510562688E+03  0.90977603205E+02 0.  0.
        -13    1    3    3    0    0  0.38822969946E+02 -0.42064303100E+00 -0.47123510654E+02  0.61057556390E+02  0.00000000000E+00 0.  1.
         13    1    3    3    0    0 -0.50851419821E+02  0.71648394781E+01 -0.99425272520E+02  0.11190436380E+03  0.00000000000E+00 0. -1.
        -13    1    4    4    0    0 -0.34012462074E+02 -0.56707537453E+02 -0.12579078318E+03  0.14211232710E+03  0.00000000000E+00 0. -1.
         13    1    4    4    0    0 -0.65842086382E+01 -0.42176316725E+02  0.51215554254E+01  0.42993299779E+02  0.00000000000E+00 0.  1.
          1    1    1    2  501    0  0.52625120588E+02  0.92139657731E+02 -0.77833831808E+02  0.13159492854E+03  0.00000000000E+00 0. -1.
<scales pt_clust_5="13000.00000" pt_clust_6="13000.00000" pt_clust_7="13000.00000" pt_clust_8="13000.00000" pt_clust_9="106.21262"></scales>
<clustering>
<clus scale="   90.825">  5  6 -1 -1</clus>
<clus scale="   90.978">  7  8 -1 -1</clus>
<clus scale="   91.866">  2  5  1 -1</clus>
<clus scale="  106.213">  1  9  2 -1</clus>
<clus scale="  106.213">  1  5  2 -1</clus>
</clustering>
</event>
<event>
 9    1  0.1601012E-005  0.9406940E+02  0.7546771E-02  0.1295665E+00
         -4   -1    0    0    0  501 -0.00000000000E+00  0.00000000000E+00  0.15573267412E+03  0.15573267412E+03  0.00000000000E+00 0.  1.
         21   -1    0    0  501  502  0.00000000000E+00 -0.00000000000E+00 -0.11003290526E+03  0.11003290526E+03  0.00000000000E+00 0. -1.
         23    2    1    2    0    0  0.87580389129E+01  0.21449048970E+00  0.52584879820E+02  0.10172663746E+03  0.86639424807E+02 0.  0.
         23    2    1    2    0    0 -0.48180507192E+02  0.64305462849E+00  0.32941635562E+02  0.10799399455E+03  0.90861304812E+02 0.  0.
        -11    1    4    4    0    0  0.23805354167E+02  0.15524026400E+02  0.28396706760E+01  0.28561407742E+02  0.00000000000E+00 0.  1.
         11    1    4    4    0    0 -0.71985861359E+02 -0.14880971771E+02  0.30101964886E+02  0.79432586804E+02  0.00000000000E+00 0. -1.
        -13    1    3    3    0    0  0.14249296512E+02 -0.31844303930E+02  0.59030006191E+02  0.68568533416E+02  0.00000000000E+00 0.  1.
         13    1    3    3    0    0 -0.54912575990E+01  0.32058794420E+02 -0.64451263708E+01  0.33158104041E+02  0.00000000000E+00 0. -1.
         -4    1    1    2    0  502  0.39422468279E+02 -0.85754511819E+00 -0.39826746521E+02  0.56044947384E+02  0.00000000000E+00 0.  1.
<scales pt_clust_5="13000.00000" pt_clust_6="13000.00000" pt_clust_7="13000.00000" pt_clust_8="13000.00000" pt_clust_9="39.43179"></scales>
<clustering>
<clus scale="   39.432">  2  9  1 -1</clus>
<clus scale="   86.639">  7  8 -1 -1</clus>
<clus scale="   89.998">  1  7  2 -1</clus>
<clus scale="   90.861">  5  6 -1 -1</clus>
<clus scale="   39.432">  2  5  1 -1</clus>
</clustering>
</event>
<event>
 9    1  0.1601012E-005  0.9792076E+02  0.7546771E-02  0.1285134E+00
          2   -1    0    0  502    0 -0.00000000000E+00  0.00000000000E+00  0.23013072678E+03  0.23013072678E+03  0.00000000000E+00 0. -1.
         21   -1    0    0  501  502  0.00000000000E+00 -0.00000000000E+00 -0.24099158223E+03  0.24099158223E+03  0.00000000000E+00 0. -1.
         23    2    1    2    0    0  0.33090485130E+02  0.40207527553E+02  0.10849840349E+03  0.15080467724E+03  0.90876408595E+02 0.  0.
         23    2    1    2    0    0 -0.40863899938E+02  0.51230168766E+02  0.54286532099E+02  0.12391463019E+03  0.90074521915E+02 0.  0.
        -11    1    4    4    0    0 -0.25397652705E+02  0.16498309002E+02 -0.22835573551E+02  0.37930177725E+02  0.00000000000E+00 0.  1.
         11    1    4    4    0    0 -0.15466247234E+02  0.34731859764E+02  0.77122105650E+02  0.85984452467E+02  0.00000000000E+00 0. -1.
        -13    1    3    3    0    0  0.27811840207E+01  0.42389082860E+02  0.48058810908E+01  0.42751208443E+02  0.00000000000E+00 0.  1.
         13    1    3    3    0    0  0.30309301109E+02 -0.21815553067E+01  0.10369252240E+03  0.10805346880E+03  0.00000000000E+00 0. -1.
          2    1    1    2  501    0  0.77734148086E+01 -0.91437696319E+02 -0.17364579103E+03  0.19640300158E+03  0.00000000000E+00 0. -1.
<scales pt_clust_5="13000.00000" pt_clust_6="13000.00000" pt_clust_7="13000.00000" pt_clust_8="13000.00000" pt_clust_9="91.76752"></scales>
<clustering>
<clus scale="   90.075">  5  6 -1 -1</clus>
<clus scale="   90.876">  7  8 -1 -1</clus>
<clus scale="   91.768">  2  9  1 -1</clus>
<clus scale="   97.177">  2  5  1 -1</clus>
<clus scale="   91.768">  2  5  1 -1</clus>
</clustering>
</event>
<event>
 9    1  0.1601012E-005  0.1211306E+03  0.7546771E-02  0.1242030E+00
          1   -1    0    0  502    0 -0.00000000000E+00  0.00000000000E+00  0.11823759554E+04  0.11823759554E+04  0.00000000000E+00 0. -1.
         21   -1    0    0  501  502  0.00000000000E+00 -0.00000000000E+00 -0.19649720718E+02  0.19649720718E+02  0.00000000000E+00 0.  1.
         23    2    1    2    0    0 -0.25684531305E+02  0.10018658007E+03  0.68868408788E+03  0.70234021514E+03  0.91098621992E+02 0.  0.
         23    2    1    2    0    0  0.22751193133E+02 -0.44688230492E+02  0.28369439397E+03  0.30139038215E+03  0.88538119199E+02 0.  0.
        -11    1    4    4    0    0 -0.11474335105E+02  0.22676415704E+02  0.88662898304E+02  0.92233343921E+02  0.00000000000E+00 0. -1.
         11    1    4    4    0    0  0.34225528238E+02 -0.67364646196E+02  0.19503149567E+03  0.20915703823E+03  0.00000000000E+00 0.  1.
        -13    1    3    3    0    0  0.28412949831E+02  0.66126187264E+02  0.42257986060E+03  0.42866502884E+03  0.00000000000E+00 0.  1.
         13    1    3    3    0    0 -0.54097481136E+02  0.34060392803E+02  0.26610422728E+03  0.27367518631E+03  0.00000000000E+00 0. -1.
          1    1    1    2  501    0  0.29333381714E+01 -0.55498349575E+02  0.19034775286E+03  0.19829507885E+03  0.00000000000E+00 0. -1.
<scales pt_clust_5="13000.00000" pt_clust_6="13000.00000" pt_clust_7="13000.00000" pt_clust_8="13000.00000" pt_clust_9="55.57582"></scales>
<clustering>
<clus scale="   55.576">  2  9  1 -1</clus>
<clus scale="   88.538">  5  6 -1 -1</clus>
<clus scale="   91.099">  7  8 -1 -1</clus>
<clus scale="  119.217">  2  5  1 -1</clus>
<clus scale="   55.576">  2  5  1 -1</clus>
</clustering>
</event>
<event>
 9    1  0.1601012E-005  0.1104763E+03  0.7546771E-02  0.1259828E+00
         -2   -1    0    0    0  501 -0.00000000000E+00  0.00000000000E+00  0.34553562340E+03  0.34553562340E+03  0.00000000000E+00 0.  1.
         21   -1    0    0  501  502  0.00000000000E+00 -0.00000000000E+00 -0.74150753596E+02  0.74150753596E+02  0.00000000000E+00 0. -1.
         23    2    1    2    0    0  0.35861654819E+00 -0.46255251525E+02  0.15689608327E+03  0.18740097196E+03  0.91449802892E+02 0.  0.
         23    2    1    2    0    0 -0.88023480050E+01  0.10653596597E+03  0.70216886784E+02  0.15701879728E+03  0.91088408353E+02 0.  0.
        -13    1    3    3    0    0  0.42328602210E+02 -0.25097802877E+02  0.11230362250E+03  0.12261204631E+03  0.00000000000E+00 0.  1.
         13    1    3    3    0    0 -0.41969985661E+02 -0.21157448648E+02  0.44592460763E+02  0.64788925648E+02  0.00000000000E+00 0. -1.
        -13    1    4    4    0    0 -0.34871392332E+02  0.88474048702E+02  0.79523871197E+02  0.12396659787E+03  0.00000000000E+00 0. -1.
         13    1    4    4    0    0  0.26069044327E+02  0.18061917264E+02 -0.93069844125E+01  0.33052199416E+02  0.00000000000E+00 0.  1.
         -2    1    1    2    0  502  0.84437314568E+01 -0.60280714441E+02  0.44271899756E+02  0.75266607752E+02  0.00000000000E+00 0.  1.
<scales pt_clust_5="13000.00000" pt_clust_6="13000.00000" pt_clust_7="13000.00000" pt_clust_8="13000.00000" pt_clust_9="60.86921"></scales>
<clustering>
<clus scale="   60.869">  2  9  1 -1</clus>
<clus scale="   91.088">  7  8 -1 -1</clus>
<clus scale="   91.450">  5  6 -1 -1</clus>
<clus scale="  110.177">  2  7  1 -1</clus>
<clus scale="   60.869">  2  5  1 -1</clus>
</clustering>
</event>
<event>
 9    1  0.1601012E-005  0.1045544E+03  0.7546771E-02  0.1272995E+00
         -1   -1    0    0    0  501 -0.00000000000E+00  0.00000000000E+00  0.25151825844E+03  0.25151825844E+03  0.00000000000E+00 0.  1.
         21   -1    0    0  501  502  0.00000000000E+00 -0.00000000000E+00 -0.72678325549E+02  0.72678325549E+02  0.00000000000E+00 0. -1.
         23    2    1    2    0    0 -0.31494929983E+02 -0.32390356073E+02  0.14317608117E+03  0.17770389003E+03  0.95069535237E+02 0.  0.
         23    2    1    2    0    0 -0.18838271234E+01  0.50572063451E+02  0.29526688090E+02  0.10799099677E+03  0.90714649690E+02 0.  0.
        -13    1    3    3    0    0 -0.19802814001E+02 -0.54545773826E+02  0.14109998310E+03  0.15256670054E+03  0.00000000000E+00 0.  1.
         13    1    3    3    0    0 -0.11692115981E+02  0.22155417753E+02  0.20760980735E+01  0.25137189484E+02  0.00000000000E+00 0. -1.
        -13    1    4    4    0    0 -0.21123002696E+02  0.54055199542E+01  0.50193665913E+02  0.54724811436E+02  0.00000000000E+00 0.  1.
         13    1    4    4    0    0  0.19239175572E+02  0.45166543497E+02 -0.20666977823E+02  0.53266185339E+02  0.00000000000E+00 0. -1.
         -1    1    1    2    0  502  0.33378757106E+02 -0.18181707379E+02  0.61371636356E+01  0.38501697192E+02  0.00000000000E+00 0.  1.
<scales pt_clust_5="13000.00000" pt_clust_6="13000.00000" pt_clust_7="13000.00000" pt_clust_8="13000.00000" pt_clust_9="38.00942"></scales>
<clustering>
<clus scale="   38.009">  2  9  1 -1</clus>
<clus scale="   90.715">  7  8 -1 -1</clus>
<clus scale="   95.070">  5  6 -1 -1</clus>
<clus scale="  100.611">  2  7  1 -1</clus>
<clus scale="   38.009">  2  5  1 -1</clus>
</clustering>
</event>
<event>
 9    1  0.1601012E-005  0.1251832E+03  0.7546771E-02  0.1236810E+00
          1   -1    0    0  502    0 -0.00000000000E+00  0.00000000000E+00  0.10062143050E+03  0.10062143050E+03  0.00000000000E+00 0. -1.
         21   -1    0    0  501  502  0.00000000000E+00 -0.00000000000E+00 -0.50655040755E+03  0.50655040755E+03  0.00000000000E+00 0.  1.
         23    2    1    2    0    0 -0.39058278506E+02 -0.68756402145E+02  0.33055344107E+02  0.12828893054E+03  0.95458901988E+02 0.  0.
         23    2    1    2    0    0  0.35814989116E+01  0.10578866895E+03 -0.34872580599E+03  0.37507255044E+03  0.88688560264E+02 0.  0.
        -11    1    3    3    0    0 -0.18331284257E+00 -0.82637381400E+02  0.23591286670E+02  0.85939043601E+02  0.00000000000E+00 0. -1.
         11    1    3    3    0    0 -0.38874965664E+02  0.13880979255E+02  0.94640574374E+01  0.42349886938E+02  0.00000000000E+00 0.  1.
        -13    1    4    4    0    0 -0.42011213560E+02  0.39730740388E+02 -0.14778102423E+03  0.15869059493E+03  0.00000000000E+00 0. -1.
         13    1    4    4    0    0  0.45592712472E+02  0.66057928563E+02 -0.20094478176E+03  0.21638195552E+03  0.00000000000E+00 0.  1.
          1    1    1    2  501    0  0.35476779595E+02 -0.37032266806E+02 -0.90258515165E+02  0.10381035707E+03  0.00000000000E+00 0. -1.
<scales pt_clust_5="13000.00000" pt_clust_6="13000.00000" pt_clust_7="13000.00000" pt_clust_8="13000.00000" pt_clust_9="51.28343"></scales>
<clustering>
<clus scale="   51.283">  2  9  1 -1</clus>
<clus scale="   88.689">  7  8 -1 -1</clus>
<clus scale="   95.459">  5  6 -1 -1</clus>
<clus scale="  120.100">  2  7  1 -1</clus>
<clus scale="   51.283">  2  5  1 -1</clus>
</clustering>
</event>
<event>
 9    1  0.1601012E-005  0.1690028E+03  0.7546771E-02  0.1198456E+00
         -1   -1    0    0    0  501 -0.00000000000E+00  0.00000000000E+00  0.38014249970E+03  0.38014249970E+03  0.00000000000E+00 0.  1.
         21   -1    0    0  501  502  0.00000000000E+00 -0.00000000000E+00 -0.28013338329E+03  0.28013338329E+03  0.00000000000E+00 0. -1.
         23    2    1    2    0    0 -0.47493941793E+02 -0.27645433628E+02  0.27064988560E+03  0.29199103338E+03  0.94802207201E+02 0.  0.
         23    2    1    2    0    0 -0.95508754841E+02  0.93127846540E+02 -0.12310702275E+03  0.20397667971E+03  0.93039931015E+02 0.  0.
        -11    1    3    3    0    0  0.42627178228E+01 -0.46238271459E+02  0.70460056963E+02  0.84384643970E+02  0.00000000000E+00 0. -1.
         11    1    3    3    0    0 -0.51756659616E+02  0.18592837831E+02  0.20018982864E+03  0.20760638941E+03  0.00000000000E+00 0.  1.
        -11    1    4    4    0    0 -0.10533493160E+03  0.52132322332E+02 -0.72422251150E+02  0.13805147340E+03  0.00000000000E+00 0.  1.
         11    1    4    4    0    0  0.98261767588E+01  0.40995524208E+02 -0.50684771598E+02  0.65925206308E+02  0.00000000000E+00 0. -1.
         -1    1    1    2    0  502  0.14300269663E+03 -0.65482412912E+02 -0.47533746445E+02  0.16430816990E+03  0.00000000000E+00 0.  1.
<scales pt_clust_5="13000.00000" pt_clust_6="13000.00000" pt_clust_7="13000.00000" pt_clust_8="13000.00000" pt_clust_9="141.08693"></scales>
<clustering>
<clus scale="   93.040">  7  8 -1 -1</clus>
<clus scale="   94.802">  5  6 -1 -1</clus>
<clus scale="  109.578">  1  5  2 -1</clus>
<clus scale="  141.087">  2  9  1 -1</clus>
<clus scale="  141.087">  2  5  1 -1</clus>
</clustering>
</event>
<event>
 9    1  0.1601012E-005  0.9873385E+02  0.7546771E-02  0.1287915E+00
         21   -1    0    0  501  502  0.00000000000E+00  0.00000000000E+00  0.78753965440E+02  0.78753965440E+02  0.00000000000E+00 0.  1.
          3   -1    0    0  502    0 -0.00000000000E+00 -0.00000000000E+00 -0.18075863518E+03  0.18075863518E+03  0.00000000000E+00 0. -1.
         23    2    1    2    0    0 -0.18516009747E+02  0.47468974889E+01 -0.84485619361E+02  0.12291987034E+03  0.87212951972E+02 0.  0.
         23    2    1    2    0    0  0.32066580444E+02  0.15302549612E+02  0.61111037722E+01  0.10276992022E+03  0.96238647680E+02 0.  0.
        -11    1    3    3    0    0  0.22140938647E+02 -0.26188482489E+02 -0.16995344359E+02  0.38274005658E+02  0.00000000000E+00 0.  1.
         11    1    3    3    0    0 -0.40656948393E+02  0.30935379978E+02 -0.67490275002E+02  0.84645864677E+02  0.00000000000E+00 0. -1.
        -11    1    4    4    0    0  0.51082968755E+02  0.37212365847E+02  0.25203223123E+02  0.68039931838E+02  0.00000000000E+00 0.  1.
         11    1    4    4    0    0 -0.19016388311E+02 -0.21909816235E+02 -0.19092119351E+02  0.34729988384E+02  0.00000000000E+00 0. -1.
          3    1    1    2  501    0 -0.13550570697E+02 -0.20049447100E+02 -0.23630154147E+02  0.33822810059E+02  0.00000000000E+00 0. -1.
<scales pt_clust_5="13000.00000" pt_clust_6="13000.00000" pt_clust_7="13000.00000" pt_clust_8="13000.00000" pt_clust_9="24.19915"></scales>
<clustering>
<clus scale="   24.199">  1  9  2 -1</clus>
<clus scale="   87.213">  5  6 -1 -1</clus>
<clus scale="   89.959">  2  5  1 -1</clus>
<clus scale="   96.239">  7  8 -1 -1</clus>
<clus scale="   24.199">  1  5  2 -1</clus>
</clustering>
</event>
<event>
 9    1  0.1601012E-005  0.1164149E+03  0.7546771E-02  0.1249515E+00
          1   -1    0    0  502    0 -0.00000000000E+00  0.00000000000E+00  0.26123328827E+03  0.26123328827E+03  0.00000000000E+00 0. -1.
         21   -1    0    0  501  502  0.00000000000E+00 -0.00000000000E+00 -0.92703155523E+02  0.92703155523E+02  0.00000000000E+00 0. -1.
         23    2    1    2    0    0  0.54334548548E+02 -0.39368242770E+02  0.10638987164E+03  0.15518045274E+03  0.90884907556E+02 0.  0.
         23    2    1    2    0    0 -0.27959970597E+02  0.90982387972E+02  0.42040218110E+02  0.13740739632E+03  0.89743288035E+02 0.  0.
        -11    1    4    4    0    0 -0.32020884759E+02 -0.46513411412E+01 -0.11883905214E+01  0.32378763213E+02  0.00000000000E+00 0.  1.
         11    1    4    4    0    0  0.40609141615E+01  0.95633729113E+02  0.43228608631E+02  0.10502863311E+03  0.00000000000E+00 0. -1.
        -13    1    3    3    0    0  0.21356612481E+02 -0.64328592565E+02  0.84690645890E+02  0.10847478149E+03  0.00000000000E+00 0.  1.
         13    1    3    3    0    0  0.32977936067E+02  0.24960349795E+02  0.21699225752E+02  0.46705671255E+02  0.00000000000E+00 0. -1.
          1    1    1    2  501    0 -0.26374577951E+02 -0.51614145202E+02  0.20100042998E+02  0.61348594732E+02  0.00000000000E+00 0. -1.
<scales pt_clust_5="13000.00000" pt_clust_6="13000.00000" pt_clust_7="13000.00000" pt_clust_8="13000.00000" pt_clust_9="57.96239"></scales>
<clustering>
<clus scale="   57.962">  2  9  1 -1</clus>
<clus scale="   89.743">  5  6 -1 -1</clus>
<clus scale="   90.885">  7  8 -1 -1</clus>
<clus scale="  115.526">  2  5  1 -1</clus>
<clus scale="   57.962">  2  5  1 -1</clus>
</clustering>
</event>
<event>
 9    1  0.1601012E-005  0.1258730E+03  0.7546771E-02  0.1233841E+00
         -3   -1    0    0    0  501 -0.00000000000E+00  0.00000000000E+00  0.41488797417E+02  0.41488797417E+02  0.00000000000E+00 0.  1.
         21   -1    0    0  501  502  0.00000000000E+00 -0.00000000000E+00 -0.91221081256E+03  0.91221081256E+03  0.00000000000E+00 0.  1.
         23    2    1    2    0    0 -0.64271249464E+02  0.14985768355E+01 -0.24100394661E+03  0.26528647751E+03  0.90338107261E+02 0.  0.
         23    2    1    2    0    0  0.14064645627E+03  0.44813119226E+01 -0.56161668112E+03  0.58591078981E+03  0.89870180162E+02 0.  0.
        -11    1    4    4    0    0  0.93235028951E+02  0.22677935911E+02 -0.48213573963E+03  0.49159122330E+03  0.00000000000E+00 0. -1.
         11    1    4    4    0    0  0.47411427323E+02 -0.18196623989E+02 -0.79480941488E+02  0.94319566502E+02  0.00000000000E+00 0.  1.
        -11    1    3    3    0    0 -0.40517548278E+02  0.45406452283E+02 -0.13801618159E+03  0.15083727659E+03  0.00000000000E+00 0. -1.
         11    1    3    3    0    0 -0.23753701186E+02 -0.43907875447E+02 -0.10298776502E+03  0.11444920092E+03  0.00000000000E+00 0.  1.
         -3    1    1    2    0  502 -0.76375206810E+02 -0.59798887581E+01 -0.68101387414E+02  0.10250234267E+03  0.00000000000E+00 0.  1.
<scales pt_clust_5="13000.00000" pt_clust_6="13000.00000" pt_clust_7="13000.00000" pt_clust_8="13000.00000" pt_clust_9="76.60899"></scales>
<clustering>
<clus scale="   76.609">  2  9  1 -1</clus>
<clus scale="   89.870">  5  6 -1 -1</clus>
<clus scale="   90.338">  7  8 -1 -1</clus>
<clus scale="  125.538">  2  5  1 -1</clus>
<clus scale="   76.609">  2  5  1 -1</clus>
</clustering>
</event>
<event>
 9    1  0.1601012E-005  0.1127555E+03  0.7546771E-02  0.1255775E+00
         21   -1    0    0  501  502  0.00000000000E+00  0.00000000000E+00  0.40356242981E+03  0.40356242981E+03  0.00000000000E+00 0.  1.
         -3   -1    0    0    0  501 -0.00000000000E+00 -0.00000000000E+00 -0.83286622955E+02  0.83286622955E+02  0.00000000000E+00 0.  1.
         23    2    1    2    0    0  0.69939293285E+02 -0.15965762900E+02 -0.23797137011E+02  0.11777285807E+03  0.90320164065E+02 0.  0.
         23    2    1    2    0    0 -0.40492899452E+02  0.74116037335E+01  0.22559316501E+03  0.24669269194E+03  0.90941747198E+02 0.  0.
        -11    1    3    3    0    0  0.65040845302E+02  0.25155441582E+02 -0.29970190413E+02  0.75903360349E+02  0.00000000000E+00 0.  1.
         11    1    3    3    0    0  0.48984479826E+01 -0.41121204483E+02  0.61730534015E+01  0.41869497717E+02  0.00000000000E+00 0. -1.
        -11    1    4    4    0    0  0.27928597352E+02  0.12318600360E+02  0.83587957711E+02  0.88987084115E+02  0.00000000000E+00 0.  1.
         11    1    4    4    0    0 -0.68421496805E+02 -0.49069966262E+01  0.14200520730E+03  0.15770560783E+03  0.00000000000E+00 0. -1.
         -3    1    1    2    0  502 -0.29446393833E+02  0.85541591668E+01  0.11847977886E+03  0.12238350276E+03  0.00000000000E+00 0.  1.
<scales pt_clust_5="13000.00000" pt_clust_6="13000.00000" pt_clust_7="13000.00000" pt_clust_8="13000.00000" pt_clust_9="30.66372"></scales>
<clustering>
<clus scale="   30.664">  1  9  2 -1</clus>
<clus scale="   90.320">  5  6 -1 -1</clus>
<clus scale="   90.942">  7  8 -1 -1</clus>
<clus scale="  112.255">  2  5  1 -1</clus>
<clus scale="   30.664">  1  5  2 -1</clus>
</clustering>
</event>
<event>
 9    1  0.1601012E-005  0.1242039E+03  0.7546771E-02  0.1237151E+00
         -3   -1    0    0    0  501 -0.00000000000E+00  0.00000000000E+00  0.72299955250E+03  0.72299955250E+03  0.00000000000E+00 0.  1.
         21   -1    0    0  501  502  0.00000000000E+00 -0.00000000000E+00 -0.51165602668E+02  0.51165602668E+02  0.00000000000E+00 0. -1.
         23    2    1    2    0    0 -0.60168867803E+02 -0.44717656220E+02  0.37894115269E+03  0.39808862778E+03  0.96219524721E+02 0.  0.
         23    2    1    2    0    0  0.45226690195E+02  0.73762952432E+02  0.31285391339E+03  0.33779671463E+03  0.93501992680E+02 0.  0.
        -11    1    3    3    0    0 -0.59108336381E+02  0.16009695438E+02  0.18931731357E+03  0.19897525222E+03  0.00000000000E+00 0. -1.
         11    1    3    3    0    0 -0.10605314216E+01 -0.60727351658E+02  0.18962383912E+03  0.19911337556E+03  0.00000000000E+00 0.  1.
        -13    1    4    4    0    0  0.55079824037E+02  0.21736442943E+01  0.13370257703E+03  0.14461981486E+03  0.00000000000E+00 0.  1.
         13    1    4    4    0    0 -0.98531338420E+01  0.71589308138E+02  0.17915133635E+03  0.19317689977E+03  0.00000000000E+00 0. -1.
         -3    1    1    2    0  502  0.14942177608E+02 -0.29045296212E+02 -0.19961116238E+02  0.38279812763E+02  0.00000000000E+00 0.  1.
<scales pt_clust_5="13000.00000" pt_clust_6="13000.00000" pt_clust_7="13000.00000" pt_clust_8="13000.00000" pt_clust_9="32.66340"></scales>
<clustering>
<clus scale="   32.663">  2  9  1 -1</clus>
<clus scale="   93.502">  7  8 -1 -1</clus>
<clus scale="   96.220">  5  6 -1 -1</clus>
<clus scale="  122.111">  2  7  1 -1</clus>
<clus scale="   32.663">  2  5  1 -1</clus>
</clustering>
</event>
<event>
 9    1  0.1601012E-005  0.1460939E+03  0.7546771E-02  0.1205610E+00
         -2   -1    0    0    0  501 -0.00000000000E+00  0.00000000000E+00  0.22981799133E+03  0.22981799133E+03  0.00000000000E+00 0.  1.
         21   -1    0    0  501  502  0.00000000000E+00 -0.00000000000E+00 -0.72927332816E+03  0.72927332816E+03  0.00000000000E+00 0.  1.
         23    2    1    2    0    0  0.80432111024E+02  0.80193345295E+02  0.14149943275E+03  0.20380616279E+03  0.92814683148E+02 0.  0.
         23    2    1    2    0    0 -0.71472705901E+01 -0.13766014224E+03 -0.74940323431E+02  0.18166031952E+03  0.91558841041E+02 0.  0.
        -11    1    3    3    0    0  0.18227931277E+02  0.80830807363E+02  0.65688720264E+02  0.10573970336E+03  0.00000000000E+00 0. -1.
         11    1    3    3    0    0  0.62204179748E+02 -0.63746206831E+00  0.75810712491E+02  0.98066459426E+02  0.00000000000E+00 0.  1.
        -11    1    4    4    0    0 -0.41305757599E+01 -0.41578379736E+02  0.20200761237E+02  0.46410064341E+02  0.00000000000E+00 0.  1.
         11    1    4    4    0    0 -0.30166948302E+01 -0.96081762503E+02 -0.95141084668E+02  0.13525025518E+03  0.00000000000E+00 0. -1.
         -2    1    1    2    0  502 -0.73284840434E+02  0.57466796944E+02 -0.56601444615E+03  0.57362483718E+03  0.00000000000E+00 0.  1.
<scales pt_clust_5="13000.00000" pt_clust_6="13000.00000" pt_clust_7="13000.00000" pt_clust_8="13000.00000" pt_clust_9="93.12948"></scales>
<clustering>
<clus scale="   91.559">  7  8 -1 -1</clus>
<clus scale="   92.815">  5  6 -1 -1</clus>
<clus scale="   93.129">  2  9  1 -1</clus>
<clus scale="  145.299">  2  7  1 -1</clus>
<clus scale="   93.129">  2  5  1 -1</clus>
</clustering>
</event>
<event>
 9    1  0.1601012E-005  0.9224336E+02  0.7546771E-02  0.1297544E+00
         21   -1    0    0  501  502  0.00000000000E+00  0.00000000000E+00  0.65473014609E+02  0.65473014609E+02  0.00000000000E+00 0.  1.
          1   -1    0    0  502    0 -0.00000000000E+00 -0.00000000000E+00 -0.29500112304E+03  0.29500112304E+03  0.00000000000E+00 0. -1.
         23    2    1    2    0    0 -0.12911828866E+02 -0.82305279186E+01 -0.20912368116E+03  0.22856564859E+03  0.90967492973E+02 0.  0.
         23    2    1    2    0    0 -0.90801848178E+01  0.27866856192E+02 -0.31076097628E+02  0.10055376690E+03  0.91029252241E+02 0.  0.
        -11    1    4    4    0    0 -0.35327049744E+02  0.69763246398E+00  0.17164234202E+02  0.39282286980E+02  0.00000000000E+00 0.  1.
         11    1    4    4    0    0  0.26246864926E+02  0.27169223728E+02 -0.48240331830E+02  0.61271479919E+02  0.00000000000E+00 0. -1.
        -13    1    3    3    0    0  0.15192701573E+02 -0.42558556476E+02 -0.13287875974E+03  0.14035246239E+03  0.00000000000E+00 0. -1.
         13    1    3    3    0    0 -0.28104530439E+02  0.34328028558E+02 -0.76244921423E+02  0.88213186194E+02  0.00000000000E+00 0.  1.
          1    1    1    2  501    0  0.21992013684E+02 -0.19636328273E+02  0.10671670354E+02  0.31354722165E+02  0.00000000000E+00 0. -1.
<scales pt_clust_5="13000.00000" pt_clust_6="13000.00000" pt_clust_7="13000.00000" pt_clust_8="13000.00000" pt_clust_9="29.48278"></scales>
<clustering>
<clus scale="   29.483">  1  9  2 -1</clus>
<clus scale="   90.967">  7  8 -1 -1</clus>
<clus scale="   91.029">  5  6 -1 -1</clus>
<clus scale="   92.182">  2  7  1 -1</clus>
<clus scale="   29.483">  1  5  2 -1</clus>
</clustering>
</event>
<event>
 9    1  0.1601012E-005  0.9747619E+02  0.7546771E-02  0.1285778E+00
          4   -1    0    0  502    0 -0.00000000000E+00  0.00000000000E+00  0.10129163882E+03  0.10129163882E+03  0.00000000000E+00 0. -1.
         21   -1    0    0  501  502  0.00000000000E+00 -0.00000000000E+00 -0.21929502497E+03  0.21929502497E+03  0.00000000000E+00 0.  1.
         23    2    1    2    0    0 -0.11104073478E+02  0.31981881781E+02  0.25647242483E+02  0.99520038876E+02  0.90001754877E+02 0.  0.
         23    2    1    2    0    0  0.77294880071E+01 -0.54775844517E+02 -0.16081522338E+03  0.19233378870E+03  0.89836585405E+02 0.  0.
        -11    1    4    4    0    0  0.51304857662E+01  0.24684132612E+02 -0.49400152615E+02  0.55461728835E+02  0.00000000000E+00 0. -1.
         11    1    4    4    0    0  0.25990022409E+01 -0.79459977128E+02 -0.11141507077E+03  0.13687205987E+03  0.00000000000E+00 0.  1.
        -13    1    3    3    0    0 -0.90071988797E+00 -0.23235345820E+02 -0.17170653501E+02  0.28905430863E+02  0.00000000000E+00 0.  1.
         13    1    3    3    0    0 -0.10203353590E+02  0.55217227601E+02  0.42817895984E+02  0.70614608014E+02  0.00000000000E+00 0. -1.
          4    1    1    2  501    0  0.33745854713E+01  0.22793962736E+02  0.17164594744E+02  0.28732836217E+02  0.00000000000E+00 0. -1.
<scales pt_clust_5="13000.00000" pt_clust_6="13000.00000" pt_clust_7="13000.00000" pt_clust_8="13000.00000" pt_clust_9="23.04242"></scales>
<clustering>
<clus scale="   23.042">  2  9  1 -1</clus>
<clus scale="   89.837">  5  6 -1 -1</clus>
<clus scale="   90.002">  7  8 -1 -1</clus>
<clus scale="   97.324">  2  5  1 -1</clus>
<clus scale="   23.042">  2  5  1 -1</clus>
</clustering>
</event>
<event>
 9    1  0.2378854E-005  0.9626445E+02  0.7546771E-02  0.1288558E+00
         21   -1    0    0  501  502  0.00000000000E+00  0.00000000000E+00  0.34504038965E+03  0.34504038965E+03  0.00000000000E+00 0.  1.
         -2   -1    0    0    0  501 -0.00000000000E+00 -0.00000000000E+00 -0.20434615664E+03  0.20434615664E+03  0.00000000000E+00 0.  1.
         23    2    1    2    0    0 -0.72449718928E+01  0.53156968294E+01 -0.80233324691E+02  0.12260480163E+03  0.92270280925E+02 0.  0.
         23    2    1    2    0    0  0.46004813472E+02 -0.22888915928E+02 -0.74074803810E+02  0.12872548042E+03  0.91884859553E+02 0.  0.
        -11    1    3    3    0    0  0.38190663787E+02 -0.10493003666E+02 -0.56400294098E+02  0.68917509391E+02  0.00000000000E+00 0.  1.
         11    1    3    3    0    0 -0.45435635680E+02  0.15808700495E+02 -0.23833030593E+02  0.53687292241E+02  0.00000000000E+00 0. -1.
        -13    1    4    4    0    0  0.42352144910E+02  0.13027207422E+02 -0.80658873130E+02  0.92028615801E+02  0.00000000000E+00 0.  1.
         13    1    4    4    0    0  0.36526685623E+01 -0.35916123350E+02  0.65840693197E+01  0.36696864620E+02  0.00000000000E+00 0. -1.
         -2    1    1    2    0  502 -0.38759841579E+02  0.17573219098E+02  0.29500236152E+03  0.29805626424E+03  0.00000000000E+00 0.  1.
<scales pt_clust_5="13000.00000" pt_clust_6="13000.00000" pt_clust_7="13000.00000" pt_clust_8="13000.00000" pt_clust_9="42.55753"></scales>
<clustering>
<clus scale="   42.558">  1  9  2 -1</clus>
<clus scale="   91.885">  7  8 -1 -1</clus>
<clus scale="   92.270">  5  6 -1 -1</clus>
<clus scale="   95.895">  1  7  2 -1</clus>
<clus scale="   42.558">  1  5  2 -1</clus>
</clustering>
</event>
<event>
 9    1  0.1601012E-005  0.1644860E+03  0.7546771E-02  0.1184886E+00
         21   -1    0    0  501  502  0.00000000000E+00  0.00000000000E+00  0.73710997909E+02  0.73710997909E+02  0.00000000000E+00 0.  1.
          1   -1    0    0  502    0 -0.00000000000E+00 -0.00000000000E+00 -0.92914329448E+03  0.92914329448E+03  0.00000000000E+00 0. -1.
         23    2    1    2    0    0 -0.23735682777E+02  0.12667230862E+03 -0.44463813898E+03  0.47329806627E+03  0.98482122689E+02 0.  0.
         23    2    1    2    0    0  0.14938671989E+03 -0.97430227096E+02 -0.20482159572E+03  0.28651717843E+03  0.91275222443E+02 0.  0.
        -13    1    4    4    0    0  0.72134001386E+02 -0.89192609858E+02 -0.81320021545E+02  0.14061145655E+03  0.00000000000E+00 0.  1.
         13    1    4    4    0    0  0.77252718501E+02 -0.82376172378E+01 -0.12350157418E+03  0.14590572188E+03  0.00000000000E+00 0. -1.
        -13    1    3    3    0    0 -0.95123901656E+01  0.51077447717E+02 -0.53154335700E+02  0.74328827757E+02  0.00000000000E+00 0.  1.
         13    1    3    3    0    0 -0.14223292612E+02  0.75594860900E+02 -0.39148380328E+03  0.39896923851E+03  0.00000000000E+00 0. -1.
          1    1    1    2  501    0 -0.12565103711E+03 -0.29242081521E+02 -0.20597256187E+03  0.24303904769E+03  0.00000000000E+00 0. -1.
<scales pt_clust_5="13000.00000" pt_clust_6="13000.00000" pt_clust_7="13000.00000" pt_clust_8="13000.00000" pt_clust_9="129.00885"></scales>
<clustering>
<clus scale="   91.275">  5  6 -1 -1</clus>
<clus scale="   98.482">  7  8 -1 -1</clus>
<clus scale="  129.009">  1  9  2 -1</clus>
<clus scale="  160.275">  1  5  2 -1</clus>
<clus scale="  129.009">  1  5  2 -1</clus>
</clustering>
</event>
<event>
 9    1  0.1601012E-005  0.1037168E+03  0.7546771E-02  0.1272912E+00
         -3   -1    0    0    0  501 -0.00000000000E+00  0.00000000000E+00  0.45236658894E+03  0.45236658894E+03  0.00000000000E+00 0.  1.
         21   -1    0    0  501  502  0.00000000000E+00 -0.00000000000E+00 -0.67124124262E+03  0.67124124262E+03  0.00000000000E+00 0.  1.
         23    2    1    2    0    0 -0.16439149905E+02 -0.68565219679E+02  0.34152296643E+03  0.36058713629E+03  0.91726284451E+02 0.  0.
         23    2    1    2    0    0 -0.27141213737E+02 -0.53153121665E+00  0.75775488646E+02  0.12162391216E+03  0.91178524455E+02 0.  0.
        -11    1    4    4    0    0  0.12245930884E+02 -0.37032255612E+02  0.18692629515E+02  0.43252343025E+02  0.00000000000E+00 0.  1.
         11    1    4    4    0    0 -0.39387144620E+02  0.36500724395E+02  0.57082859131E+02  0.78371569139E+02  0.00000000000E+00 0. -1.
        -13    1    3    3    0    0  0.32395975844E+02 -0.46308163337E+02  0.22973013317E+03  0.23657954123E+03  0.00000000000E+00 0.  1.
         13    1    3    3    0    0 -0.48835125749E+02 -0.22257056342E+02  0.11179283325E+03  0.12400759505E+03  0.00000000000E+00 0. -1.
         -3    1    1    2    0  502  0.43580363642E+02  0.69096750896E+02 -0.63617310876E+03  0.64139678311E+03  0.00000000000E+00 0.  1.
<scales pt_clust_5="13000.00000" pt_clust_6="13000.00000" pt_clust_7="13000.00000" pt_clust_8="13000.00000" pt_clust_9="81.69216"></scales>
<clustering>
<clus scale="   81.692">  2  9  1 -1</clus>
<clus scale="   91.179">  5  6 -1 -1</clus>
<clus scale="   91.726">  7  8 -1 -1</clus>
<clus scale="  103.233">  2  5  1 -1</clus>
<clus scale="   81.692">  2  5  1 -1</clus>
</clustering>
</event>
<event>
 9    1  0.1601012E-005  0.1906689E+03  0.7546771E-02  0.1158500E+00
         21   -1    0    0  501  502  0.00000000000E+00  0.00000000000E+00  0.21732512727E+03  0.21732512727E+03  0.00000000000E+00 0.  1.
          2   -1    0    0  502    0 -0.00000000000E+00 -0.00000000000E+00 -0.36491609009E+03  0.36491609009E+03  0.00000000000E+00 0. -1.
         23    2    1    2    0    0  0.14290017319E+03  0.56448467659E+02 -0.12150197644E+03  0.21658059392E+03  0.92398779131E+02 0.  0.
         23    2    1    2    0    0 -0.20472299911E+03  0.43514830905E+02 -0.74748321030E+02  0.23845034983E+03  0.86407239069E+02 0.  0.
        -13    1    4    4    0    0 -0.77123603941E+02  0.44584241257E+02  0.28056740749E+01  0.89127305919E+02  0.00000000000E+00 0. -1.
         13    1    4    4    0    0 -0.12759939517E+03 -0.10694103518E+01 -0.77553995104E+02  0.14932304391E+03  0.00000000000E+00 0.  1.
        -13    1    3    3    0    0  0.51122250419E+02  0.97856196225E+01  0.63385365000E+01  0.52434910930E+02  0.00000000000E+00 0.  1.
         13    1    3    3    0    0  0.91777922769E+02  0.46662848037E+02 -0.12784051294E+03  0.16414568299E+03  0.00000000000E+00 0. -1.
          2    1    1    2  501    0  0.61822825922E+02 -0.99963298564E+02  0.48659334654E+02  0.12721027362E+03  0.00000000000E+00 0. -1.
<scales pt_clust_5="13000.00000" pt_clust_6="13000.00000" pt_clust_7="13000.00000" pt_clust_8="13000.00000" pt_clust_9="117.53605"></scales>
<clustering>
<clus scale="   86.407">  5  6 -1 -1</clus>
<clus scale="   92.399">  7  8 -1 -1</clus>
<clus scale="  117.536">  1  9  2 -1</clus>
<clus scale="  187.838">  1  5  2 -1</clus>
<clus scale="  117.536">  1  5  2 -1</clus>
</clustering>
</event>
<event>
 9    1  0.1601012E-005  0.1015603E+03  0.7546771E-02  0.1278372E+00
          1   -1    0    0  502    0 -0.00000000000E+00  0.00000000000E+00  0.15302259809E+03  0.15302259809E+03  0.00000000000E+00 0. -1.
         21   -1    0    0  501  502  0.00000000000E+00 -0.00000000000E+00 -0.92496715471E+02  0.92496715471E+02  0.00000000000E+00 0. -1.
         23    2    1    2    0    0  0.18494017036E+02  0.53120234010E+02  0.31424922885E+02  0.11185781233E+03  0.91437719101E+02 0.  0.
         23    2    1    2    0    0 -0.28891807567E+02 -0.21088474269E+02  0.13371432851E+02  0.96492082397E+02  0.88614143664E+02 0.  0.
        -11    1    3    3    0    0 -0.13456986307E+02  0.45698774343E+02 -0.19342104245E+02  0.51415809374E+02  0.00000000000E+00 0. -1.
         11    1    3    3    0    0  0.31951003343E+02  0.74214596670E+01  0.50767027130E+02  0.60442002960E+02  0.00000000000E+00 0.  1.
        -13    1    4    4    0    0  0.65569713551E+01  0.19810235084E+02  0.32894882850E+02  0.38955264152E+02  0.00000000000E+00 0.  1.
         13    1    4    4    0    0 -0.35448778923E+02 -0.40898709354E+02 -0.19523449999E+02  0.57536818245E+02  0.00000000000E+00 0. -1.
          1    1    1    2  501    0  0.10397790531E+02 -0.32031759741E+02  0.15729526881E+02  0.37169418827E+02  0.00000000000E+00 0. -1.
<scales pt_clust_5="13000.00000" pt_clust_6="13000.00000" pt_clust_7="13000.00000" pt_clust_8="13000.00000" pt_clust_9="33.67713"></scales>
<clustering>
<clus scale="   33.677">  2  9  1 -1</clus>
<clus scale="   88.614">  7  8 -1 -1</clus>
<clus scale="   91.438">  5  6 -1 -1</clus>
<clus scale="   99.026">  2  7  1 -1</clus>
<clus scale="   33.677">  2  5  1 -1</clus>
</clustering>
</event>
<event>
 9    1  0.1601012E-005  0.9925621E+02  0.7546771E-02  0.1284157E+00
         -1   -1    0    0    0  501 -0.00000000000E+00  0.00000000000E+00  0.16620154847E+03  0.16620154847E+03  0.00000000000E+00 0.  1.
         21   -1    0    0  501  502  0.00000000000E+00 -0.00000000000E+00 -0.89998027925E+02  0.89998027925E+02  0.00000000000E+00 0. -1.
         23    2    1    2    0    0  0.10543937181E+02  0.25268350915E+02  0.56580624969E+02  0.11050588742E+03  0.90887402114E+02 0.  0.
         23    2    1    2    0    0 -0.30809382935E+02 -0.12755438998E+02  0.45320777906E+02  0.11065596057E+03  0.95282996375E+02 0.  0.
        -11    1    4    4    0    0 -0.29835588383E+02 -0.32908464649E+02  0.67416075218E+02  0.80734481961E+02  0.00000000000E+00 0.  1.
         11    1    4    4    0    0 -0.97379455241E+00  0.20153025651E+02 -0.22095297312E+02  0.29921478607E+02  0.00000000000E+00 0. -1.
        -13    1    3    3    0    0 -0.35876687404E+02  0.21593630181E+02  0.47031000254E+02  0.62970918275E+02  0.00000000000E+00 0. -1.
         13    1    3    3    0    0  0.46420624585E+02  0.36747207336E+01  0.95496247149E+01  0.47534969144E+02  0.00000000000E+00 0.  1.
         -1    1    1    2    0  502  0.20265445754E+02 -0.12512911917E+02 -0.25697882326E+02  0.35037728412E+02  0.00000000000E+00 0.  1.
<scales pt_clust_5="13000.00000" pt_clust_6="13000.00000" pt_clust_7="13000.00000" pt_clust_8="13000.00000" pt_clust_9="23.81725"></scales>
<clustering>
<clus scale="   23.817">  2  9  1 -1</clus>
<clus scale="   90.887">  7  8 -1 -1</clus>
<clus scale="   95.045">  1  7  2 -1</clus>
<clus scale="   95.283">  5  6 -1 -1</clus>
<clus scale="   23.817">  2  5  1 -1</clus>
</clustering>
</event>
<event>
 9    1  0.1601012E-005  0.1468371E+03  0.7546771E-02  0.1205156E+00
          1   -1    0    0  502    0 -0.00000000000E+00  0.00000000000E+00  0.11353662319E+04  0.11353662319E+04  0.00000000000E+00 0. -1.
         21   -1    0    0  501  502  0.00000000000E+00 -0.00000000000E+00 -0.40860667040E+02  0.40860667040E+02  0.00000000000E+00 0.  1.
         23    2    1    2    0    0  0.10868967821E+03  0.41988350302E+02  0.58444896122E+03  0.60285356144E+03  0.90969008809E+02 0.  0.
         23    2    1    2    0    0 -0.11349576957E+03  0.11135985967E+02  0.49677155706E+03  0.51840256273E+03  0.94625246321E+02 0.  0.
        -11    1    3    3    0    0  0.57217920184E+02 -0.23591606729E+02  0.19518130209E+03  0.20475887034E+03  0.00000000000E+00 0.  1.
         11    1    3    3    0    0  0.51471758027E+02  0.65579957032E+02  0.38926765914E+03  0.39809469111E+03  0.00000000000E+00 0. -1.
        -13    1    4    4    0    0 -0.54621434509E+02 -0.39494362891E+02  0.28445463959E+03  0.29233157166E+03  0.00000000000E+00 0.  1.
         13    1    4    4    0    0 -0.58874335065E+02  0.50630348858E+02  0.21231691747E+03  0.22607099106E+03  0.00000000000E+00 0. -1.
          1    1    1    2  501    0  0.48060913626E+01 -0.53124336270E+02  0.13285046603E+02  0.54970774794E+02  0.00000000000E+00 0. -1.
<scales pt_clust_5="13000.00000" pt_clust_6="13000.00000" pt_clust_7="13000.00000" pt_clust_8="13000.00000" pt_clust_9="53.34129"></scales>
<clustering>
<clus scale="   53.341">  2  9  1 -1</clus>
<clus scale="   90.969">  5  6 -1 -1</clus>
<clus scale="   94.625">  7  8 -1 -1</clus>
<clus scale="  144.508">  1  5  2 -1</clus>
<clus scale="   53.341">  2  5  1 -1</clus>
</clustering>
</event>
<event>
 9    1  0.1601012E-005  0.1297567E+03  0.7546771E-02  0.1242373E+00
         21   -1    0    0  501  502  0.00000000000E+00  0.00000000000E+00  0.87234392053E+02  0.87234392053E+02  0.00000000000E+00 0. -1.
          2   -1    0    0  502    0 -0.00000000000E+00 -0.00000000000E+00 -0.35909059437E+03  0.35909059437E+03  0.00000000000E+00 0. -1.
         23    2    1    2    0    0 -0.20693969815E+02 -0.26307168371E+02 -0.37081736683E+01  0.96385954137E+02  0.90311649904E+02 0.  0.
         23    2    1    2    0    0 -0.68128329135E+01 -0.72829674652E+02 -0.17739189619E+03  0.21274787580E+03  0.91886874032E+02 0.  0.
        -13    1    4    4    0    0 -0.31444390734E+02  0.57995616715E+01 -0.73454411307E+02  0.80112016356E+02  0.00000000000E+00 0.  1.
         13    1    4    4    0    0  0.24631557821E+02 -0.78629236323E+02 -0.10393748489E+03  0.13263585944E+03  0.00000000000E+00 0. -1.
        -13    1    3    3    0    0 -0.33547384177E+01  0.33009369085E+02 -0.89495736308E+01  0.34365208939E+02  0.00000000000E+00 0.  1.
         13    1    3    3    0    0 -0.17339231397E+02 -0.59316537456E+02  0.52413999625E+01  0.62020745197E+02  0.00000000000E+00 0. -1.
          2    1    1    2  501    0  0.27506802729E+02  0.99136843023E+02 -0.90756132458E+02  0.13719115649E+03  0.00000000000E+00 0. -1.
<scales pt_clust_5="13000.00000" pt_clust_6="13000.00000" pt_clust_7="13000.00000" pt_clust_8="13000.00000" pt_clust_9="91.61668"></scales>
<clustering>
<clus scale="   90.312">  7  8 -1 -1</clus>
<clus scale="   91.887">  5  6 -1 -1</clus>
<clus scale="   96.315">  2  7  1 -1</clus>
<clus scale="   91.617">  1  9  2 -1</clus>
<clus scale="   91.617">  1  5  2 -1</clus>
</clustering>
</event>
<event>
 9    1  0.1601012E-005  0.2813139E+03  0.7546771E-02  0.1095116E+00
         21   -1    0    0  501  502  0.00000000000E+00  0.00000000000E+00  0.75167218762E+02  0.75167218762E+02  0.00000000000E+00 0. -1.
         -1   -1    0    0    0  501 -0.00000000000E+00 -0.00000000000E+00 -0.20015763985E+04  0.20015763985E+04  0.00000000000E+00 0.  1.
         23    2    1    2    0    0  0.25101766613E+03 -0.10071945833E+03 -0.13194036592E+04  0.13499667856E+04  0.91815185775E+02 0.  0.
         23    2    1    2    0    0 -0.22372900082E+03  0.13091352634E+03 -0.62491242285E+03  0.68231324938E+03  0.88559679690E+02 0.  0.
        -13    1    4    4    0    0 -0.15520211208E+03  0.13228586213E+03 -0.43552391543E+03  0.48090365545E+03  0.00000000000E+00 0.  1.
         13    1    4    4    0    0 -0.68526888742E+02 -0.13723357920E+01 -0.18938850742E+03  0.20140959393E+03  0.00000000000E+00 0. -1.
        -13    1    3    3    0    0  0.63546529303E+02  0.60788546705E+01 -0.19935132412E+03  0.20932287092E+03  0.00000000000E+00 0.  1.
         13    1    3    3    0    0  0.18747113682E+03 -0.10679831300E+03 -0.11200523351E+04  0.11406439147E+04  0.00000000000E+00 0. -1.
         -1    1    1    2    0  502 -0.27288665308E+02 -0.30194068013E+02  0.17906902317E+02  0.44463582267E+02  0.00000000000E+00 0.  1.
<scales pt_clust_5="13000.00000" pt_clust_6="13000.00000" pt_clust_7="13000.00000" pt_clust_8="13000.00000" pt_clust_9="40.69832"></scales>
<clustering>
<clus scale="   40.698">  1  9  2 -1</clus>
<clus scale="   88.560">  5  6 -1 -1</clus>
<clus scale="   91.815">  7  8 -1 -1</clus>
<clus scale="  280.268">  1  5  2 -1</clus>
<clus scale="   40.698">  1  5  2 -1</clus>
</clustering>
</event>
<event>
 9    1  0.1601012E-005  0.9630375E+02  0.7546771E-02  0.1290312E+00
         21   -1    0    0  501  502  0.00000000000E+00  0.00000000000E+00  0.72124001566E+02  0.72124001566E+02  0.00000000000E+00 0.  1.
          2   -1    0    0  502    0 -0.00000000000E+00 -0.00000000000E+00 -0.33590559162E+03  0.33590559162E+03  0.00000000000E+00 0. -1.
         23    2    1    2    0    0  0.24898496081E+01  0.28109200251E+02 -0.20507020539E+03  0.22488040578E+03  0.87869683492E+02 0.  0.
         23    2    1    2    0    0  0.57689548112E+02 -0.25313341173E+02 -0.51131057748E+02  0.12242984869E+03  0.91683333167E+02 0.  0.
        -11    1    3    3    0    0  0.41302070922E+02  0.32271986387E+02 -0.10229046749E+03  0.11493773057E+03  0.00000000000E+00 0. -1.
         11    1    3    3    0    0 -0.38812221314E+02 -0.41627861363E+01 -0.10277973789E+03  0.10994267522E+03  0.00000000000E+00 0.  1.
        -13    1    4    4    0    0 -0.24800467065E+01 -0.44348209719E+02 -0.59478911724E+01  0.44813968206E+02  0.00000000000E+00 0.  1.
         13    1    4    4    0    0  0.60169594818E+02  0.19034868546E+02 -0.45183166576E+02  0.77615880482E+02  0.00000000000E+00 0. -1.
          2    1    1    2  501    0 -0.60179397720E+02 -0.27958590771E+01 -0.75803269168E+01  0.60719338716E+02  0.00000000000E+00 0. -1.
<scales pt_clust_5="13000.00000" pt_clust_6="13000.00000" pt_clust_7="13000.00000" pt_clust_8="13000.00000" pt_clust_9="60.24431"></scales>
<clustering>
<clus scale="   60.244">  1  9  2 -1</clus>
<clus scale="   87.870">  5  6 -1 -1</clus>
<clus scale="   91.683">  7  8 -1 -1</clus>
<clus scale="   92.680">  2  5  1 -1</clus>
<clus scale="   60.244">  1  5  2 -1</clus>
</clustering>
</event>
<event>
 9    1  0.1601012E-005  0.2126732E+03  0.7546771E-02  0.1139536E+00
         21   -1    0    0  501  502  0.00000000000E+00  0.00000000000E+00  0.38478077857E+02  0.38478077857E+02  0.00000000000E+00 0. -1.
          2   -1    0    0  502    0 -0.00000000000E+00 -0.00000000000E+00 -0.17364017511E+04  0.17364017511E+04  0.00000000000E+00 0. -1.
         23    2    1    2    0    0  0.14099740533E+03 -0.11199479112E+03 -0.99297274414E+03  0.10130457847E+04  0.88565172678E+02 0.  0.
         23    2    1    2    0    0 -0.18651984482E+03  0.12395227110E+03 -0.61400745290E+03  0.65943292270E+03  0.87708661562E+02 0.  0.
        -11    1    3    3    0    0  0.27470141309E+02 -0.75942571275E+02 -0.35778469163E+03  0.36678572541E+03  0.00000000000E+00 0.  1.
         11    1    3    3    0    0  0.11352726402E+03 -0.36052219844E+02 -0.63518805251E+03  0.64626005933E+03  0.00000000000E+00 0. -1.
        -13    1    4    4    0    0 -0.20870506243E+02 -0.86573579714E+01 -0.26746856721E+02  0.35013172126E+02  0.00000000000E+00 0.  1.
         13    1    4    4    0    0 -0.16564933858E+03  0.13260962907E+03 -0.58726059618E+03  0.62441975058E+03  0.00000000000E+00 0. -1.
          2    1    1    2  501    0  0.45522439491E+02 -0.11957479977E+02 -0.90943476223E+02  0.10240112154E+03  0.00000000000E+00 0. -1.
<scales pt_clust_5="13000.00000" pt_clust_6="13000.00000" pt_clust_7="13000.00000" pt_clust_8="13000.00000" pt_clust_9="47.06670"></scales>
<clustering>
<clus scale="   47.067">  1  9  2 -1</clus>
<clus scale="   87.709">  7  8 -1 -1</clus>
<clus scale="   88.565">  5  6 -1 -1</clus>
<clus scale="  212.318">  1  7  2 -1</clus>
<clus scale="   47.067">  1  5  2 -1</clus>
</clustering>
</event>
<event>
 9    1  0.1601012E-005  0.1020313E+03  0.7546771E-02  0.1276702E+00
         21   -1    0    0  501  502  0.00000000000E+00  0.00000000000E+00  0.17013620955E+03  0.17013620955E+03  0.00000000000E+00 0.  1.
         -4   -1    0    0    0  501 -0.00000000000E+00 -0.00000000000E+00 -0.37642205873E+03  0.37642205873E+03  0.00000000000E+00 0.  1.
         23    2    1    2    0    0  0.43888174905E+02 -0.58783173200E+02 -0.26321727856E+03  0.28772423880E+03  0.90112532513E+02 0.  0.
         23    2    1    2    0    0  0.19793256745E+01 -0.11622477597E+02 -0.63515605590E+02  0.11197262711E+03  0.91458391373E+02 0.  0.
        -13    1    4    4    0    0 -0.22456409661E+02 -0.43809527636E+02 -0.47784384599E+02  0.68606941763E+02  0.00000000000E+00 0. -1.
         13    1    4    4    0    0  0.24435735336E+02  0.32187050039E+02 -0.15731220991E+02  0.43365685346E+02  0.00000000000E+00 0.  1.
        -13    1    3    3    0    0  0.33750162375E+02 -0.26268383665E+02 -0.24575746568E+03  0.24945106409E+03  0.00000000000E+00 0.  1.
         13    1    3    3    0    0  0.10138012530E+02 -0.32514789535E+02 -0.17459812878E+02  0.38273174709E+02  0.00000000000E+00 0. -1.
         -4    1    1    2    0  502 -0.45867500580E+02  0.70405650797E+02  0.12044703496E+03  0.14686140237E+03  0.00000000000E+00 0.  1.
<scales pt_clust_5="13000.00000" pt_clust_6="13000.00000" pt_clust_7="13000.00000" pt_clust_8="13000.00000" pt_clust_9="84.02847"></scales>
<clustering>
<clus scale="   84.028">  1  9  2 -1</clus>
<clus scale="   90.113">  7  8 -1 -1</clus>
<clus scale="   91.458">  5  6 -1 -1</clus>
<clus scale="  100.827">  2  7  1 -1</clus>
<clus scale="   84.028">  1  5  2 -1</clus>
</clustering>
</event>
<event>
 9    1  0.1601012E-005  0.1048103E+03  0.7546771E-02  0.1277828E+00
         21   -1    0    0  501  502  0.00000000000E+00  0.00000000000E+00  0.56384778406E+02  0.56384778406E+02  0.00000000000E+00 0.  1.
          1   -1    0    0  502    0 -0.00000000000E+00 -0.00000000000E+00 -0.25767021714E+03  0.25767021714E+03  0.00000000000E+00 0. -1.
         23    2    1    2    0    0  0.85448708098E+01  0.92767745726E+01 -0.13535836649E+03  0.17139426637E+03  0.10437927860E+03 0.  0.
         23    2    1    2    0    0 -0.93620242457E+01  0.20784616984E+02 -0.62589249141E+02  0.11240356366E+03  0.90540042049E+02 0.  0.
        -11    1    3    3    0    0  0.24710353198E+02 -0.92454886156E+01  0.67028694102E+01  0.27221481834E+02  0.00000000000E+00 0.  1.
         11    1    3    3    0    0 -0.16165482388E+02  0.18522263188E+02 -0.14206123590E+03  0.14417278453E+03  0.00000000000E+00 0. -1.
        -13    1    4    4    0    0  0.61707955233E+01  0.51603722675E+02 -0.15911109738E+02  0.54352427033E+02  0.00000000000E+00 0.  1.
         13    1    4    4    0    0 -0.15532819769E+02 -0.30819105691E+02 -0.46678139402E+02  0.58051136627E+02  0.00000000000E+00 0. -1.
          1    1    1    2  501    0  0.81715343587E+00 -0.30061391557E+02 -0.33378231012E+01  0.30257165517E+02  0.00000000000E+00 0. -1.
<scales pt_clust_5="13000.00000" pt_clust_6="13000.00000" pt_clust_7="13000.00000" pt_clust_8="13000.00000" pt_clust_9="30.07250"></scales>
<clustering>
<clus scale="   30.072">  1  9  2 -1</clus>
<clus scale="   90.540">  7  8 -1 -1</clus>
<clus scale="   91.037">  1  7  2 -1</clus>
<clus scale="  104.379">  5  6 -1 -1</clus>
<clus scale="   30.072">  1  5  2 -1</clus>
</clustering>
</event>
<event>
 9    1  0.1601012E-005  0.1266217E+03  0.7546771E-02  0.1232819E+00
          1   -1    0    0  502    0 -0.00000000000E+00  0.00000000000E+00  0.77978208406E+02  0.77978208406E+02  0.00000000000E+00 0. -1.
         21   -1    0    0  501  502  0.00000000000E+00 -0.00000000000E+00 -0.52663472495E+03  0.52663472495E+03  0.00000000000E+00 0. -1.
         23    2    1    2    0    0  0.44307198925E+02  0.72770910875E+02  0.15063679404E+01  0.12342881811E+03  0.89295412251E+02 0.  0.
         23    2    1    2    0    0 -0.59777940863E+02 -0.93229772175E+02 -0.35620356175E+03  0.38378666564E+03  0.90255385905E+02 0.  0.
        -13    1    3    3    0    0  0.46287061717E+02  0.69258484368E+01 -0.24233097327E+02  0.52703913185E+02  0.00000000000E+00 0.  1.
         13    1    3    3    0    0 -0.19798627920E+01  0.65845062438E+02  0.25739465267E+02  0.70724904923E+02  0.00000000000E+00 0. -1.
        -13    1    4    4    0    0 -0.39949641189E+02 -0.10987216371E+03 -0.29618919395E+03  0.31842723627E+03  0.00000000000E+00 0. -1.
         13    1    4    4    0    0 -0.19828299674E+02  0.16642391538E+02 -0.60014367802E+02  0.65359429363E+02  0.00000000000E+00 0.  1.
          1    1    1    2  501    0  0.15470741938E+02  0.20458861300E+02 -0.93959322737E+02  0.97397449613E+02  0.00000000000E+00 0. -1.
<scales pt_clust_5="13000.00000" pt_clust_6="13000.00000" pt_clust_7="13000.00000" pt_clust_8="13000.00000" pt_clust_9="25.64973"></scales>
<clustering>
<clus scale="   25.650">  2  9  1 -1</clus>
<clus scale="   89.295">  5  6 -1 -1</clus>
<clus scale="   90.255">  7  8 -1 -1</clus>
<clus scale="  125.939">  1  5  2 -1</clus>
<clus scale="   25.650">  2  5  1 -1</clus>
</clustering>
</event>
<event>
 9    1  0.1601012E-005  0.9407637E+02  0.7546771E-02  0.1293458E+00
         -3   -1    0    0    0  501 -0.00000000000E+00  0.00000000000E+00  0.73028029602E+03  0.73028029602E+03  0.00000000000E+00 0.  1.
         21   -1    0    0  501  502  0.00000000000E+00 -0.00000000000E+00 -0.32790566920E+02  0.32790566920E+02  0.00000000000E+00 0.  1.
         23    2    1    2    0    0 -0.21607102827E+02 -0.79769447608E+01  0.48231995107E+03  0.49104015415E+03  0.89204255741E+02 0.  0.
         23    2    1    2    0    0  0.38775554159E+02  0.28419226785E+02  0.22248719278E+03  0.24435062255E+03  0.88856512077E+02 0.  0.
        -11    1    4    4    0    0 -0.23043714068E+02  0.45506926161E+01  0.18589758326E+02  0.29954977482E+02  0.00000000000E+00 0. -1.
         11    1    4    4    0    0  0.61819268227E+02  0.23868534169E+02  0.20389743446E+03  0.21439564507E+03  0.00000000000E+00 0.  1.
        -13    1    3    3    0    0  0.18886146562E+02  0.30744952254E+02  0.18398930687E+03  0.18749400967E+03  0.00000000000E+00 0.  1.
         13    1    3    3    0    0 -0.40493249390E+02 -0.38721897015E+02  0.29833064421E+03  0.30354614448E+03  0.00000000000E+00 0. -1.
         -3    1    1    2    0  502 -0.17168451331E+02 -0.20442282024E+02 -0.73174147556E+01  0.27680086238E+02  0.00000000000E+00 0.  1.
<scales pt_clust_5="13000.00000" pt_clust_6="13000.00000" pt_clust_7="13000.00000" pt_clust_8="13000.00000" pt_clust_9="26.69537"></scales>
<clustering>
<clus scale="   26.695">  2  9  1 -1</clus>
<clus scale="   88.857">  5  6 -1 -1</clus>
<clus scale="   89.204">  7  8 -1 -1</clus>
<clus scale="   93.747">  2  5  1 -1</clus>
<clus scale="   26.695">  2  5  1 -1</clus>
</clustering>
</event>
<event>
 9    1  0.1601012E-005  0.1117988E+03  0.7546771E-02  0.1257387E+00
         21   -1    0    0  501  502  0.00000000000E+00  0.00000000000E+00  0.59480201082E+02  0.59480201082E+02  0.00000000000E+00 0.  1.
          4   -1    0    0  502    0 -0.00000000000E+00 -0.00000000000E+00 -0.31916383095E+03  0.31916383095E+03  0.00000000000E+00 0. -1.
         23    2    1    2    0    0 -0.59208638266E+02  0.36865964943E+02 -0.17770158724E+03  0.21341209042E+03  0.95404947518E+02 0.  0.
         23    2    1    2    0    0  0.40874762439E+02 -0.10515260131E+02 -0.82367648568E+02  0.13312836956E+03  0.95694390379E+02 0.  0.
        -11    1    3    3    0    0 -0.37845662448E+02 -0.25903854716E+02 -0.41163418502E+02  0.61625732272E+02  0.00000000000E+00 0.  1.
         11    1    3    3    0    0 -0.21362975818E+02  0.62769819659E+02 -0.13653816874E+03  0.15178635814E+03  0.00000000000E+00 0. -1.
        -13    1    4    4    0    0  0.12173181585E+02  0.39025812118E+02 -0.12397903427E+02  0.42718946274E+02  0.00000000000E+00 0. -1.
         13    1    4    4    0    0  0.28701580854E+02 -0.49541072249E+02 -0.69969745141E+02  0.90409423282E+02  0.00000000000E+00 0.  1.
          4    1    1    2  501    0  0.18333875828E+02 -0.26350704811E+02  0.38560594412E+00  0.32103572058E+02  0.00000000000E+00 0. -1.
<scales pt_clust_5="13000.00000" pt_clust_6="13000.00000" pt_clust_7="13000.00000" pt_clust_8="13000.00000" pt_clust_9="32.10126"></scales>
<clustering>
<clus scale="   32.101">  1  9  2 -1</clus>
<clus scale="   95.405">  5  6 -1 -1</clus>
<clus scale="   95.694">  7  8 -1 -1</clus>
<clus scale="  111.551">  2  5  1 -1</clus>
<clus scale="   32.101">  1  5  2 -1</clus>
</clustering>
</event>
<event>
 9    1  0.1601012E-005  0.1690837E+03  0.7546771E-02  0.1179382E+00
         21   -1    0    0  501  502  0.00000000000E+00  0.00000000000E+00  0.29966566472E+03  0.29966566472E+03  0.00000000000E+00 0.  1.
         -1   -1    0    0    0  501 -0.00000000000E+00 -0.00000000000E+00 -0.58743060879E+03  0.58743060879E+03  0.00000000000E+00 0.  1.
         23    2    1    2    0    0 -0.10990274832E+03 -0.72091236789E+02 -0.44702622480E+03  0.47536379613E+03  0.94141024519E+02 0.  0.
         23    2    1    2    0    0  0.18420544401E+03  0.14068969260E+03  0.34433360483E+02  0.25108177430E+03  0.90172977446E+02 0.  0.
        -13    1    4    4    0    0  0.16335212372E+03  0.95278909375E+02 -0.22014713251E+01  0.18912121344E+03  0.00000000000E+00 0.  1.
         13    1    4    4    0    0  0.20853320291E+02  0.45410783226E+02  0.36634831808E+02  0.61960560859E+02  0.00000000000E+00 0. -1.
        -13    1    3    3    0    0 -0.23678902840E+02 -0.67361020974E+02 -0.25513076806E+03  0.26493377738E+03  0.00000000000E+00 0. -1.
         13    1    3    3    0    0 -0.86223845483E+02 -0.47302158147E+01 -0.19189545674E+03  0.21043001874E+03  0.00000000000E+00 0.  1.
         -1    1    1    2    0  502 -0.74302695688E+02 -0.68598455812E+02  0.12482792026E+03  0.16065070308E+03  0.00000000000E+00 0.  1.
<scales pt_clust_5="13000.00000" pt_clust_6="13000.00000" pt_clust_7="13000.00000" pt_clust_8="13000.00000" pt_clust_9="101.12684"></scales>
<clustering>
<clus scale="   90.173">  5  6 -1 -1</clus>
<clus scale="   94.141">  7  8 -1 -1</clus>
<clus scale="  101.127">  1  9  2 -1</clus>
<clus scale="  166.907">  1  5  2 -1</clus>
<clus scale="  101.127">  1  5  2 -1</clus>
</clustering>
</event>
<event>
 9    1  0.2228699E-005  0.9487397E+02  0.7546771E-02  0.1299565E+00
         21   -1    0    0  501  502  0.00000000000E+00  0.00000000000E+00  0.11269051988E+03  0.11269051988E+03  0.00000000000E+00 0.  1.
          1   -1    0    0  502    0 -0.00000000000E+00 -0.00000000000E+00 -0.32692453416E+03  0.32692453416E+03  0.00000000000E+00 0. -1.
         23    2    1    2    0    0  0.17107281268E+02  0.12775985293E+02 -0.26697776040E+03  0.27921283725E+03  0.78910069484E+02 0.  0.
         23    2    1    2    0    0  0.18381820813E+02 -0.42715708128E+02  0.46552498921E+02  0.11355998252E+03  0.92553829831E+02 0.  0.
        -11    1    3    3    0    0 -0.21311686995E+02  0.27937466998E+02 -0.17341765186E+03  0.17694171934E+03  0.00000000000E+00 0. -1.
         11    1    3    3    0    0  0.38418968263E+02 -0.15161481705E+02 -0.93560108532E+02  0.10227111791E+03  0.00000000000E+00 0.  1.
        -13    1    4    4    0    0  0.40389836882E+02 -0.56262055675E+02  0.11807543090E+02  0.70257924151E+02  0.00000000000E+00 0.  1.
         13    1    4    4    0    0 -0.22008016069E+02  0.13546347547E+02  0.34744955832E+02  0.43302058368E+02  0.00000000000E+00 0. -1.
          1    1    1    2  501    0 -0.35489102081E+02  0.29939722836E+02  0.61912471953E+01  0.46842234275E+02  0.00000000000E+00 0. -1.
<scales pt_clust_5="13000.00000" pt_clust_6="13000.00000" pt_clust_7="13000.00000" pt_clust_8="13000.00000" pt_clust_9="46.43128"></scales>
<clustering>
<clus scale="   46.431">  1  9  2 -1</clus>
<clus scale="   78.910">  5  6 -1 -1</clus>
<clus scale="   81.619">  2  5  1 -1</clus>
<clus scale="   92.554">  7  8 -1 -1</clus>
<clus scale="   46.431">  1  5  2 -1</clus>
</clustering>
</event>
<event>
 9    1  0.1601012E-005  0.1444787E+03  0.7546771E-02  0.1207435E+00
         21   -1    0    0  501  502  0.00000000000E+00  0.00000000000E+00  0.30996547178E+03  0.30996547178E+03  0.00000000000E+00 0.  1.
         -4   -1    0    0    0  501 -0.00000000000E+00 -0.00000000000E+00 -0.12149829229E+03  0.12149829229E+03  0.00000000000E+00 0.  1.
         23    2    1    2    0    0 -0.71125179618E+02  0.11606957896E+03  0.33306330013E+01  0.16400458230E+03  0.91408268568E+02 0.  0.
         23    2    1    2    0    0  0.91125148927E+01 -0.75503766842E+02  0.11685839369E+03  0.16669677882E+03  0.91367801541E+02 0.  0.
        -11    1    4    4    0    0  0.15058970302E+02 -0.26703920512E+02 -0.86911781699E+01  0.31865475600E+02  0.00000000000E+00 0. -1.
         11    1    4    4    0    0 -0.59464554092E+01 -0.48799846330E+02  0.12554957186E+03  0.13483130322E+03  0.00000000000E+00 0.  1.
        -11    1    3    3    0    0 -0.65951239931E+02  0.43332883050E+02 -0.29219317682E+02  0.84149113647E+02  0.00000000000E+00 0. -1.
         11    1    3    3    0    0 -0.51739396872E+01  0.72736695910E+02  0.32549950683E+02  0.79855468650E+02  0.00000000000E+00 0.  1.
         -4    1    1    2    0  502  0.62012664725E+02 -0.40565812118E+02  0.68278152797E+02  0.10076240295E+03  0.00000000000E+00 0.  1.
<scales pt_clust_5="13000.00000" pt_clust_6="13000.00000" pt_clust_7="13000.00000" pt_clust_8="13000.00000" pt_clust_9="74.10233"></scales>
<clustering>
<clus scale="   74.102">  1  9  2 -1</clus>
<clus scale="   91.368">  5  6 -1 -1</clus>
<clus scale="   91.408">  7  8 -1 -1</clus>
<clus scale="  144.453">  1  5  2 -1</clus>
<clus scale="   74.102">  1  5  2 -1</clus>
</clustering>
</event>
<event>
 9    1  0.1601012E-005  0.9563778E+02  0.7546771E-02  0.1292143E+00
         -3   -1    0    0    0  501 -0.00000000000E+00  0.00000000000E+00  0.11422839271E+03  0.11422839271E+03  0.00000000000E+00 0.  1.
         21   -1    0    0  501  502  0.00000000000E+00 -0.00000000000E+00 -0.14050535393E+03  0.14050535393E+03  0.00000000000E+00 0.  1.
         23    2    1    2    0    0  0.27780581340E+02 -0.80556429462E+01  0.44531538759E+02  0.10755518066E+03  0.93532907902E+02 0.  0.
         23    2    1    2    0    0 -0.47613621121E+01 -0.11436044848E+02 -0.27121391311E+02  0.94090207460E+02  0.89240929972E+02 0.  0.
        -11    1    3    3    0    0  0.60764136901E+02 -0.51325299888E+01  0.14115199960E+02  0.62592827603E+02  0.00000000000E+00 0.  1.
         11    1    3    3    0    0 -0.32983555562E+02 -0.29231129574E+01  0.30416338798E+02  0.44962353061E+02  0.00000000000E+00 0. -1.
        -11    1    4    4    0    0  0.26552559212E+02 -0.32509520762E+02 -0.36019412618E+02  0.55310988296E+02  0.00000000000E+00 0.  1.
         11    1    4    4    0    0 -0.31313921324E+02  0.21073475914E+02  0.88980213070E+01  0.38779219164E+02  0.00000000000E+00 0. -1.
         -3    1    1    2    0  502 -0.23019219227E+02  0.19491687795E+02 -0.43687108663E+02  0.53088358519E+02  0.00000000000E+00 0.  1.
<scales pt_clust_5="13000.00000" pt_clust_6="13000.00000" pt_clust_7="13000.00000" pt_clust_8="13000.00000" pt_clust_9="30.16306"></scales>
<clustering>
<clus scale="   30.163">  2  9  1 -1</clus>
<clus scale="   89.241">  7  8 -1 -1</clus>
<clus scale="   91.445">  2  7  1 -1</clus>
<clus scale="   93.533">  5  6 -1 -1</clus>
<clus scale="   30.163">  2  5  1 -1</clus>
</clustering>
</event>
<event>
 9    1  0.1601012E-005  0.1163457E+03  0.7546771E-02  0.1250400E+00
          2   -1    0    0  502    0 -0.00000000000E+00  0.00000000000E+00  0.67610249216E+03  0.67610249216E+03  0.00000000000E+00 0. -1.
         21   -1    0    0  501  502  0.00000000000E+00 -0.00000000000E+00 -0.38621412874E+02  0.38621412874E+02  0.00000000000E+00 0.  1.
         23    2    1    2    0    0 -0.44663556074E+02  0.28209364980E+02  0.30025441620E+03  0.31834324667E+03  0.91646640637E+02 0.  0.
         23    2    1    2    0    0  0.10266701591E+03 -0.86102346577E+00  0.26623025369E+03  0.30071026961E+03  0.94904482274E+02 0.  0.
        -11    1    3    3    0    0  0.16819552397E+02 -0.17359095391E+02  0.12174173135E+03  0.12411802725E+03  0.00000000000E+00 0. -1.
         11    1    3    3    0    0 -0.61483108472E+02  0.45568460371E+02  0.17851268485E+03  0.19422521942E+03  0.00000000000E+00 0.  1.
        -13    1    4    4    0    0  0.69231246266E+02 -0.10713921324E+02  0.62074652749E+02  0.93600299591E+02  0.00000000000E+00 0.  1.
         13    1    4    4    0    0  0.33435769640E+02  0.98528978580E+01  0.20415560094E+03  0.20710997002E+03  0.00000000000E+00 0. -1.
          2    1    1    2  501    0 -0.58003459831E+02 -0.27348341514E+02  0.70996409396E+02  0.95670388747E+02  0.00000000000E+00 0. -1.
<scales pt_clust_5="13000.00000" pt_clust_6="13000.00000" pt_clust_7="13000.00000" pt_clust_8="13000.00000" pt_clust_9="64.12748"></scales>
<clustering>
<clus scale="   64.127">  2  9  1 -1</clus>
<clus scale="   91.647">  5  6 -1 -1</clus>
<clus scale="   94.904">  7  8 -1 -1</clus>
<clus scale="  113.704">  1  5  2 -1</clus>
<clus scale="   64.127">  2  5  1 -1</clus>
</clustering>
</event>
<event>
 9    1  0.1601012E-005  0.1692696E+03  0.7546771E-02  0.1179071E+00
          2   -1    0    0  502    0 -0.00000000000E+00  0.00000000000E+00  0.25541075457E+02  0.25541075457E+02  0.00000000000E+00 0. -1.
         21   -1    0    0  501  502  0.00000000000E+00 -0.00000000000E+00 -0.14302245198E+04  0.14302245198E+04  0.00000000000E+00 0.  1.
         23    2    1    2    0    0  0.51903757780E+02 -0.11922457276E+03 -0.47230334441E+03  0.49875110321E+03  0.93668110818E+02 0.  0.
         23    2    1    2    0    0 -0.75391784246E+02  0.13901680750E+03 -0.73428887729E+03  0.75655613620E+03  0.90484462825E+02 0.  0.
        -11    1    4    4    0    0 -0.62631251985E+02  0.10206843912E+03 -0.67500238425E+03  0.68554274756E+03  0.00000000000E+00 0. -1.
         11    1    4    4    0    0 -0.12760532261E+02  0.36948368374E+02 -0.59286493037E+02  0.71013388637E+02  0.00000000000E+00 0.  1.
        -13    1    3    3    0    0  0.29333799017E+02 -0.23549701686E+01 -0.35972133844E+02  0.46475929927E+02  0.00000000000E+00 0. -1.
         13    1    3    3    0    0  0.22569958763E+02 -0.11686960259E+03 -0.43633121057E+03  0.45227517328E+03  0.00000000000E+00 0.  1.
          2    1    1    2  501    0  0.23488026467E+02 -0.19792234738E+02 -0.19809122266E+03  0.20045835587E+03  0.00000000000E+00 0. -1.
<scales pt_clust_5="13000.00000" pt_clust_6="13000.00000" pt_clust_7="13000.00000" pt_clust_8="13000.00000" pt_clust_9="30.71514"></scales>
<clustering>
<clus scale="   30.715">  2  9  1 -1</clus>
<clus scale="   90.484">  5  6 -1 -1</clus>
<clus scale="   93.668">  7  8 -1 -1</clus>
<clus scale="  167.529">  2  5  1 -1</clus>
<clus scale="   30.715">  2  5  1 -1</clus>
</clustering>
</event>
<event>
 9    1  0.1601012E-005  0.9076823E+02  0.7546771E-02  0.1302611E+00
         21   -1    0    0  501  502  0.00000000000E+00  0.00000000000E+00  0.15725109559E+03  0.15725109559E+03  0.00000000000E+00 0.  1.
          1   -1    0    0  502    0 -0.00000000000E+00 -0.00000000000E+00 -0.64009765390E+02  0.64009765390E+02  0.00000000000E+00 0. -1.
         23    2    1    2    0    0 -0.33704460140E+01  0.46857446186E+01  0.35144630613E+02  0.94044580353E+02  0.87039772080E+02 0.  0.
         23    2    1    2    0    0  0.23385348521E+02 -0.60979643709E+01  0.44846961362E+02  0.10317160866E+03  0.89716616048E+02 0.  0.
        -11    1    3    3    0    0  0.22350573904E+02 -0.34044472920E+02  0.17199583999E+02  0.44208596223E+02  0.00000000000E+00 0.  1.
         11    1    3    3    0    0 -0.25721019918E+02  0.38730217538E+02  0.17945046614E+02  0.49835984130E+02  0.00000000000E+00 0. -1.
        -11    1    4    4    0    0  0.45356698922E+02 -0.20009468296E+02  0.56074486670E+02  0.74846222442E+02  0.00000000000E+00 0.  1.
         11    1    4    4    0    0 -0.21971350400E+02  0.13911503925E+02 -0.11227525308E+02  0.28325386218E+02  0.00000000000E+00 0. -1.
          1    1    1    2  501    0 -0.20014902507E+02  0.14122197522E+01  0.13249738225E+02  0.24044671968E+02  0.00000000000E+00 0. -1.
<scales pt_clust_5="13000.00000" pt_clust_6="13000.00000" pt_clust_7="13000.00000" pt_clust_8="13000.00000" pt_clust_9="20.06466"></scales>
<clustering>
<clus scale="   20.065">  1  9  2 -1</clus>
<clus scale="   87.040">  5  6 -1 -1</clus>
<clus scale="   88.123">  2  5  1 -1</clus>
<clus scale="   89.717">  7  8 -1 -1</clus>
<clus scale="   20.065">  1  5  2 -1</clus>
</clustering>
</event>
<event>
 9    1  0.1601012E-005  0.9121910E+02  0.7546771E-02  0.1301203E+00
          1   -1    0    0  502    0 -0.00000000000E+00  0.00000000000E+00  0.43282997626E+03  0.43282997626E+03  0.00000000000E+00 0. -1.
         21   -1    0    0  501  502  0.00000000000E+00 -0.00000000000E+00 -0.66075907319E+02  0.66075907319E+02  0.00000000000E+00 0. -1.
         23    2    1    2    0    0  0.21933503163E+01 -0.88516103672E+01  0.30822269422E+03  0.32124492758E+03  0.90077258362E+02 0.  0.
         23    2    1    2    0    0 -0.12674504382E+02  0.26925918827E+02  0.96764417523E+02  0.13409146233E+03  0.87929060074E+02 0.  0.
        -11    1    3    3    0    0 -0.36118956813E+01 -0.48135312505E+02  0.20600317758E+03  0.21158299382E+03  0.00000000000E+00 0.  1.
         11    1    3    3    0    0  0.58052459977E+01  0.39283702138E+02  0.10221951664E+03  0.10966193376E+03  0.00000000000E+00 0. -1.
        -13    1    4    4    0    0  0.34212283870E+02  0.21906264312E+02  0.23407050356E+02  0.46885549907E+02  0.00000000000E+00 0.  1.
         13    1    4    4    0    0 -0.46886788252E+02  0.50196545154E+01  0.73357367167E+02  0.87205912424E+02  0.00000000000E+00 0. -1.
          1    1    1    2  501    0  0.10481154066E+02 -0.18074308460E+02 -0.38233042799E+02  0.43569493668E+02  0.00000000000E+00 0. -1.
<scales pt_clust_5="13000.00000" pt_clust_6="13000.00000" pt_clust_7="13000.00000" pt_clust_8="13000.00000" pt_clust_9="20.89343"></scales>
<clustering>
<clus scale="   20.893">  2  9  1 -1</clus>
<clus scale="   87.929">  7  8 -1 -1</clus>
<clus scale="   89.098">  2  7  1 -1</clus>
<clus scale="   90.077">  5  6 -1 -1</clus>
<clus scale="   20.893">  2  5  1 -1</clus>
</clustering>
</event>
<event>
 9    1  0.1601012E-005  0.1036096E+03  0.7546771E-02  0.1273290E+00
         21   -1    0    0  501  502  0.00000000000E+00  0.00000000000E+00  0.48854260656E+03  0.48854260656E+03  0.00000000000E+00 0.  1.
         -1   -1    0    0    0  501 -0.00000000000E+00 -0.00000000000E+00 -0.51617502687E+02  0.51617502687E+02  0.00000000000E+00 0.  1.
         23    2    1    2    0    0 -0.95411058838E+01  0.52395024098E+02  0.14784027296E+03  0.18179690463E+03  0.91417159066E+02 0.  0.
         23    2    1    2    0    0 -0.72340624267E+02 -0.22322669487E+02  0.20482885436E+03  0.23708652166E+03  0.92323841352E+02 0.  0.
        -13    1    3    3    0    0 -0.41995500325E+02  0.43907500753E+02  0.13068660157E+03  0.14411966729E+03  0.00000000000E+00 0.  1.
         13    1    3    3    0    0  0.32454394441E+02  0.84875233446E+01  0.17153671384E+02  0.37677237332E+02  0.00000000000E+00 0. -1.
        -13    1    4    4    0    0 -0.79828704639E+02  0.11341911895E+02  0.16957906325E+03  0.18777198871E+03  0.00000000000E+00 0.  1.
         13    1    4    4    0    0  0.74880803715E+01 -0.33664581382E+02  0.35249791114E+02  0.49314532958E+02  0.00000000000E+00 0. -1.
         -1    1    1    2    0  502  0.81881730151E+02 -0.30072354611E+02  0.84255976549E+02  0.12127668296E+03  0.00000000000E+00 0.  1.
<scales pt_clust_5="13000.00000" pt_clust_6="13000.00000" pt_clust_7="13000.00000" pt_clust_8="13000.00000" pt_clust_9="87.22942"></scales>
<clustering>
<clus scale="   87.229">  1  9  2 -1</clus>
<clus scale="   91.417">  5  6 -1 -1</clus>
<clus scale="   92.324">  7  8 -1 -1</clus>
<clus scale="  102.802">  2  5  1 -1</clus>
<clus scale="   87.229">  1  5  2 -1</clus>
</clustering>
</event>
<event>
 9    1  0.1601012E-005  0.1018691E+03  0.7546771E-02  0.1276819E+00
         21   -1    0    0  501  502  0.00000000000E+00  0.00000000000E+00  0.17322098071E+03  0.17322098071E+03  0.00000000000E+00 0.  1.
          1   -1    0    0  502    0 -0.00000000000E+00 -0.00000000000E+00 -0.47934144445E+03  0.47934144445E+03  0.00000000000E+00 0. -1.
         23    2    1    2    0    0  0.32673576538E+02  0.31611876770E+02 -0.44614227566E+03  0.45744945342E+03  0.90278452281E+02 0.  0.
         23    2    1    2    0    0 -0.52948989334E+02 -0.10287855935E+02  0.11639956861E+03  0.15737947725E+03  0.91159227912E+02 0.  0.
        -11    1    4    4    0    0 -0.65820816638E+01  0.30970146671E+02  0.78531443062E+02  0.84673852713E+02  0.00000000000E+00 0.  1.
         11    1    4    4    0    0 -0.46366907670E+02 -0.41258002606E+02  0.37868125552E+02  0.72705624533E+02  0.00000000000E+00 0. -1.
        -13    1    3    3    0    0 -0.25076073320E+02  0.33080751911E+02 -0.14541373873E+03  0.15122268683E+03  0.00000000000E+00 0.  1.
         13    1    3    3    0    0  0.57749649858E+02 -0.14688751409E+01 -0.30072853693E+03  0.30622676659E+03  0.00000000000E+00 0. -1.
          1    1    1    2  501    0  0.20275412796E+02 -0.21324020835E+02  0.23622243299E+02  0.37733494499E+02  0.00000000000E+00 0. -1.
<scales pt_clust_5="13000.00000" pt_clust_6="13000.00000" pt_clust_7="13000.00000" pt_clust_8="13000.00000" pt_clust_9="29.42459"></scales>
<clustering>
<clus scale="   29.425">  1  9  2 -1</clus>
<clus scale="   90.278">  7  8 -1 -1</clus>
<clus scale="   91.159">  5  6 -1 -1</clus>
<clus scale="  101.082">  2  7  1 -1</clus>
<clus scale="   29.425">  1  5  2 -1</clus>
</clustering>
</event>
<event>
 9    1  0.1601012E-005  0.1606687E+03  0.7546771E-02  0.1188186E+00
          1   -1    0    0  502    0 -0.00000000000E+00  0.00000000000E+00  0.62989413973E+03  0.62989413973E+03  0.00000000000E+00 0. -1.
         21   -1    0    0  501  502  0.00000000000E+00 -0.00000000000E+00 -0.23253542219E+03  0.23253542219E+03  0.00000000000E+00 0. -1.
         23    2    1    2    0    0 -0.14755208961E+03  0.27782267493E+02  0.52211915508E+03  0.55088657684E+03  0.91236697185E+02 0.  0.
         23    2    1    2    0    0  0.61400230474E+02 -0.59510819095E+02  0.33673505851E+02  0.12843056541E+03  0.89716103596E+02 0.  0.
        -11    1    3    3    0    0 -0.86274520733E+02  0.61255588630E+02  0.32148186638E+03  0.33844664347E+03  0.00000000000E+00 0. -1.
         11    1    3    3    0    0 -0.61277568875E+02 -0.33473321138E+02  0.20063728870E+03  0.21243993337E+03  0.00000000000E+00 0.  1.
        -11    1    4    4    0    0  0.56129938987E+02  0.25866354065E+01 -0.27314219420E+01  0.56255856578E+02  0.00000000000E+00 0. -1.
         11    1    4    4    0    0  0.52702914863E+01 -0.62097454501E+02  0.36404927793E+02  0.72174708836E+02  0.00000000000E+00 0.  1.
          1    1    1    2  501    0  0.86151859135E+02  0.31728551602E+02 -0.15843394338E+03  0.18311241967E+03  0.00000000000E+00 0. -1.
<scales pt_clust_5="13000.00000" pt_clust_6="13000.00000" pt_clust_7="13000.00000" pt_clust_8="13000.00000" pt_clust_9="91.80873"></scales>
<clustering>
<clus scale="   89.716">  7  8 -1 -1</clus>
<clus scale="   91.237">  5  6 -1 -1</clus>
<clus scale="   91.809">  2  9  1 -1</clus>
<clus scale="  159.810">  2  7  1 -1</clus>
<clus scale="   91.809">  2  5  1 -1</clus>
</clustering>
</event>
<event>
 9    1  0.1601012E-005  0.1113176E+03  0.7546771E-02  0.1258282E+00
         21   -1    0    0  501  502  0.00000000000E+00  0.00000000000E+00  0.36075460510E+03  0.36075460510E+03  0.00000000000E+00 0.  1.
          4   -1    0    0  502    0 -0.00000000000E+00 -0.00000000000E+00 -0.47927429872E+02  0.47927429872E+02  0.00000000000E+00 0. -1.
         23    2    1    2    0    0 -0.17660978377E+01 -0.66677824114E+02  0.81040101193E+02  0.13902853383E+03  0.91172275877E+02 0.  0.
         23    2    1    2    0    0 -0.17467405355E+02  0.57526185081E+02  0.15374172366E+03  0.18875382958E+03  0.91526599245E+02 0.  0.
        -11    1    4    4    0    0 -0.29916422307E+02  0.78868854311E+02  0.11143773445E+03  0.13976286046E+03  0.00000000000E+00 0.  1.
         11    1    4    4    0    0  0.12449016953E+02 -0.21342669230E+02  0.42303989209E+02  0.48990969127E+02  0.00000000000E+00 0. -1.
        -13    1    3    3    0    0 -0.10319405854E+02 -0.47869829007E+02  0.99770805360E+02  0.11114056086E+03  0.00000000000E+00 0.  1.
         13    1    3    3    0    0  0.85533080165E+01 -0.18807995107E+02 -0.18730704167E+02  0.27887972973E+02  0.00000000000E+00 0. -1.
          4    1    1    2  501    0  0.19233503192E+02  0.91516390335E+01  0.78045350375E+02  0.80899671552E+02  0.00000000000E+00 0. -1.
<scales pt_clust_5="13000.00000" pt_clust_6="13000.00000" pt_clust_7="13000.00000" pt_clust_8="13000.00000" pt_clust_9="21.29977"></scales>
<clustering>
<clus scale="   21.300">  1  9  2 -1</clus>
<clus scale="   91.172">  7  8 -1 -1</clus>
<clus scale="   91.527">  5  6 -1 -1</clus>
<clus scale="  111.026">  2  7  1 -1</clus>
<clus scale="   21.300">  1  5  2 -1</clus>
</clustering>
</event>
<event>
 9    1  0.1601012E-005  0.1097714E+03  0.7546771E-02  0.1270485E+00
          1   -1    0    0  502    0 -0.00000000000E+00  0.00000000000E+00  0.38198893671E+02  0.38198893671E+02  0.00000000000E+00 0. -1.
         21   -1    0    0  501  502  0.00000000000E+00 -0.00000000000E+00 -0.37978980123E+03  0.37978980123E+03  0.00000000000E+00 0.  1.
         23    2    1    2    0    0  0.27527750587E+02  0.32360594027E+02 -0.11348679079E+03  0.15590009154E+03  0.98084666281E+02 0.  0.
         23    2    1    2    0    0 -0.49586793445E+02 -0.30149266753E+02 -0.13143949851E+03  0.16291431353E+03  0.76791297788E+02 0.  0.
        -11    1    4    4    0    0 -0.60934270721E+02 -0.87159539341E+01 -0.12244828976E+03  0.13704939572E+03  0.00000000000E+00 0.  1.
         11    1    4    4    0    0  0.11347477275E+02 -0.21433312819E+02 -0.89912087493E+01  0.25864917817E+02  0.00000000000E+00 0. -1.
        -11    1    3    3    0    0 -0.24320426527E+02  0.40371308185E+02 -0.82376098948E+02  0.94905992166E+02  0.00000000000E+00 0.  1.
         11    1    3    3    0    0  0.51848177115E+02 -0.80107141581E+01 -0.31110691846E+02  0.60994099375E+02  0.00000000000E+00 0. -1.
          1    1    1    2  501    0  0.22059042858E+02 -0.22113272740E+01 -0.96664618252E+02  0.99174289823E+02  0.00000000000E+00 0. -1.
<scales pt_clust_5="13000.00000" pt_clust_6="13000.00000" pt_clust_7="13000.00000" pt_clust_8="13000.00000" pt_clust_9="22.16960"></scales>
<clustering>
<clus scale="   22.170">  2  9  1 -1</clus>
<clus scale="   76.791">  5  6 -1 -1</clus>
<clus scale="   91.247">  2  5  1 -1</clus>
<clus scale="   98.085">  7  8 -1 -1</clus>
<clus scale="   22.170">  2  5  1 -1</clus>
</clustering>
</event>
<event>
 9    1  0.1601012E-005  0.1155240E+03  0.7546771E-02  0.1251530E+00
         21   -1    0    0  501  502  0.00000000000E+00  0.00000000000E+00  0.12646431678E+03  0.12646431678E+03  0.00000000000E+00 0. -1.
          2   -1    0    0  502    0 -0.00000000000E+00 -0.00000000000E+00 -0.17858496648E+03  0.17858496648E+03  0.00000000000E+00 0. -1.
         23    2    1    2    0    0  0.53026129811E+02  0.53096392174E+02 -0.96728551798E+02  0.15446348445E+03  0.94188948346E+02 0.  0.
         23    2    1    2    0    0 -0.41286572894E+02 -0.30616516154E+02  0.72471179957E+01  0.10543061957E+03  0.91766784088E+02 0.  0.
        -11    1    3    3    0    0  0.39665528610E+02 -0.12589231129E+02 -0.65909944979E+01  0.42134120482E+02  0.00000000000E+00 0.  1.
         11    1    3    3    0    0  0.13360601201E+02  0.65685623303E+02 -0.90137557300E+02  0.11232936397E+03  0.00000000000E+00 0. -1.
        -13    1    4    4    0    0 -0.61020092352E+02 -0.34589506842E+02 -0.18699068133E+02  0.72591602843E+02  0.00000000000E+00 0. -1.
         13    1    4    4    0    0  0.19733519459E+02  0.39729906882E+01  0.25946186129E+02  0.32839016731E+02  0.00000000000E+00 0.  1.
          2    1    1    2  501    0 -0.11739556917E+02 -0.22479876020E+02  0.37360784103E+02  0.45155179230E+02  0.00000000000E+00 0. -1.
<scales pt_clust_5="13000.00000" pt_clust_6="13000.00000" pt_clust_7="13000.00000" pt_clust_8="13000.00000" pt_clust_9="25.36064"></scales>
<clustering>
<clus scale="   25.361">  1  9  2 -1</clus>
<clus scale="   91.767">  7  8 -1 -1</clus>
<clus scale="   94.189">  5  6 -1 -1</clus>
<clus scale="  113.558">  1  7  2 -1</clus>
<clus scale="   25.361">  1  5  2 -1</clus>
</clustering>
</event>
<event>
 9    1  0.1601012E-005  0.1142020E+03  0.7546771E-02  0.1253956E+00
         -2   -1    0    0    0  501 -0.00000000000E+00  0.00000000000E+00  0.38502618859E+03  0.38502618859E+03  0.00000000000E+00 0.  1.
         21   -1    0    0  501  502  0.00000000000E+00 -0.00000000000E+00 -0.55381499783E+02  0.55381499783E+02  0.00000000000E+00 0. -1.
         23    2    1    2    0    0 -0.62670092552E+02  0.39141015649E+01  0.26777355244E+03  0.29102646450E+03  0.95136044499E+02 0.  0.
         23    2    1    2    0    0  0.62031036499E+02 -0.25590474391E+02  0.51361297969E+02  0.12528287881E+03  0.92493756137E+02 0.  0.
        -13    1    3    3    0    0 -0.42622083128E+02  0.40737505443E+02  0.21856879902E+03  0.22638132923E+03  0.00000000000E+00 0.  1.
         13    1    3    3    0    0 -0.20048009424E+02 -0.36823403878E+02  0.49204753422E+02  0.64645135272E+02  0.00000000000E+00 0. -1.
        -13    1    4    4    0    0  0.24361511431E+01 -0.19865512876E+02  0.61398367588E+02  0.64578115308E+02  0.00000000000E+00 0.  1.
         13    1    4    4    0    0  0.59594885356E+02 -0.57249615147E+01 -0.10037069619E+02  0.60704763499E+02  0.00000000000E+00 0. -1.
         -2    1    1    2    0  502  0.63905605316E+00  0.21676372826E+02  0.10509838392E+02  0.24098345058E+02  0.00000000000E+00 0.  1.
<scales pt_clust_5="13000.00000" pt_clust_6="13000.00000" pt_clust_7="13000.00000" pt_clust_8="13000.00000" pt_clust_9="21.68579"></scales>
<clustering>
<clus scale="   21.686">  2  9  1 -1</clus>
<clus scale="   92.494">  7  8 -1 -1</clus>
<clus scale="   95.136">  5  6 -1 -1</clus>
<clus scale="  112.010">  2  7  1 -1</clus>
<clus scale="   21.686">  2  5  1 -1</clus>
</clustering>
</event>
<event>
 9    1  0.1601012E-005  0.1466680E+03  0.7546771E-02  0.1205066E+00
         -3   -1    0    0    0  501 -0.00000000000E+00  0.00000000000E+00  0.26552217957E+03  0.26552217957E+03  0.00000000000E+00 0.  1.
         21   -1    0    0  501  502  0.00000000000E+00 -0.00000000000E+00 -0.13570406283E+03  0.13570406283E+03  0.00000000000E+00 0. -1.
         23    2    1    2    0    0 -0.25586168240E+02  0.99814735647E+02  0.10391464077E+03  0.17279893860E+03  0.91888993656E+02 0.  0.
         23    2    1    2    0    0  0.57505390834E+02 -0.12035064844E+03  0.65515537837E+02  0.17356679041E+03  0.89677179257E+02 0.  0.
        -13    1    4    4    0    0  0.58055902395E+02 -0.57274547044E+02 -0.14566977626E+01  0.81565823176E+02  0.00000000000E+00 0. -1.
         13    1    4    4    0    0 -0.55051156178E+00 -0.63076101397E+02  0.66972235600E+02  0.92000967232E+02  0.00000000000E+00 0.  1.
        -13    1    3    3    0    0 -0.32706181627E+02 -0.32349816239E+01  0.38107335196E+02  0.50322245761E+02  0.00000000000E+00 0. -1.
         13    1    3    3    0    0  0.71200133865E+01  0.10304971727E+03  0.65807305578E+02  0.12247669283E+03  0.00000000000E+00 0.  1.
         -3    1    1    2    0  502 -0.31919222593E+02  0.20535912794E+02 -0.39612061871E+02  0.54860513403E+02  0.00000000000E+00 0.  1.
<scales pt_clust_5="13000.00000" pt_clust_6="13000.00000" pt_clust_7="13000.00000" pt_clust_8="13000.00000" pt_clust_9="37.95472"></scales>
<clustering>
<clus scale="   37.955">  2  9  1 -1</clus>
<clus scale="   89.677">  5  6 -1 -1</clus>
<clus scale="   91.889">  7  8 -1 -1</clus>
<clus scale="  145.293">  2  5  1 -1</clus>
<clus scale="   37.955">  2  5  1 -1</clus>
</clustering>
</event>
<event>
 9    1  0.1601012E-005  0.9720688E+02  0.7546771E-02  0.1286351E+00
         21   -1    0    0  501  502  0.00000000000E+00  0.00000000000E+00  0.27944643812E+02  0.27944643812E+02  0.00000000000E+00 0.  1.
          2   -1    0    0  502    0 -0.00000000000E+00 -0.00000000000E+00 -0.64384361022E+03  0.64384361022E+03  0.00000000000E+00 0. -1.
         23    2    1    2    0    0  0.94822246266E+01 -0.32689577988E+02 -0.41037118236E+03  0.42180130619E+03  0.91396463297E+02 0.  0.
         23    2    1    2    0    0  0.27875218726E+02  0.32699907384E+02 -0.17333425605E+03  0.20067161629E+03  0.91531532833E+02 0.  0.
        -11    1    3    3    0    0  0.34894666966E+02 -0.51165446660E+02 -0.32463139288E+03  0.33048612975E+03  0.00000000000E+00 0. -1.
         11    1    3    3    0    0 -0.25412442340E+02  0.18475868672E+02 -0.85739789474E+02  0.91315176438E+02  0.00000000000E+00 0.  1.
        -13    1    4    4    0    0  0.25678564248E+01  0.47247847946E+02 -0.33883311681E+02  0.58198211593E+02  0.00000000000E+00 0.  1.
         13    1    4    4    0    0  0.25307362301E+02 -0.14547940562E+02 -0.13945094437E+03  0.14247340470E+03  0.00000000000E+00 0. -1.
          2    1    1    2  501    0 -0.37357443353E+02 -0.10329396204E-01 -0.32193528005E+02  0.49315331550E+02  0.00000000000E+00 0. -1.
<scales pt_clust_5="13000.00000" pt_clust_6="13000.00000" pt_clust_7="13000.00000" pt_clust_8="13000.00000" pt_clust_9="37.35744"></scales>
<clustering>
<clus scale="   37.357">  1  9  2 -1</clus>
<clus scale="   91.396">  5  6 -1 -1</clus>
<clus scale="   91.532">  7  8 -1 -1</clus>
<clus scale="   97.080">  2  5  1 -1</clus>
<clus scale="   37.357">  1  5  2 -1</clus>
</clustering>
</event>
<event>
 9    1  0.1601012E-005  0.1988005E+03  0.7546771E-02  0.1151336E+00
          1   -1    0    0  502    0 -0.00000000000E+00  0.00000000000E+00  0.95871661168E+03  0.95871661168E+03  0.00000000000E+00 0. -1.
         21   -1    0    0  501  502  0.00000000000E+00 -0.00000000000E+00 -0.94481826069E+02  0.94481826069E+02  0.00000000000E+00 0. -1.
         23    2    1    2    0    0  0.86853260372E+02 -0.92371911339E+02  0.26215774314E+03  0.30453639492E+03  0.89104852285E+02 0.  0.
         23    2    1    2    0    0 -0.19755384301E+03  0.13590532384E+03  0.56974343297E+03  0.62539307145E+03  0.94927005981E+02 0.  0.
        -11    1    4    4    0    0 -0.33808463628E+02  0.47708505321E+02  0.64779195363E+02  0.87266590656E+02  0.00000000000E+00 0.  1.
         11    1    4    4    0    0 -0.16374537939E+03  0.88196818520E+02  0.50496423761E+03  0.53812648079E+03  0.00000000000E+00 0. -1.
        -11    1    3    3    0    0  0.72286199245E+01 -0.54644963549E+02  0.48487676975E+02  0.73412395450E+02  0.00000000000E+00 0. -1.
         11    1    3    3    0    0  0.79624640448E+02 -0.37726947791E+02  0.21367006616E+03  0.23112399947E+03  0.00000000000E+00 0.  1.
          1    1    1    2  501    0  0.11070058264E+03 -0.43533412501E+02  0.32333609495E+02  0.12326897138E+03  0.00000000000E+00 0. -1.
<scales pt_clust_5="13000.00000" pt_clust_6="13000.00000" pt_clust_7="13000.00000" pt_clust_8="13000.00000" pt_clust_9="118.95284"></scales>
<clustering>
<clus scale="   89.105">  7  8 -1 -1</clus>
<clus scale="   94.927">  5  6 -1 -1</clus>
<clus scale="  118.953">  2  9  1 -1</clus>
<clus scale="  196.087">  1  7  2 -1</clus>
<clus scale="  118.953">  2  5  1 -1</clus>
</clustering>
</event>
<event>
 9    1  0.1601012E-005  0.1941430E+03  0.7546771E-02  0.1154845E+00
         21   -1    0    0  501  502  0.00000000000E+00  0.00000000000E+00  0.12238316469E+03  0.12238316469E+03  0.00000000000E+00 0.  1.
          1   -1    0    0  502    0 -0.00000000000E+00 -0.00000000000E+00 -0.83525454040E+03  0.83525454040E+03  0.00000000000E+00 0. -1.
         23    2    1    2    0    0  0.11021787415E+03 -0.11798863898E+03 -0.56379689874E+03  0.59351989559E+03  0.91266777751E+02 0.  0.
         23    2    1    2    0    0 -0.11222938563E+03  0.17842473745E+03 -0.18416301928E+03  0.29420519276E+03  0.90608254831E+02 0.  0.
        -11    1    3    3    0    0  0.48769391821E+02 -0.89159880310E+02 -0.21032942733E+03  0.23359453298E+03  0.00000000000E+00 0. -1.
         11    1    3    3    0    0  0.61448482328E+02 -0.28828758668E+02 -0.35346747141E+03  0.35992536261E+03  0.00000000000E+00 0.  1.
        -13    1    4    4    0    0 -0.12766040497E+02  0.10244372751E+03 -0.69425708129E+02  0.12440907541E+03  0.00000000000E+00 0.  1.
         13    1    4    4    0    0 -0.99463345130E+02  0.75981009947E+02 -0.11473731115E+03  0.16979611735E+03  0.00000000000E+00 0. -1.
          1    1    1    2  501    0  0.20115114765E+01 -0.60436098475E+02  0.35088542320E+02  0.69912616740E+02  0.00000000000E+00 0. -1.
<scales pt_clust_5="13000.00000" pt_clust_6="13000.00000" pt_clust_7="13000.00000" pt_clust_8="13000.00000" pt_clust_9="60.46956"></scales>
<clustering>
<clus scale="   60.470">  1  9  2 -1</clus>
<clus scale="   90.608">  7  8 -1 -1</clus>
<clus scale="   91.267">  5  6 -1 -1</clus>
<clus scale="  193.834">  1  7  2 -1</clus>
<clus scale="   60.470">  1  5  2 -1</clus>
</clustering>
</event>
<event>
 9    1  0.1601012E-005  0.9611319E+02  0.7546771E-02  0.1296633E+00
         -1   -1    0    0    0  501 -0.00000000000E+00  0.00000000000E+00  0.20242082482E+03  0.20242082482E+03  0.00000000000E+00 0.  1.
         21   -1    0    0  501  502  0.00000000000E+00 -0.00000000000E+00 -0.12169926556E+03  0.12169926556E+03  0.00000000000E+00 0.  1.
         23    2    1    2    0    0  0.41448893641E+02  0.21611980145E+02  0.14386508608E+03  0.17565285097E+03  0.89284223648E+02 0.  0.
         23    2    1    2    0    0 -0.11506893666E+02  0.71139522401E+01 -0.39305330802E+01  0.76163151135E+02  0.74848911697E+02 0.  0.
        -11    1    3    3    0    0  0.62646349598E+01  0.22424050733E+02  0.13802866521E+03  0.13997855594E+03  0.00000000000E+00 0. -1.
         11    1    3    3    0    0  0.35184258681E+02 -0.81207058786E+00  0.58364208655E+01  0.35674295033E+02  0.00000000000E+00 0.  1.
        -11    1    4    4    0    0  0.25132158326E+02  0.12768872864E+02 -0.21193531662E+02  0.35268049006E+02  0.00000000000E+00 0.  1.
         11    1    4    4    0    0 -0.36639051992E+02 -0.56549206243E+01  0.17262998581E+02  0.40895102130E+02  0.00000000000E+00 0. -1.
         -1    1    1    2    0  502 -0.29941999975E+02 -0.28725932386E+02 -0.59212993739E+02  0.72304088276E+02  0.00000000000E+00 0.  1.
<scales pt_clust_5="13000.00000" pt_clust_6="13000.00000" pt_clust_7="13000.00000" pt_clust_8="13000.00000" pt_clust_9="41.49340"></scales>
<clustering>
<clus scale="   41.493">  2  9  1 -1</clus>
<clus scale="   74.849">  7  8 -1 -1</clus>
<clus scale="   82.876">  2  7  1 -1</clus>
<clus scale="   89.284">  5  6 -1 -1</clus>
<clus scale="   41.493">  2  5  1 -1</clus>
</clustering>
</event>
<event>
 9    1  0.1601012E-005  0.2011348E+03  0.7546771E-02  0.1148865E+00
         21   -1    0    0  501  502  0.00000000000E+00  0.00000000000E+00  0.19502266575E+03  0.19502266575E+03  0.00000000000E+00 0. -1.
          1   -1    0    0  502    0 -0.00000000000E+00 -0.00000000000E+00 -0.31152310337E+03  0.31152310337E+03  0.00000000000E+00 0. -1.
         23    2    1    2    0    0  0.11949696883E+03  0.14042353794E+03 -0.64566801938E+02  0.21638426163E+03  0.93032151434E+02 0.  0.
         23    2    1    2    0    0 -0.48435626856E+02 -0.17356656639E+03 -0.13572919282E+02  0.20287050440E+03  0.92200078641E+02 0.  0.
        -11    1    3    3    0    0 -0.67356317532E+01  0.35915298046E+02  0.75912412938E+01  0.37321633314E+02  0.00000000000E+00 0.  1.
         11    1    3    3    0    0  0.12623260058E+03  0.10450823990E+03 -0.72158043232E+02  0.17906262831E+03  0.00000000000E+00 0. -1.
        -13    1    4    4    0    0 -0.61987379413E+02 -0.13147365120E+03 -0.40760323349E+02  0.15096079002E+03  0.00000000000E+00 0. -1.
         13    1    4    4    0    0  0.13551752557E+02 -0.42092915195E+02  0.27187404067E+02  0.51909714379E+02  0.00000000000E+00 0.  1.
          1    1    1    2  501    0 -0.71061341971E+02  0.33143028447E+02 -0.38360716406E+02  0.87291003090E+02  0.00000000000E+00 0. -1.
<scales pt_clust_5="13000.00000" pt_clust_6="13000.00000" pt_clust_7="13000.00000" pt_clust_8="13000.00000" pt_clust_9="78.41034"></scales>
<clustering>
<clus scale="   78.410">  1  9  2 -1</clus>
<clus scale="   92.200">  7  8 -1 -1</clus>
<clus scale="   93.032">  5  6 -1 -1</clus>
<clus scale="  200.751">  1  7  2 -1</clus>
<clus scale="   78.410">  1  5  2 -1</clus>
</clustering>
</event>
<event>
 9    1  0.1601012E-005  0.9831136E+02  0.7546771E-02  0.1284844E+00
         21   -1    0    0  501  502  0.00000000000E+00  0.00000000000E+00  0.61052239942E+02  0.61052239942E+02  0.00000000000E+00 0. -1.
          1   -1    0    0  502    0 -0.00000000000E+00 -0.00000000000E+00 -0.45362216054E+03  0.45362216054E+03  0.00000000000E+00 0. -1.
         23    2    1    2    0    0  0.13448205409E+02 -0.53969287419E+02 -0.23305371668E+03  0.25636356631E+03  0.91185004569E+02 0.  0.
         23    2    1    2    0    0 -0.39269602413E+02 -0.48317275869E+01 -0.16720099530E+03  0.19363193555E+03  0.89284412807E+02 0.  0.
        -11    1    4    4    0    0  0.26497728504E+02  0.12927320585E+02 -0.53456116807E+02  0.61047536048E+02  0.00000000000E+00 0.  1.
         11    1    4    4    0    0 -0.65767330917E+02 -0.17759048172E+02 -0.11374487849E+03  0.13258439950E+03  0.00000000000E+00 0. -1.
        -13    1    3    3    0    0  0.23785472896E+02  0.12561688770E+02 -0.13347834239E+03  0.13616171501E+03  0.00000000000E+00 0.  1.
         13    1    3    3    0    0 -0.10337267487E+02 -0.66530976189E+02 -0.99575374291E+02  0.12020185130E+03  0.00000000000E+00 0. -1.
          1    1    1    2  501    0  0.25821397004E+02  0.58801015006E+02  0.76847913805E+01  0.64678898626E+02  0.00000000000E+00 0. -1.
<scales pt_clust_5="13000.00000" pt_clust_6="13000.00000" pt_clust_7="13000.00000" pt_clust_8="13000.00000" pt_clust_9="64.22074"></scales>
<clustering>
<clus scale="   64.221">  1  9  2 -1</clus>
<clus scale="   89.284">  5  6 -1 -1</clus>
<clus scale="   91.185">  7  8 -1 -1</clus>
<clus scale="   96.551">  1  5  2 -1</clus>
<clus scale="   64.221">  1  5  2 -1</clus>
</clustering>
</event>
<event>
 9    1  0.1601012E-005  0.1071716E+03  0.7546771E-02  0.1266265E+00
          1   -1    0    0  502    0 -0.00000000000E+00  0.00000000000E+00  0.30285411715E+03  0.30285411715E+03  0.00000000000E+00 0. -1.
         21   -1    0    0  501  502  0.00000000000E+00 -0.00000000000E+00 -0.14125838831E+03  0.14125838831E+03  0.00000000000E+00 0. -1.
         23    2    1    2    0    0  0.54134816104E+02 -0.26047118502E+02  0.25114321010E+03  0.27417755973E+03  0.92148747041E+02 0.  0.
         23    2    1    2    0    0 -0.84285061179E+01  0.27530837751E+02 -0.43782899452E+02  0.10523822909E+03  0.91264208948E+02 0.  0.
        -13    1    4    4    0    0  0.30574383917E+02 -0.15702566543E+02 -0.29477122013E+02  0.45279843972E+02  0.00000000000E+00 0.  1.
         13    1    4    4    0    0 -0.39002890035E+02  0.43233404294E+02 -0.14305777439E+02  0.59958385119E+02  0.00000000000E+00 0. -1.
        -13    1    3    3    0    0  0.41370139844E+02 -0.55704617691E+02  0.21397321233E+03  0.22494227814E+03  0.00000000000E+00 0. -1.
         13    1    3    3    0    0  0.12764676260E+02  0.29657499189E+02  0.37169997776E+02  0.49235281586E+02  0.00000000000E+00 0.  1.
          1    1    1    2  501    0 -0.45706309986E+02 -0.14837192494E+01 -0.45764581808E+02  0.64696716635E+02  0.00000000000E+00 0. -1.
<scales pt_clust_5="13000.00000" pt_clust_6="13000.00000" pt_clust_7="13000.00000" pt_clust_8="13000.00000" pt_clust_9="45.73039"></scales>
<clustering>
<clus scale="   45.730">  2  9  1 -1</clus>
<clus scale="   91.264">  5  6 -1 -1</clus>
<clus scale="   92.149">  7  8 -1 -1</clus>
<clus scale="  106.412">  2  5  1 -1</clus>
<clus scale="   45.730">  2  5  1 -1</clus>
</clustering>
</event>
<event>
 9    1  0.1601012E-005  0.1293104E+03  0.7546771E-02  0.1241830E+00
         21   -1    0    0  501  502  0.00000000000E+00  0.00000000000E+00  0.14072939126E+03  0.14072939126E+03  0.00000000000E+00 0. -1.
          2   -1    0    0  502    0 -0.00000000000E+00 -0.00000000000E+00 -0.37861203714E+03  0.37861203714E+03  0.00000000000E+00 0. -1.
         23    2    1    2    0    0  0.30423285425E+02 -0.26495951991E+02 -0.27110640197E+03  0.28840874276E+03  0.89740235943E+02 0.  0.
         23    2    1    2    0    0  0.59388792907E+01 -0.69057606005E+02 -0.18298085822E+02  0.11644605033E+03  0.91764042297E+02 0.  0.
        -11    1    3    3    0    0 -0.96706582941E+01  0.28288699214E+02 -0.68782173658E+02  0.74998396971E+02  0.00000000000E+00 0.  1.
         11    1    3    3    0    0  0.40093943719E+02 -0.54784651205E+02 -0.20232422831E+03  0.21341034579E+03  0.00000000000E+00 0. -1.
        -13    1    4    4    0    0  0.28667907086E+02 -0.21813161471E+02 -0.44973923924E+02  0.57622189677E+02  0.00000000000E+00 0. -1.
         13    1    4    4    0    0 -0.22729027795E+02 -0.47244444534E+02  0.26675838102E+02  0.58823860655E+02  0.00000000000E+00 0.  1.
          2    1    1    2  501    0 -0.36362164716E+02  0.95553557996E+02  0.51521841911E+02  0.11448663530E+03  0.00000000000E+00 0. -1.
<scales pt_clust_5="13000.00000" pt_clust_6="13000.00000" pt_clust_7="13000.00000" pt_clust_8="13000.00000" pt_clust_9="91.10730"></scales>
<clustering>
<clus scale="   89.740">  5  6 -1 -1</clus>
<clus scale="   91.764">  7  8 -1 -1</clus>
<clus scale="   98.392">  2  5  1 -1</clus>
<clus scale="   91.107">  1  9  2 -1</clus>
<clus scale="   91.107">  1  5  2 -1</clus>
</clustering>
</event>
<event>
 9    1  0.1601012E-005  0.9709077E+02  0.7546771E-02  0.1286752E+00
          1   -1    0    0  502    0 -0.00000000000E+00  0.00000000000E+00  0.25093591360E+03  0.25093591360E+03  0.00000000000E+00 0. -1.
         21   -1    0    0  501  502  0.00000000000E+00 -0.00000000000E+00 -0.14132196123E+03  0.14132196123E+03  0.00000000000E+00 0. -1.
         23    2    1    2    0    0  0.59597212400E+01  0.18093575823E+02  0.10734725860E+03  0.14352183715E+03  0.93339102452E+02 0.  0.
         23    2    1    2    0    0  0.12529742205E+02 -0.36162664992E+02  0.10349265985E+03  0.14426092844E+03  0.92928747184E+02 0.  0.
        -11    1    3    3    0    0  0.25501280217E+02  0.37314490247E+02  0.10695127045E+03  0.11610883138E+03  0.00000000000E+00 0. -1.
         11    1    3    3    0    0 -0.19541558977E+02 -0.19220914424E+02  0.39598815429E+00  0.27413005767E+02  0.00000000000E+00 0.  1.
        -13    1    4    4    0    0  0.32321515932E+01 -0.66090810464E+02  0.85533350983E+02  0.10814063141E+03  0.00000000000E+00 0. -1.
         13    1    4    4    0    0  0.92975906115E+01  0.29928145473E+02  0.17959308867E+02  0.36120297031E+02  0.00000000000E+00 0.  1.
          1    1    1    2  501    0 -0.18489463445E+02  0.18069089168E+02 -0.10122596608E+03  0.10447510924E+03  0.00000000000E+00 0. -1.
<scales pt_clust_5="13000.00000" pt_clust_6="13000.00000" pt_clust_7="13000.00000" pt_clust_8="13000.00000" pt_clust_9="25.85251"></scales>
<clustering>
<clus scale="   25.853">  2  9  1 -1</clus>
<clus scale="   92.929">  7  8 -1 -1</clus>
<clus scale="   93.339">  5  6 -1 -1</clus>
<clus scale="   96.696">  2  7  1 -1</clus>
<clus scale="   25.853">  2  5  1 -1</clus>
</clustering>
</event>
<event>
 9    1  0.1601012E-005  0.9629506E+02  0.7546771E-02  0.1288600E+00
         -3   -1    0    0    0  501 -0.00000000000E+00  0.00000000000E+00  0.28760713608E+03  0.28760713608E+03  0.00000000000E+00 0.  1.
         21   -1    0    0  501  502  0.00000000000E+00 -0.00000000000E+00 -0.48455690810E+02  0.48455690810E+02  0.00000000000E+00 0. -1.
         23    2    1    2    0    0  0.11563598865E+02  0.36986151464E+02  0.15056278940E+03  0.18050928433E+03  0.91721076956E+02 0.  0.
         23    2    1    2    0    0  0.13488224529E+02 -0.18080396738E+02  0.79121170897E+02  0.12277161631E+03  0.91125611881E+02 0.  0.
        -11    1    4    4    0    0  0.32273009971E+02 -0.43936966463E+02  0.71505677398E+02  0.89916995583E+02  0.00000000000E+00 0.  1.
         11    1    4    4    0    0 -0.18784785441E+02  0.25856569725E+02  0.76154934993E+01  0.32854620729E+02  0.00000000000E+00 0. -1.
        -13    1    3    3    0    0 -0.18061443386E+02  0.55831386956E+02  0.62624372814E+02  0.85820577817E+02  0.00000000000E+00 0. -1.
         13    1    3    3    0    0  0.29625042251E+02 -0.18845235491E+02  0.87938416584E+02  0.94688706509E+02  0.00000000000E+00 0.  1.
         -3    1    1    2    0  502 -0.25051823394E+02 -0.18905754727E+02  0.94674849788E+01  0.32781926255E+02  0.00000000000E+00 0.  1.
<scales pt_clust_5="13000.00000" pt_clust_6="13000.00000" pt_clust_7="13000.00000" pt_clust_8="13000.00000" pt_clust_9="31.38505"></scales>
<clustering>
<clus scale="   31.385">  2  9  1 -1</clus>
<clus scale="   91.126">  5  6 -1 -1</clus>
<clus scale="   91.721">  7  8 -1 -1</clus>
<clus scale="   95.728">  2  5  1 -1</clus>
<clus scale="   31.385">  2  5  1 -1</clus>
</clustering>
</event>
<event>
 9    1  0.1601012E-005  0.8977643E+02  0.7546771E-02  0.1322226E+00
         21   -1    0    0  501  502  0.00000000000E+00  0.00000000000E+00  0.29141648996E+02  0.29141648996E+02  0.00000000000E+00 0. -1.
         -2   -1    0    0    0  501 -0.00000000000E+00 -0.00000000000E+00 -0.32493325146E+03  0.32493325146E+03  0.00000000000E+00 0.  1.
         23    2    1    2    0    0  0.10079883053E+02 -0.48850869824E+01 -0.13754451176E+03  0.15116445876E+03  0.61698725766E+02 0.  0.
         23    2    1    2    0    0 -0.32304905213E+02 -0.17366873766E+02 -0.11892024885E+03  0.15255468872E+03  0.88236569849E+02 0.  0.
        -11    1    4    4    0    0 -0.18902638131E+02 -0.52628745040E+02 -0.55650786049E+02  0.78892994116E+02  0.00000000000E+00 0. -1.
         11    1    4    4    0    0 -0.13402267083E+02  0.35261871275E+02 -0.63269462799E+02  0.73661694602E+02  0.00000000000E+00 0.  1.
        -13    1    3    3    0    0  0.89747345647E+01 -0.30701183405E+02 -0.10408431733E+03  0.10888826217E+03  0.00000000000E+00 0. -1.
         13    1    3    3    0    0  0.11051484880E+01  0.25816096423E+02 -0.33460194426E+02  0.42276196597E+02  0.00000000000E+00 0.  1.
         -2    1    1    2    0  502  0.22225022161E+02  0.22251960748E+02 -0.39326841859E+02  0.50355752976E+02  0.00000000000E+00 0.  1.
<scales pt_clust_5="13000.00000" pt_clust_6="13000.00000" pt_clust_7="13000.00000" pt_clust_8="13000.00000" pt_clust_9="31.44998"></scales>
<clustering>
<clus scale="   31.450">  1  9  2 -1</clus>
<clus scale="   61.699">  7  8 -1 -1</clus>
<clus scale="   63.882">  2  7  1 -1</clus>
<clus scale="   88.237">  5  6 -1 -1</clus>
<clus scale="   31.450">  1  5  2 -1</clus>
</clustering>
</event>
<event>
 9    1  0.1601012E-005  0.1240823E+03  0.7546771E-02  0.1238263E+00
         -1   -1    0    0    0  501 -0.00000000000E+00  0.00000000000E+00  0.15242769597E+03  0.15242769597E+03  0.00000000000E+00 0.  1.
         21   -1    0    0  501  502  0.00000000000E+00 -0.00000000000E+00 -0.30723460055E+03  0.30723460055E+03  0.00000000000E+00 0. -1.
         23    2    1    2    0    0 -0.58789088236E+02  0.38082507583E+02  0.34426565861E+02  0.11828838956E+03  0.88884871532E+02 0.  0.
         23    2    1    2    0    0  0.14787438782E+03 -0.72255072505E+02 -0.15251523780E+03  0.23913798665E+03  0.82694914114E+02 0.  0.
        -11    1    4    4    0    0  0.96276166130E+02 -0.76481583104E+02 -0.69325275545E+02  0.14115426507E+03  0.00000000000E+00 0.  1.
         11    1    4    4    0    0  0.51598221690E+02  0.42265105989E+01 -0.83189962258E+02  0.97983721576E+02  0.00000000000E+00 0. -1.
        -13    1    3    3    0    0 -0.80033497779E+02  0.16064300886E+02  0.31707526208E+02  0.87571626386E+02  0.00000000000E+00 0.  1.
         13    1    3    3    0    0  0.21244409542E+02  0.22018206697E+02  0.27190396524E+01  0.30716763169E+02  0.00000000000E+00 0. -1.
         -1    1    1    2    0  502 -0.89085299584E+02  0.34172564922E+02 -0.36718232633E+02  0.10223592032E+03  0.00000000000E+00 0.  1.
<scales pt_clust_5="13000.00000" pt_clust_6="13000.00000" pt_clust_7="13000.00000" pt_clust_8="13000.00000" pt_clust_9="95.41465"></scales>
<clustering>
<clus scale="   82.695">  5  6 -1 -1</clus>
<clus scale="   88.885">  7  8 -1 -1</clus>
<clus scale="   95.415">  2  9  1 -1</clus>
<clus scale="  119.726">  2  5  1 -1</clus>
<clus scale="   95.415">  2  5  1 -1</clus>
</clustering>
</event>
<event>
 9    1  0.1601012E-005  0.1769081E+03  0.7546771E-02  0.1171489E+00
         21   -1    0    0  501  502  0.00000000000E+00  0.00000000000E+00  0.37695163548E+02  0.37695163548E+02  0.00000000000E+00 0.  1.
          2   -1    0    0  502    0 -0.00000000000E+00 -0.00000000000E+00 -0.13332483732E+04  0.13332483732E+04  0.00000000000E+00 0. -1.
         23    2    1    2    0    0 -0.14256441112E+03  0.39648719714E+02 -0.65837982794E+03  0.68027995218E+03  0.86140485308E+02 0.  0.
         23    2    1    2    0    0  0.15612173421E+03 -0.14853039220E+02 -0.63705228357E+03  0.66240333962E+03  0.91367191481E+02 0.  0.
        -11    1    3    3    0    0 -0.64517052575E+02 -0.21657727724E+02 -0.34174848694E+03  0.34845880039E+03  0.00000000000E+00 0. -1.
         11    1    3    3    0    0 -0.78047358543E+02  0.61306447438E+02 -0.31663134100E+03  0.33182115179E+03  0.00000000000E+00 0.  1.
        -13    1    4    4    0    0  0.31621056084E+02  0.18692701998E+02 -0.54306319019E+02  0.65562829265E+02  0.00000000000E+00 0.  1.
         13    1    4    4    0    0  0.12450067813E+03 -0.33545741217E+02 -0.58274596455E+03  0.59684051036E+03  0.00000000000E+00 0. -1.
          2    1    1    2  501    0 -0.13557323096E+02 -0.24795680494E+02 -0.12109816663E+00  0.28260244965E+02  0.00000000000E+00 0. -1.
<scales pt_clust_5="13000.00000" pt_clust_6="13000.00000" pt_clust_7="13000.00000" pt_clust_8="13000.00000" pt_clust_9="28.25999"></scales>
<clustering>
<clus scale="   28.260">  1  9  2 -1</clus>
<clus scale="   86.140">  5  6 -1 -1</clus>
<clus scale="   91.367">  7  8 -1 -1</clus>
<clus scale="  174.266">  2  5  1 -1</clus>
<clus scale="   28.260">  1  5  2 -1</clus>
</clustering>
</event>
<event>
 9    1  0.1601012E-005  0.1715614E+03  0.7546771E-02  0.1176584E+00
          3   -1    0    0  502    0 -0.00000000000E+00  0.00000000000E+00  0.40695668819E+03  0.40695668819E+03  0.00000000000E+00 0. -1.
         21   -1    0    0  501  502  0.00000000000E+00 -0.00000000000E+00 -0.15334597332E+03  0.15334597332E+03  0.00000000000E+00 0. -1.
         23    2    1    2    0    0 -0.96114710113E+02  0.11077942149E+03  0.19270165046E+03  0.25834037684E+03  0.89976144013E+02 0.  0.
         23    2    1    2    0    0  0.43427641196E+02 -0.14244446086E+03  0.12332574899E+03  0.21435837801E+03  0.92541284885E+02 0.  0.
        -11    1    4    4    0    0  0.25074589208E+02  0.29421281595E+01  0.35343575027E+02  0.43434541988E+02  0.00000000000E+00 0.  1.
         11    1    4    4    0    0  0.18353051988E+02 -0.14538658902E+03  0.87982173962E+02  0.17092383602E+03  0.00000000000E+00 0. -1.
        -13    1    3    3    0    0 -0.74463954083E+02  0.12470657057E+03  0.15248784664E+03  0.21059238488E+03  0.00000000000E+00 0. -1.
         13    1    3    3    0    0 -0.21650756030E+02 -0.13927149074E+02  0.40213803825E+02  0.47747991959E+02  0.00000000000E+00 0.  1.
          3    1    1    2  501    0  0.52687068917E+02  0.31665039367E+02 -0.62416684582E+02  0.87603906668E+02  0.00000000000E+00 0. -1.
<scales pt_clust_5="13000.00000" pt_clust_6="13000.00000" pt_clust_7="13000.00000" pt_clust_8="13000.00000" pt_clust_9="61.47033"></scales>
<clustering>
<clus scale="   61.470">  2  9  1 -1</clus>
<clus scale="   89.976">  7  8 -1 -1</clus>
<clus scale="   92.541">  5  6 -1 -1</clus>
<clus scale="  170.191">  1  7  2 -1</clus>
<clus scale="   61.470">  2  5  1 -1</clus>
</clustering>
</event>
<event>
 9    1  0.1601012E-005  0.9489602E+02  0.7546771E-02  0.1293147E+00
         21   -1    0    0  501  502  0.00000000000E+00  0.00000000000E+00  0.32084033083E+02  0.32084033083E+02  0.00000000000E+00 0. -1.
          1   -1    0    0  502    0 -0.00000000000E+00 -0.00000000000E+00 -0.50281061358E+03  0.50281061358E+03  0.00000000000E+00 0. -1.
         23    2    1    2    0    0  0.31414788454E+02 -0.38413699153E+02 -0.24288137672E+03  0.26294205636E+03  0.87662196126E+02 0.  0.
         23    2    1    2    0    0 -0.11390730647E+02 -0.58518073830E+01 -0.18775613126E+03  0.20896424460E+03  0.90827849799E+02 0.  0.
        -13    1    3    3    0    0  0.61586342812E+02 -0.33454105094E+02 -0.16451169334E+03  0.17881876863E+03  0.00000000000E+00 0. -1.
         13    1    3    3    0    0 -0.30171554358E+02 -0.49595940581E+01 -0.78369683381E+02  0.84123287732E+02  0.00000000000E+00 0.  1.
        -13    1    4    4    0    0 -0.18972443456E+02 -0.26026810834E+02 -0.18435217911E+03  0.18714452820E+03  0.00000000000E+00 0. -1.
         13    1    4    4    0    0  0.75817128096E+01  0.20175003451E+02 -0.34039521527E+01  0.21819716397E+02  0.00000000000E+00 0.  1.
          1    1    1    2  501    0 -0.20024057807E+02  0.44265506536E+02 -0.40089072522E+02  0.62988345712E+02  0.00000000000E+00 0. -1.
<scales pt_clust_5="13000.00000" pt_clust_6="13000.00000" pt_clust_7="13000.00000" pt_clust_8="13000.00000" pt_clust_9="48.58393"></scales>
<clustering>
<clus scale="   48.584">  1  9  2 -1</clus>
<clus scale="   87.662">  5  6 -1 -1</clus>
<clus scale="   90.828">  7  8 -1 -1</clus>
<clus scale="   91.871">  2  5  1 -1</clus>
<clus scale="   48.584">  1  5  2 -1</clus>
</clustering>
</event>
<event>
 9    1  0.1601012E-005  0.2102058E+03  0.7546771E-02  0.1141417E+00
          3   -1    0    0  502    0 -0.00000000000E+00  0.00000000000E+00  0.29450369369E+03  0.29450369369E+03  0.00000000000E+00 0. -1.
         21   -1    0    0  501  502  0.00000000000E+00 -0.00000000000E+00 -0.20492235862E+03  0.20492235862E+03  0.00000000000E+00 0.  1.
         23    2    1    2    0    0 -0.40646465152E+02  0.17303952847E+03  0.84167366686E+02  0.21574588102E+03  0.88697948232E+02 0.  0.
         23    2    1    2    0    0  0.84211011914E+02 -0.19541200766E+03  0.23077714172E+02  0.23161861661E+03  0.88528274612E+02 0.  0.
        -11    1    3    3    0    0 -0.82493954408E+01  0.55618838336E+02 -0.15537757738E+02  0.58334634811E+02  0.00000000000E+00 0.  1.
         11    1    3    3    0    0 -0.32397069711E+02  0.11742069013E+03  0.99705124424E+02  0.15741124621E+03  0.00000000000E+00 0. -1.
        -13    1    4    4    0    0  0.54327204868E+02 -0.18605546217E+03  0.19341310550E+01  0.19383451977E+03  0.00000000000E+00 0.  1.
         13    1    4    4    0    0  0.29883807046E+02 -0.93565454869E+01  0.21143583117E+02  0.37784096841E+02  0.00000000000E+00 0. -1.
          3    1    1    2  501    0 -0.43564546762E+02  0.22372479190E+02 -0.17663745787E+02  0.52061554672E+02  0.00000000000E+00 0. -1.
<scales pt_clust_5="13000.00000" pt_clust_6="13000.00000" pt_clust_7="13000.00000" pt_clust_8="13000.00000" pt_clust_9="48.97344"></scales>
<clustering>
<clus scale="   48.973">  2  9  1 -1</clus>
<clus scale="   88.528">  7  8 -1 -1</clus>
<clus scale="   88.698">  5  6 -1 -1</clus>
<clus scale="  210.134">  2  7  1 -1</clus>
<clus scale="   48.973">  2  5  1 -1</clus>
</clustering>
</event>
<event>
 9    1  0.1601012E-005  0.1067226E+03  0.7546771E-02  0.1268707E+00
         21   -1    0    0  501  502  0.00000000000E+00  0.00000000000E+00  0.78462876867E+02  0.78462876867E+02  0.00000000000E+00 0.  1.
          2   -1    0    0  502    0 -0.00000000000E+00 -0.00000000000E+00 -0.28924742157E+03  0.28924742157E+03  0.00000000000E+00 0. -1.
         23    2    1    2    0    0  0.28558739671E+02  0.49853251114E+02 -0.16799565485E+03  0.19913524722E+03  0.90174044923E+02 0.  0.
         23    2    1    2    0    0 -0.21620510212E+02 -0.29214558202E+02 -0.77486586986E+02  0.12761134947E+03  0.94654891470E+02 0.  0.
        -13    1    4    4    0    0  0.13559610718E+02 -0.31674658418E+02  0.77949462286E+01  0.35325744372E+02  0.00000000000E+00 0.  1.
         13    1    4    4    0    0 -0.35180120930E+02  0.24601002161E+01 -0.85281533215E+02  0.92285605103E+02  0.00000000000E+00 0. -1.
        -13    1    3    3    0    0  0.18097528396E+02 -0.14230668110E+02 -0.48291260166E+01  0.23523454402E+02  0.00000000000E+00 0.  1.
         13    1    3    3    0    0  0.10461211275E+02  0.64083919224E+02 -0.16316652884E+03  0.17561179282E+03  0.00000000000E+00 0. -1.
          2    1    1    2  501    0 -0.69382294598E+01 -0.20638692912E+02  0.34697697141E+02  0.40963701737E+02  0.00000000000E+00 0. -1.
<scales pt_clust_5="13000.00000" pt_clust_6="13000.00000" pt_clust_7="13000.00000" pt_clust_8="13000.00000" pt_clust_9="21.77372"></scales>
<clustering>
<clus scale="   21.774">  1  9  2 -1</clus>
<clus scale="   90.174">  7  8 -1 -1</clus>
<clus scale="   94.655">  5  6 -1 -1</clus>
<clus scale="  102.769">  2  7  1 -1</clus>
<clus scale="   21.774">  1  5  2 -1</clus>
</clustering>
</event>
<event>
 9    1  0.1601012E-005  0.1190692E+03  0.7546771E-02  0.1244676E+00
          1   -1    0    0  502    0 -0.00000000000E+00  0.00000000000E+00  0.17994364019E+03  0.17994364019E+03  0.00000000000E+00 0. -1.
         21   -1    0    0  501  502  0.00000000000E+00 -0.00000000000E+00 -0.12673067953E+03  0.12673067953E+03  0.00000000000E+00 0. -1.
         23    2    1    2    0    0  0.62834483914E+02 -0.14045232955E+02  0.48482898198E+02  0.12154227455E+03  0.90975228204E+02 0.  0.
         23    2    1    2    0    0 -0.86639640145E+02  0.34697033417E+02  0.41357982259E+02  0.13681241320E+03  0.91087004212E+02 0.  0.
        -11    1    3    3    0    0  0.25915961461E+02  0.38801982633E+02  0.24974980043E+02  0.52924290669E+02  0.00000000000E+00 0.  1.
         11    1    3    3    0    0  0.36918522452E+02 -0.52847215587E+02  0.23507918155E+02  0.68617983877E+02  0.00000000000E+00 0. -1.
        -13    1    4    4    0    0 -0.92987511601E+01 -0.28531868561E+02  0.14717972697E+02  0.33423839053E+02  0.00000000000E+00 0.  1.
         13    1    4    4    0    0 -0.77340888984E+02  0.63228901978E+02  0.26640009563E+02  0.10338857415E+03  0.00000000000E+00 0. -1.
          1    1    1    2  501    0  0.23805156231E+02 -0.20651800462E+02 -0.36627919797E+02  0.48319631975E+02  0.00000000000E+00 0. -1.
<scales pt_clust_5="13000.00000" pt_clust_6="13000.00000" pt_clust_7="13000.00000" pt_clust_8="13000.00000" pt_clust_9="31.51480"></scales>
<clustering>
<clus scale="   31.515">  2  9  1 -1</clus>
<clus scale="   90.975">  5  6 -1 -1</clus>
<clus scale="   91.087">  7  8 -1 -1</clus>
<clus scale="  118.984">  1  5  2 -1</clus>
<clus scale="   31.515">  2  5  1 -1</clus>
</clustering>
</event>
<event>
 9    1  0.1601012E-005  0.9298113E+02  0.7546771E-02  0.1295958E+00
          2   -1    0    0  502    0 -0.00000000000E+00  0.00000000000E+00  0.49864576641E+03  0.49864576641E+03  0.00000000000E+00 0. -1.
         21   -1    0    0  501  502  0.00000000000E+00 -0.00000000000E+00 -0.51701711761E+02  0.51701711761E+02  0.00000000000E+00 0. -1.
         23    2    1    2    0    0  0.26135979802E+02 -0.18370850139E+02  0.29147521635E+03  0.30711039763E+03  0.91314933127E+02 0.  0.
         23    2    1    2    0    0  0.91264486993E+00 -0.25349773114E+02  0.16550013845E+03  0.19085628276E+03  0.91609938999E+02 0.  0.
        -11    1    4    4    0    0  0.43248147398E+02 -0.68876613158E+01  0.50015861924E+02  0.66478782899E+02  0.00000000000E+00 0.  1.
         11    1    4    4    0    0 -0.42335502528E+02 -0.18462111798E+02  0.11548427653E+03  0.12437749986E+03  0.00000000000E+00 0. -1.
        -13    1    3    3    0    0  0.53420814774E+02 -0.35547930968E+02  0.18164798522E+03  0.19264846063E+03  0.00000000000E+00 0. -1.
         13    1    3    3    0    0 -0.27284834972E+02  0.17177080829E+02  0.10982723113E+03  0.11446193700E+03  0.00000000000E+00 0.  1.
          2    1    1    2  501    0 -0.27048624672E+02  0.43720623253E+02 -0.10031300146E+02  0.52380797788E+02  0.00000000000E+00 0. -1.
<scales pt_clust_5="13000.00000" pt_clust_6="13000.00000" pt_clust_7="13000.00000" pt_clust_8="13000.00000" pt_clust_9="51.41129"></scales>
<clustering>
<clus scale="   51.411">  2  9  1 -1</clus>
<clus scale="   91.315">  7  8 -1 -1</clus>
<clus scale="   91.610">  5  6 -1 -1</clus>
<clus scale="   92.690">  1  7  2 -1</clus>
<clus scale="   51.411">  2  5  1 -1</clus>
</clustering>
</event>
<event>
 9    1  0.2719180E-005  0.1027467E+03  0.7546771E-02  0.1274842E+00
         -1   -1    0    0    0  501 -0.00000000000E+00  0.00000000000E+00  0.32463548126E+03  0.32463548126E+03  0.00000000000E+00 0.  1.
         21   -1    0    0  501  502  0.00000000000E+00 -0.00000000000E+00 -0.27529311468E+03  0.27529311468E+03  0.00000000000E+00 0.  1.
         23    2    1    2    0    0  0.50586197631E+02 -0.23511961816E+02  0.27129499464E+03  0.29149265740E+03  0.90858238272E+02 0.  0.
         23    2    1    2    0    0 -0.10510914873E+02 -0.26195590062E+01 -0.10481663839E+02  0.91620686813E+02  0.90372249913E+02 0.  0.
        -13    1    4    4    0    0  0.31117168872E+02  0.21683849109E+02  0.10035925100E+02  0.39232477661E+02  0.00000000000E+00 0.  1.
         13    1    4    4    0    0 -0.41628083745E+02 -0.24303408115E+02 -0.20517588939E+02  0.52388209152E+02  0.00000000000E+00 0. -1.
        -13    1    3    3    0    0  0.76989973823E+02 -0.15329204104E+02  0.21211106674E+03  0.22617149511E+03  0.00000000000E+00 0.  1.
         13    1    3    3    0    0 -0.26403776191E+02 -0.81827577124E+01  0.59183927906E+02  0.65321162293E+02  0.00000000000E+00 0. -1.
         -1    1    1    2    0  502 -0.40075282758E+02  0.26131520822E+02 -0.21147096423E+03  0.21681525173E+03  0.00000000000E+00 0.  1.
<scales pt_clust_5="13000.00000" pt_clust_6="13000.00000" pt_clust_7="13000.00000" pt_clust_8="13000.00000" pt_clust_9="47.84229"></scales>
<clustering>
<clus scale="   47.842">  2  9  1 -1</clus>
<clus scale="   90.372">  5  6 -1 -1</clus>
<clus scale="   90.858">  7  8 -1 -1</clus>
<clus scale="  102.317">  2  5  1 -1</clus>
<clus scale="   47.842">  2  5  1 -1</clus>
</clustering>
</event>
<event>
 9    1  0.1601012E-005  0.9459406E+02  0.7546771E-02  0.1292845E+00
         21   -1    0    0  501  502  0.00000000000E+00  0.00000000000E+00  0.89002097453E+02  0.89002097453E+02  0.00000000000E+00 0. -1.
          1   -1    0    0  502    0 -0.00000000000E+00 -0.00000000000E+00 -0.45213124974E+03  0.45213124974E+03  0.00000000000E+00 0. -1.
         23    2    1    2    0    0  0.17286497367E+02  0.61836427161E+01 -0.36576875257E+03  0.37772651073E+03  0.92485004878E+02 0.  0.
         23    2    1    2    0    0 -0.16791238717E+02 -0.28845657415E+02 -0.47740995490E+02  0.10816177676E+03  0.91135885648E+02 0.  0.
        -11    1    3    3    0    0 -0.32246251361E+02  0.22243916709E+02 -0.20583167277E+03  0.20952634697E+03  0.00000000000E+00 0.  1.
         11    1    3    3    0    0  0.49532748728E+02 -0.16060273993E+02 -0.15993707980E+03  0.16820016377E+03  0.00000000000E+00 0. -1.
        -11    1    4    4    0    0 -0.42523333977E+02 -0.18960596394E+01 -0.55657627270E+02  0.70068541072E+02  0.00000000000E+00 0.  1.
         11    1    4    4    0    0  0.25732095260E+02 -0.26949597775E+02  0.79166317796E+01  0.38093235691E+02  0.00000000000E+00 0. -1.
          1    1    1    2  501    0 -0.49525864992E+00  0.22662014698E+02  0.50380595768E+02  0.55245059700E+02  0.00000000000E+00 0. -1.
<scales pt_clust_5="13000.00000" pt_clust_6="13000.00000" pt_clust_7="13000.00000" pt_clust_8="13000.00000" pt_clust_9="22.66743"></scales>
<clustering>
<clus scale="   22.667">  1  9  2 -1</clus>
<clus scale="   91.136">  7  8 -1 -1</clus>
<clus scale="   92.485">  5  6 -1 -1</clus>
<clus scale="   93.275">  1  7  2 -1</clus>
<clus scale="   22.667">  1  5  2 -1</clus>
</clustering>
</event>
<event>
 9    1  0.1601012E-005  0.1771782E+03  0.7546771E-02  0.1170784E+00
          1   -1    0    0  502    0 -0.00000000000E+00  0.00000000000E+00  0.16227831318E+04  0.16227831318E+04  0.00000000000E+00 0. -1.
         21   -1    0    0  501  502  0.00000000000E+00 -0.00000000000E+00 -0.34896203835E+02  0.34896203835E+02  0.00000000000E+00 0.  1.
         23    2    1    2    0    0 -0.10171402430E+03  0.12499738834E+03  0.10748989818E+04  0.10907869601E+04  0.91860118938E+02 0.  0.
         23    2    1    2    0    0  0.83306393943E+02 -0.10777548219E+03  0.51625264753E+03  0.54147401239E+03  0.90121030745E+02 0.  0.
        -13    1    4    4    0    0 -0.93285713034E+01 -0.41876437475E+02  0.22028270940E+03  0.22442176881E+03  0.00000000000E+00 0. -1.
         13    1    4    4    0    0  0.92634965246E+02 -0.65899044716E+02  0.29596993813E+03  0.31705224358E+03  0.00000000000E+00 0.  1.
        -13    1    3    3    0    0 -0.11486495055E+02  0.86721077042E+02  0.50261883684E+03  0.51017465629E+03  0.00000000000E+00 0.  1.
         13    1    3    3    0    0 -0.90227529245E+02  0.38276311299E+02  0.57228014499E+03  0.58061230386E+03  0.00000000000E+00 0. -1.
          1    1    1    2  501    0  0.18407630358E+02 -0.17221906149E+02 -0.32647014029E+01  0.25418363088E+02  0.00000000000E+00 0. -1.
<scales pt_clust_5="13000.00000" pt_clust_6="13000.00000" pt_clust_7="13000.00000" pt_clust_8="13000.00000" pt_clust_9="25.20783"></scales>
<clustering>
<clus scale="   25.208">  2  9  1 -1</clus>
<clus scale="   90.121">  5  6 -1 -1</clus>
<clus scale="   91.860">  7  8 -1 -1</clus>
<clus scale="  176.283">  2  5  1 -1</clus>
<clus scale="   25.208">  2  5  1 -1</clus>
</clustering>
</event>
<event>
 9    1  0.1601012E-005  0.9165156E+02  0.7546771E-02  0.1299533E+00
          2   -1    0    0  502    0 -0.00000000000E+00  0.00000000000E+00  0.22716172679E+03  0.22716172679E+03  0.00000000000E+00 0. -1.
         21   -1    0    0  501  502  0.00000000000E+00 -0.00000000000E+00 -0.89572086254E+02  0.89572086254E+02  0.00000000000E+00 0. -1.
         23    2    1    2    0    0  0.11922784700E+02  0.19372723674E+02  0.92495773412E+02  0.13020754079E+03  0.88775449097E+02 0.  0.
         23    2    1    2    0    0  0.11363812361E+02 -0.26176367807E+02  0.94162190685E+02  0.13178820914E+03  0.87677109051E+02 0.  0.
        -11    1    4    4    0    0  0.43122456862E+02 -0.38392623410E+02  0.52914842548E+02  0.78316795005E+02  0.00000000000E+00 0. -1.
         11    1    4    4    0    0 -0.31758644501E+02  0.12216255602E+02  0.41247348137E+02  0.53471414137E+02  0.00000000000E+00 0.  1.
        -11    1    3    3    0    0  0.19330837351E+02 -0.32575934747E+02  0.49730935809E+02  0.62514308553E+02  0.00000000000E+00 0. -1.
         11    1    3    3    0    0 -0.74080526508E+01  0.51948658421E+02  0.42764837602E+02  0.67693232239E+02  0.00000000000E+00 0.  1.
          2    1    1    2  501    0 -0.23286597061E+02  0.68036441328E+01 -0.49068323560E+02  0.54738063111E+02  0.00000000000E+00 0. -1.
<scales pt_clust_5="13000.00000" pt_clust_6="13000.00000" pt_clust_7="13000.00000" pt_clust_8="13000.00000" pt_clust_9="24.26016"></scales>
<clustering>
<clus scale="   24.260">  2  9  1 -1</clus>
<clus scale="   87.677">  5  6 -1 -1</clus>
<clus scale="   88.775">  7  8 -1 -1</clus>
<clus scale="   90.588">  2  5  1 -1</clus>
<clus scale="   24.260">  2  5  1 -1</clus>
</clustering>
</event>
<event>
 9    1  0.1601012E-005  0.9390512E+02  0.7546771E-02  0.1294889E+00
         21   -1    0    0  501  502  0.00000000000E+00  0.00000000000E+00  0.58816140005E+02  0.58816140005E+02  0.00000000000E+00 0. -1.
         -4   -1    0    0    0  501 -0.00000000000E+00 -0.00000000000E+00 -0.22738974623E+03  0.22738974623E+03  0.00000000000E+00 0.  1.
         23    2    1    2    0    0 -0.38898496349E+01  0.32705830531E+02 -0.11021640770E+03  0.14690557260E+03  0.91371704890E+02 0.  0.
         23    2    1    2    0    0  0.78748981398E+00 -0.79930107810E+01 -0.68152690761E+02  0.11253653653E+03  0.89191784571E+02 0.  0.
        -13    1    4    4    0    0  0.35434613081E+01 -0.39113029083E+02 -0.71028128130E+02  0.81162677061E+02  0.00000000000E+00 0.  1.
         13    1    4    4    0    0 -0.27559714941E+01  0.31120018302E+02  0.28754373691E+01  0.31373859470E+02  0.00000000000E+00 0. -1.
        -13    1    3    3    0    0 -0.35778350243E+02 -0.15578362168E+02 -0.39382572569E+02  0.55441525377E+02  0.00000000000E+00 0.  1.
         13    1    3    3    0    0  0.31888500608E+02  0.48284192699E+02 -0.70833835128E+02  0.91464047224E+02  0.00000000000E+00 0. -1.
         -4    1    1    2    0  502  0.31023598209E+01 -0.24712819750E+02  0.97954922371E+01  0.26763777099E+02  0.00000000000E+00 0.  1.
<scales pt_clust_5="13000.00000" pt_clust_6="13000.00000" pt_clust_7="13000.00000" pt_clust_8="13000.00000" pt_clust_9="24.90679"></scales>
<clustering>
<clus scale="   24.907">  1  9  2 -1</clus>
<clus scale="   89.192">  5  6 -1 -1</clus>
<clus scale="   91.372">  7  8 -1 -1</clus>
<clus scale="   91.785">  1  5  2 -1</clus>
<clus scale="   24.907">  1  5  2 -1</clus>
</clustering>
</event>
<event>
 9    1  0.1601012E-005  0.9441673E+02  0.7546771E-02  0.1294093E+00
         21   -1    0    0  501  502  0.00000000000E+00  0.00000000000E+00  0.22998499618E+02  0.22998499618E+02  0.00000000000E+00 0. -1.
         -1   -1    0    0    0  501 -0.00000000000E+00 -0.00000000000E+00 -0.72310313172E+03  0.72310313172E+03  0.00000000000E+00 0.  1.
         23    2    1    2    0    0 -0.44079360627E+01  0.15559131749E+02 -0.43603176268E+03  0.44630399966E+03  0.93819217491E+02 0.  0.
         23    2    1    2    0    0 -0.26123827776E+02  0.61708708508E+01 -0.13243994689E+03  0.16293416719E+03  0.91031144564E+02 0.  0.
        -13    1    4    4    0    0 -0.51717209300E+02  0.28869893327E+02 -0.69641348916E+02  0.91422414961E+02  0.00000000000E+00 0. -1.
         13    1    4    4    0    0  0.25593381524E+02 -0.22699022476E+02 -0.62798597977E+02  0.71511752231E+02  0.00000000000E+00 0.  1.
        -13    1    3    3    0    0 -0.39715340709E+02  0.35343477113E+02 -0.20665971924E+03  0.21338863423E+03  0.00000000000E+00 0. -1.
         13    1    3    3    0    0  0.35307404646E+02 -0.19784345364E+02 -0.22937204344E+03  0.23291536543E+03  0.00000000000E+00 0.  1.
         -1    1    1    2    0  502  0.30531763838E+02 -0.21730002600E+02 -0.13163292253E+03  0.13686346448E+03  0.00000000000E+00 0.  1.
<scales pt_clust_5="13000.00000" pt_clust_6="13000.00000" pt_clust_7="13000.00000" pt_clust_8="13000.00000" pt_clust_9="37.47510"></scales>
<clustering>
<clus scale="   37.475">  1  9  2 -1</clus>
<clus scale="   91.031">  5  6 -1 -1</clus>
<clus scale="   91.647">  1  5  2 -1</clus>
<clus scale="   93.819">  7  8 -1 -1</clus>
<clus scale="   37.475">  1  5  2 -1</clus>
</clustering>
</event>
<event>
 9    1  0.1601012E-005  0.1327179E+03  0.7546771E-02  0.1226638E+00
          1   -1    0    0  502    0 -0.00000000000E+00  0.00000000000E+00  0.97005588682E+03  0.97005588682E+03  0.00000000000E+00 0. -1.
         21   -1    0    0  501  502  0.00000000000E+00 -0.00000000000E+00 -0.89472364935E+02  0.89472364935E+02  0.00000000000E+00 0. -1.
         23    2    1    2    0    0 -0.63753882177E+02 -0.14776247272E+02  0.42764274884E+03  0.44433919117E+03  0.10137110632E+03 0.  0.
         23    2    1    2    0    0  0.83632208264E+02  0.87045971067E+02  0.50299953654E+03  0.52505615522E+03  0.90022691803E+02 0.  0.
        -11    1    3    3    0    0 -0.77752915961E+02 -0.43139600587E+02  0.32367066887E+03  0.33566239433E+03  0.00000000000E+00 0.  1.
         11    1    3    3    0    0  0.13999033784E+02  0.28363353315E+02  0.10397207997E+03  0.10867679684E+03  0.00000000000E+00 0. -1.
        -13    1    4    4    0    0 -0.16345080455E+02  0.17954641581E+02  0.44152931128E+02  0.50388611180E+02  0.00000000000E+00 0.  1.
         13    1    4    4    0    0  0.99977288719E+02  0.69091329486E+02  0.45884660541E+03  0.47466754404E+03  0.00000000000E+00 0. -1.
          1    1    1    2  501    0 -0.19878326087E+02 -0.72269723795E+02 -0.50058763500E+02  0.90132905359E+02  0.00000000000E+00 0. -1.
<scales pt_clust_5="13000.00000" pt_clust_6="13000.00000" pt_clust_7="13000.00000" pt_clust_8="13000.00000" pt_clust_9="74.95372"></scales>
<clustering>
<clus scale="   74.954">  2  9  1 -1</clus>
<clus scale="   90.023">  7  8 -1 -1</clus>
<clus scale="  101.371">  5  6 -1 -1</clus>
<clus scale="  124.266">  2  7  1 -1</clus>
<clus scale="   74.954">  2  5  1 -1</clus>
</clustering>
</event>
<event>
 9    1  0.1601012E-005  0.1042572E+03  0.7546771E-02  0.1271631E+00
          1   -1    0    0  502    0 -0.00000000000E+00  0.00000000000E+00  0.84009385539E+02  0.84009385539E+02  0.00000000000E+00 0. -1.
         21   -1    0    0  501  502  0.00000000000E+00 -0.00000000000E+00 -0.76217496090E+03  0.76217496090E+03  0.00000000000E+00 0. -1.
         23    2    1    2    0    0 -0.24508908108E+02 -0.33354646216E+02 -0.12142379278E+02  0.10165959503E+03  0.92054423505E+02 0.  0.
         23    2    1    2    0    0  0.87167012840E+02 -0.14924614220E+02 -0.74753703573E+02  0.14798762947E+03  0.92148738682E+02 0.  0.
        -11    1    4    4    0    0  0.92674372668E+02 -0.39237312394E+02 -0.70053497863E+02  0.12261973168E+03  0.00000000000E+00 0. -1.
         11    1    4    4    0    0 -0.55073598275E+01  0.24312698173E+02 -0.47002057093E+01  0.25367897793E+02  0.00000000000E+00 0.  1.
        -13    1    3    3    0    0  0.26976153362E+02 -0.39307255798E+02 -0.14344145588E+02  0.49784814162E+02  0.00000000000E+00 0. -1.
         13    1    3    3    0    0 -0.51485061470E+02  0.59526095817E+01  0.22017663094E+01  0.51874780870E+02  0.00000000000E+00 0.  1.
          1    1    1    2  501    0 -0.62658104732E+02  0.48279260436E+02 -0.59126949251E+03  0.59653712194E+03  0.00000000000E+00 0. -1.
<scales pt_clust_5="13000.00000" pt_clust_6="13000.00000" pt_clust_7="13000.00000" pt_clust_8="13000.00000" pt_clust_9="79.10073"></scales>
<clustering>
<clus scale="   79.101">  2  9  1 -1</clus>
<clus scale="   92.054">  7  8 -1 -1</clus>
<clus scale="   92.149">  5  6 -1 -1</clus>
<clus scale="  104.174">  1  7  2 -1</clus>
<clus scale="   79.101">  2  5  1 -1</clus>
</clustering>
</event>
<event>
 9    1  0.1601012E-005  0.1612021E+03  0.7546771E-02  0.1188148E+00
         -3   -1    0    0    0  501 -0.00000000000E+00  0.00000000000E+00  0.12357205365E+03  0.12357205365E+03  0.00000000000E+00 0.  1.
         21   -1    0    0  501  502  0.00000000000E+00 -0.00000000000E+00 -0.32105064640E+03  0.32105064640E+03  0.00000000000E+00 0. -1.
         23    2    1    2    0    0 -0.12196685869E+03 -0.32837563070E+01 -0.96143968321E+01  0.15296910854E+03  0.91762813098E+02 0.  0.
         23    2    1    2    0    0  0.14088621640E+03  0.24592504541E+02 -0.10037719828E+03  0.19964283343E+03  0.96581373741E+02 0.  0.
        -11    1    4    4    0    0  0.17812885471E+02 -0.14739840673E+02 -0.59960043932E+02  0.64263276140E+02  0.00000000000E+00 0. -1.
         11    1    4    4    0    0  0.12307333093E+03  0.39332345214E+02 -0.40417154349E+02  0.13537955729E+03  0.00000000000E+00 0.  1.
        -13    1    3    3    0    0 -0.46105088836E+02 -0.45913511313E+02 -0.10713249890E+02  0.65943183582E+02  0.00000000000E+00 0.  1.
         13    1    3    3    0    0 -0.75861769850E+02  0.42629755006E+02  0.10988530581E+01  0.87025924957E+02  0.00000000000E+00 0. -1.
         -3    1    1    2    0  502 -0.18919357717E+02 -0.21308748234E+02 -0.87486997638E+02  0.92010758085E+02  0.00000000000E+00 0.  1.
<scales pt_clust_5="13000.00000" pt_clust_6="13000.00000" pt_clust_7="13000.00000" pt_clust_8="13000.00000" pt_clust_9="28.49570"></scales>
<clustering>
<clus scale="   28.496">  2  9  1 -1</clus>
<clus scale="   91.763">  7  8 -1 -1</clus>
<clus scale="   96.581">  5  6 -1 -1</clus>
<clus scale="  158.362">  1  7  2 -1</clus>
<clus scale="   28.496">  2  5  1 -1</clus>
</clustering>
</event>
<event>
 9    1  0.1601012E-005  0.1226417E+03  0.7546771E-02  0.1239836E+00
          1   -1    0    0  502    0 -0.00000000000E+00  0.00000000000E+00  0.78218965647E+02  0.78218965647E+02  0.00000000000E+00 0. -1.
         21   -1    0    0  501  502  0.00000000000E+00 -0.00000000000E+00 -0.32883393638E+03  0.32883393638E+03  0.00000000000E+00 0.  1.
         23    2    1    2    0    0  0.39829088397E+02 -0.59180981146E+02 -0.27952046395E+02  0.11887683319E+03  0.90893562809E+02 0.  0.
         23    2    1    2    0    0 -0.50285254458E+02  0.76665717027E+02 -0.10362733741E+03  0.16740968961E+03  0.94239801209E+02 0.  0.
        -11    1    4    4    0    0 -0.71028201026E+02  0.62528313030E+02 -0.47408773726E+02  0.10584132982E+03  0.00000000000E+00 0.  1.
         11    1    4    4    0    0  0.20742946568E+02  0.14137403996E+02 -0.56218563688E+02  0.61568359790E+02  0.00000000000E+00 0. -1.
        -13    1    3    3    0    0 -0.49728666761E+01  0.22106421487E+02 -0.71240454639E+01  0.23752374570E+02  0.00000000000E+00 0.  1.
         13    1    3    3    0    0  0.44801955073E+02 -0.81287402633E+02 -0.20828000931E+02  0.95124458621E+02  0.00000000000E+00 0. -1.
          1    1    1    2  501    0  0.10456166062E+02 -0.17484735881E+02 -0.11903558692E+03  0.12076637923E+03  0.00000000000E+00 0. -1.
<scales pt_clust_5="13000.00000" pt_clust_6="13000.00000" pt_clust_7="13000.00000" pt_clust_8="13000.00000" pt_clust_9="20.37271"></scales>
<clustering>
<clus scale="   20.373">  2  9  1 -1</clus>
<clus scale="   90.894">  7  8 -1 -1</clus>
<clus scale="   94.240">  5  6 -1 -1</clus>
<clus scale="  120.089">  1  7  2 -1</clus>
<clus scale="   20.373">  2  5  1 -1</clus>
</clustering>
</event>
<event>
 9    1  0.1601012E-005  0.9564499E+02  0.7546771E-02  0.1291353E+00
         21   -1    0    0  501  502  0.00000000000E+00  0.00000000000E+00  0.28365437096E+03  0.28365437096E+03  0.00000000000E+00 0.  1.
          2   -1    0    0  502    0 -0.00000000000E+00 -0.00000000000E+00 -0.58611193525E+02  0.58611193525E+02  0.00000000000E+00 0. -1.
         23    2    1    2    0    0 -0.98151147091E+01  0.27414006680E+02  0.46606726419E+02  0.10801727265E+03  0.92992902980E+02 0.  0.
         23    2    1    2    0    0 -0.28182360982E+02 -0.13493227174E+02  0.69282361646E+02  0.11783432580E+03  0.90047598811E+02 0.  0.
        -13    1    3    3    0    0  0.15895248253E+02  0.20312913010E+02 -0.22320092926E+02  0.34109527997E+02  0.00000000000E+00 0. -1.
         13    1    3    3    0    0 -0.25710362962E+02  0.71010936706E+01  0.68926819345E+02  0.73907744655E+02  0.00000000000E+00 0.  1.
        -13    1    4    4    0    0  0.32146555933E+02 -0.44212895195E+01  0.35509777269E+02  0.48102943164E+02  0.00000000000E+00 0.  1.
         13    1    4    4    0    0 -0.60328916915E+02 -0.90719376550E+01  0.33772584377E+02  0.69731382637E+02  0.00000000000E+00 0. -1.
          2    1    1    2  501    0  0.37997475691E+02 -0.13920779506E+02  0.10915408937E+03  0.11641396603E+03  0.00000000000E+00 0. -1.
<scales pt_clust_5="13000.00000" pt_clust_6="13000.00000" pt_clust_7="13000.00000" pt_clust_8="13000.00000" pt_clust_9="40.46722"></scales>
<clustering>
<clus scale="   40.467">  1  9  2 -1</clus>
<clus scale="   90.048">  7  8 -1 -1</clus>
<clus scale="   92.784">  1  7  2 -1</clus>
<clus scale="   92.993">  5  6 -1 -1</clus>
<clus scale="   40.467">  1  5  2 -1</clus>
</clustering>
</event>
<event>
 9    1  0.1601012E-005  0.9991192E+02  0.7546771E-02  0.1281997E+00
         21   -1    0    0  501  502  0.00000000000E+00  0.00000000000E+00  0.27709711161E+03  0.27709711161E+03  0.00000000000E+00 0.  1.
          1   -1    0    0  502    0 -0.00000000000E+00 -0.00000000000E+00 -0.63220038709E+02  0.63220038709E+02  0.00000000000E+00 0. -1.
         23    2    1    2    0    0 -0.87344009664E+01  0.24721904760E+02  0.30624644049E+02  0.10202270140E+03  0.93719263986E+02 0.  0.
         23    2    1    2    0    0 -0.46315889834E+01 -0.49789097842E+02  0.79037716957E+02  0.13027722793E+03  0.90690625392E+02 0.  0.
        -11    1    3    3    0    0  0.19917132285E+02 -0.45220631962E+01 -0.25425456146E+02  0.32612804759E+02  0.00000000000E+00 0. -1.
         11    1    3    3    0    0 -0.28651533251E+02  0.29243967956E+02  0.56050100196E+02  0.69409896639E+02  0.00000000000E+00 0.  1.
        -11    1    4    4    0    0  0.98556522679E+01  0.23973558789E+02  0.33613725184E+02  0.42447001347E+02  0.00000000000E+00 0.  1.
         11    1    4    4    0    0 -0.14487241251E+02 -0.73762656631E+02  0.45423991774E+02  0.87830226579E+02  0.00000000000E+00 0. -1.
          1    1    1    2  501    0  0.13365989950E+02  0.25067193082E+02  0.10421471190E+03  0.10801722100E+03  0.00000000000E+00 0. -1.
<scales pt_clust_5="13000.00000" pt_clust_6="13000.00000" pt_clust_7="13000.00000" pt_clust_8="13000.00000" pt_clust_9="28.40799"></scales>
<clustering>
<clus scale="   28.408">  1  9  2 -1</clus>
<clus scale="   90.691">  7  8 -1 -1</clus>
<clus scale="   93.719">  5  6 -1 -1</clus>
<clus scale="   97.077">  1  7  2 -1</clus>
<clus scale="   28.408">  1  5  2 -1</clus>
</clustering>
</event>
<event>
 9    1  0.2034228E-005  0.9876221E+02  0.7546771E-02  0.1284448E+00
         -1   -1    0    0    0  501 -0.00000000000E+00  0.00000000000E+00  0.54888485913E+03  0.54888485913E+03  0.00000000000E+00 0.  1.
         21   -1    0    0  501  502  0.00000000000E+00 -0.00000000000E+00 -0.55183472827E+02  0.55183472827E+02  0.00000000000E+00 0. -1.
         23    2    1    2    0    0  0.13979218739E+02  0.23922815572E+02  0.44623896454E+03  0.45684037944E+03  0.93841350983E+02 0.  0.
         23    2    1    2    0    0 -0.35729075846E+02 -0.43493828126E+02  0.23595541477E+02  0.10946939334E+03  0.90876391621E+02 0.  0.
        -11    1    3    3    0    0 -0.21777627088E+02 -0.27251903362E+02  0.13781178093E+03  0.14215842656E+03  0.00000000000E+00 0.  1.
         11    1    3    3    0    0  0.35756845827E+02  0.51174718935E+02  0.30842718361E+03  0.31468195289E+03  0.00000000000E+00 0. -1.
        -11    1    4    4    0    0 -0.39795172611E+02  0.13857303985E+02  0.29842688757E+02  0.51635905232E+02  0.00000000000E+00 0.  1.
         11    1    4    4    0    0  0.40660967654E+01 -0.57351132110E+02 -0.62471472796E+01  0.57833488105E+02  0.00000000000E+00 0. -1.
         -1    1    1    2    0  502  0.21749857107E+02  0.19571012553E+02  0.23866880283E+02  0.37758559175E+02  0.00000000000E+00 0.  1.
<scales pt_clust_5="13000.00000" pt_clust_6="13000.00000" pt_clust_7="13000.00000" pt_clust_8="13000.00000" pt_clust_9="29.25886"></scales>
<clustering>
<clus scale="   29.259">  2  9  1 -1</clus>
<clus scale="   90.876">  7  8 -1 -1</clus>
<clus scale="   93.841">  5  6 -1 -1</clus>
<clus scale="   95.949">  2  7  1 -1</clus>
<clus scale="   29.259">  2  5  1 -1</clus>
</clustering>
</event>
<event>
 9    1  0.1601012E-005  0.9487737E+02  0.7546771E-02  0.1292312E+00
         21   -1    0    0  501  502  0.00000000000E+00  0.00000000000E+00  0.15233964179E+03  0.15233964179E+03  0.00000000000E+00 0.  1.
         -1   -1    0    0    0  501 -0.00000000000E+00 -0.00000000000E+00 -0.11485550074E+03  0.11485550074E+03  0.00000000000E+00 0.  1.
         23    2    1    2    0    0  0.54955271184E+01  0.24606773230E+02 -0.14192917854E+02  0.97223725244E+02  0.92818746631E+02 0.  0.
         23    2    1    2    0    0 -0.36092846469E+02  0.19084440298E+02  0.67246415470E+01  0.10021585897E+03  0.91274794751E+02 0.  0.
        -13    1    3    3    0    0 -0.35487941574E+02 -0.15044505769E+02 -0.11114106795E+02  0.40115514715E+02  0.00000000000E+00 0.  1.
         13    1    3    3    0    0  0.40983468693E+02  0.39651278999E+02 -0.30788110597E+01  0.57108210529E+02  0.00000000000E+00 0. -1.
        -13    1    4    4    0    0 -0.47532738424E+01 -0.31566863045E+02  0.21946271694E+02  0.38738860283E+02  0.00000000000E+00 0. -1.
         13    1    4    4    0    0 -0.31339572627E+02  0.50651303344E+02 -0.15221630147E+02  0.61476998684E+02  0.00000000000E+00 0.  1.
         -1    1    1    2    0  502  0.30597319351E+02 -0.43691213528E+02  0.44952417358E+02  0.69755558326E+02  0.00000000000E+00 0.  1.
<scales pt_clust_5="13000.00000" pt_clust_6="13000.00000" pt_clust_7="13000.00000" pt_clust_8="13000.00000" pt_clust_9="53.33965"></scales>
<clustering>
<clus scale="   53.340">  1  9  2 -1</clus>
<clus scale="   91.275">  7  8 -1 -1</clus>
<clus scale="   92.819">  5  6 -1 -1</clus>
<clus scale="   93.367">  1  7  2 -1</clus>
<clus scale="   53.340">  1  5  2 -1</clus>
</clustering>
</event>
<event>
 9    1  0.1601012E-005  0.2154655E+03  0.7546771E-02  0.1137373E+00
         21   -1    0    0  501  502  0.00000000000E+00  0.00000000000E+00  0.81345658411E+02  0.81345658411E+02  0.00000000000E+00 0.  1.
          3   -1    0    0  502    0 -0.00000000000E+00 -0.00000000000E+00 -0.89510726468E+03  0.89510726468E+03  0.00000000000E+00 0. -1.
         23    2    1    2    0    0  0.77808148799E+02  0.16845963078E+03 -0.41343277561E+03  0.46233879746E+03  0.91639229953E+02 0.  0.
         23    2    1    2    0    0 -0.78480894038E+02 -0.18948073030E+03 -0.42550649722E+03  0.48130781366E+03  0.92407978157E+02 0.  0.
        -11    1    3    3    0    0  0.13961352852E+02  0.12561597770E+03 -0.29740090104E+03  0.32314329509E+03  0.00000000000E+00 0. -1.
         11    1    3    3    0    0  0.63846795947E+02  0.42843653082E+02 -0.11603187457E+03  0.13919550237E+03  0.00000000000E+00 0.  1.
        -11    1    4    4    0    0 -0.93713213752E+02 -0.11315889626E+03 -0.26851299902E+03  0.30608223222E+03  0.00000000000E+00 0.  1.
         11    1    4    4    0    0  0.15232319714E+02 -0.76321834033E+02 -0.15699349820E+03  0.17522558144E+03  0.00000000000E+00 0. -1.
          3    1    1    2  501    0  0.67274523953E+00  0.21021099519E+02  0.25177666568E+02  0.32806311968E+02  0.00000000000E+00 0. -1.
<scales pt_clust_5="13000.00000" pt_clust_6="13000.00000" pt_clust_7="13000.00000" pt_clust_8="13000.00000" pt_clust_9="21.03186"></scales>
<clustering>
<clus scale="   21.032">  1  9  2 -1</clus>
<clus scale="   91.639">  5  6 -1 -1</clus>
<clus scale="   92.408">  7  8 -1 -1</clus>
<clus scale="  215.137">  2  5  1 -1</clus>
<clus scale="   21.032">  1  5  2 -1</clus>
</clustering>
</event>
<event>
 9    1  0.1601012E-005  0.1048648E+03  0.7546771E-02  0.1274415E+00
         -1   -1    0    0    0  501 -0.00000000000E+00  0.00000000000E+00  0.17304731986E+03  0.17304731986E+03  0.00000000000E+00 0.  1.
         21   -1    0    0  501  502  0.00000000000E+00 -0.00000000000E+00 -0.16348730064E+03  0.16348730064E+03  0.00000000000E+00 0.  1.
         23    2    1    2    0    0 -0.43452874942E+02 -0.50971761681E+01  0.62229798055E+02  0.11318863410E+03  0.83815187032E+02 0.  0.
         23    2    1    2    0    0  0.51002740510E+02 -0.68860620247E+02  0.92040300964E+01  0.12662409461E+03  0.92767896419E+02 0.  0.
        -11    1    4    4    0    0  0.72683679654E+02 -0.67173350417E+02 -0.74243817388E+01  0.99248666180E+02  0.00000000000E+00 0.  1.
         11    1    4    4    0    0 -0.21680939144E+02 -0.16872698295E+01  0.16628411835E+02  0.27375428432E+02  0.00000000000E+00 0. -1.
        -13    1    3    3    0    0  0.48067154444E+01  0.28228328452E+02  0.13669527969E+01  0.28667256592E+02  0.00000000000E+00 0.  1.
         13    1    3    3    0    0 -0.48259590386E+02 -0.33325504620E+02  0.60862845259E+02  0.84521377505E+02  0.00000000000E+00 0. -1.
         -1    1    1    2    0  502 -0.75498655683E+01  0.73957796415E+02 -0.61873808925E+02  0.96721891790E+02  0.00000000000E+00 0.  1.
<scales pt_clust_5="13000.00000" pt_clust_6="13000.00000" pt_clust_7="13000.00000" pt_clust_8="13000.00000" pt_clust_9="74.34216"></scales>
<clustering>
<clus scale="   74.342">  2  9  1 -1</clus>
<clus scale="   83.815">  7  8 -1 -1</clus>
<clus scale="   92.768">  5  6 -1 -1</clus>
<clus scale="   97.035">  1  7  2 -1</clus>
<clus scale="   74.342">  2  5  1 -1</clus>
</clustering>
</event>
<event>
 9    1  0.1601012E-005  0.1075727E+03  0.7546771E-02  0.1265324E+00
          3   -1    0    0  502    0 -0.00000000000E+00  0.00000000000E+00  0.19411744114E+03  0.19411744114E+03  0.00000000000E+00 0. -1.
         21   -1    0    0  501  502  0.00000000000E+00 -0.00000000000E+00 -0.11391970780E+03  0.11391970780E+03  0.00000000000E+00 0. -1.
         23    2    1    2    0    0  0.43166349880E+02 -0.52194690696E+02  0.11762130991E+03  0.16078642946E+03  0.86196774036E+02 0.  0.
         23    2    1    2    0    0 -0.48009470091E+02  0.29328222387E+02 -0.26217254469E+00  0.10334968150E+03  0.86695063791E+02 0.  0.
        -11    1    4    4    0    0 -0.21739739406E+02  0.74672224377E+01 -0.42921258964E+02  0.48688911997E+02  0.00000000000E+00 0.  1.
         11    1    4    4    0    0 -0.26269730685E+02  0.21860999949E+02  0.42659086419E+02  0.54660769507E+02  0.00000000000E+00 0. -1.
        -13    1    3    3    0    0  0.69203828444E+02 -0.41382634422E+02  0.95242461151E+02  0.12479110028E+03  0.00000000000E+00 0. -1.
         13    1    3    3    0    0 -0.26037478564E+02 -0.10812056274E+02  0.22378848760E+02  0.35995329179E+02  0.00000000000E+00 0.  1.
          3    1    1    2  501    0  0.48431202112E+01  0.22866468309E+02 -0.37161404029E+02  0.43901037980E+02  0.00000000000E+00 0. -1.
<scales pt_clust_5="13000.00000" pt_clust_6="13000.00000" pt_clust_7="13000.00000" pt_clust_8="13000.00000" pt_clust_9="23.37373"></scales>
<clustering>
<clus scale="   23.374">  2  9  1 -1</clus>
<clus scale="   86.197">  7  8 -1 -1</clus>
<clus scale="   86.695">  5  6 -1 -1</clus>
<clus scale="  107.171">  1  7  2 -1</clus>
<clus scale="   23.374">  2  5  1 -1</clus>
</clustering>
</event>
<event>
 9    1  0.1601012E-005  0.1101080E+03  0.7546771E-02  0.1260452E+00
         -1   -1    0    0    0  501 -0.00000000000E+00  0.00000000000E+00  0.49004483975E+03  0.49004483975E+03  0.00000000000E+00 0.  1.
         21   -1    0    0  501  502  0.00000000000E+00 -0.00000000000E+00 -0.24398282275E+03  0.24398282275E+03  0.00000000000E+00 0.  1.
         23    2    1    2    0    0  0.33184593199E+02  0.59163022689E+02  0.36649704655E+03  0.38358424552E+03  0.90638335165E+02 0.  0.
         23    2    1    2    0    0 -0.68884406194E+02 -0.31396136747E+01  0.79980274376E+02  0.13930509017E+03  0.90852326699E+02 0.  0.
        -13    1    4    4    0    0 -0.75737518701E+02  0.29063319466E+02  0.56019250331E+02  0.98585012476E+02  0.00000000000E+00 0.  1.
         13    1    4    4    0    0  0.68531125070E+01 -0.32202933141E+02  0.23961024046E+02  0.40720077692E+02  0.00000000000E+00 0. -1.
        -13    1    3    3    0    0  0.13301410410E+01  0.73554420264E+02  0.29451543030E+03  0.30356442595E+03  0.00000000000E+00 0.  1.
         13    1    3    3    0    0  0.31854452158E+02 -0.14391397576E+02  0.71981616246E+02  0.80019819569E+02  0.00000000000E+00 0. -1.
         -1    1    1    2    0  502  0.35699812995E+02 -0.56023409014E+02 -0.20041530392E+03  0.21113832681E+03  0.00000000000E+00 0.  1.
<scales pt_clust_5="13000.00000" pt_clust_6="13000.00000" pt_clust_7="13000.00000" pt_clust_8="13000.00000" pt_clust_9="66.43116"></scales>
<clustering>
<clus scale="   66.431">  2  9  1 -1</clus>
<clus scale="   90.638">  7  8 -1 -1</clus>
<clus scale="   90.852">  5  6 -1 -1</clus>
<clus scale="  109.931">  1  7  2 -1</clus>
<clus scale="   66.431">  2  5  1 -1</clus>
</clustering>
</event>
<event>
 9    1  0.1601012E-005  0.1311457E+03  0.7546771E-02  0.1241525E+00
         21   -1    0    0  501  502  0.00000000000E+00  0.00000000000E+00  0.29762344882E+03  0.29762344882E+03  0.00000000000E+00 0. -1.
          1   -1    0    0  502    0 -0.00000000000E+00 -0.00000000000E+00 -0.25124507909E+03  0.25124507909E+03  0.00000000000E+00 0. -1.
         23    2    1    2    0    0 -0.83887011054E+01 -0.16220652126E+02 -0.17108786399E+03  0.19564652669E+03  0.93129084280E+02 0.  0.
         23    2    1    2    0    0 -0.31632339254E+02 -0.72302420431E+02  0.62431133550E+01  0.12072850749E+03  0.91149060169E+02 0.  0.
        -11    1    4    4    0    0 -0.58207778573E+02 -0.19390183747E+02  0.27252480994E+01  0.61412960272E+02  0.00000000000E+00 0.  1.
         11    1    4    4    0    0  0.26575439319E+02 -0.52912236684E+02  0.35178652556E+01  0.59315547218E+02  0.00000000000E+00 0. -1.
        -13    1    3    3    0    0  0.29296896780E+02 -0.40365516575E+02 -0.97495872540E+02  0.10951314191E+03  0.00000000000E+00 0. -1.
         13    1    3    3    0    0 -0.37685597885E+02  0.24144864450E+02 -0.73591991454E+02  0.86133384779E+02  0.00000000000E+00 0.  1.
          1    1    1    2  501    0  0.40021040360E+02  0.88523072557E+02  0.21122312037E+03  0.23249349373E+03  0.00000000000E+00 0. -1.
<scales pt_clust_5="13000.00000" pt_clust_6="13000.00000" pt_clust_7="13000.00000" pt_clust_8="13000.00000" pt_clust_9="94.29233"></scales>
<clustering>
<clus scale="   91.149">  5  6 -1 -1</clus>
<clus scale="   93.129">  7  8 -1 -1</clus>
<clus scale="   94.903">  2  7  1 -1</clus>
<clus scale="   94.292">  1  9  2 -1</clus>
<clus scale="   94.292">  1  5  2 -1</clus>
</clustering>
</event>
<event>
 9    1  0.1601012E-005  0.1439293E+03  0.7546771E-02  0.1208805E+00
         21   -1    0    0  501  502  0.00000000000E+00  0.00000000000E+00  0.11076930658E+03  0.11076930658E+03  0.00000000000E+00 0.  1.
         -1   -1    0    0    0  501 -0.00000000000E+00 -0.00000000000E+00 -0.38941162030E+03  0.38941162030E+03  0.00000000000E+00 0.  1.
         23    2    1    2    0    0  0.49774420899E+02  0.11240420656E+03 -0.28987263883E+03  0.32796892473E+03  0.91789270734E+02 0.  0.
         23    2    1    2    0    0 -0.25121277413E+02 -0.74212443480E+02 -0.15855304178E+02  0.11929679105E+03  0.88553759600E+02 0.  0.
        -13    1    4    4    0    0  0.18401773418E+02 -0.50232479058E+02  0.20956302478E+02  0.57455146252E+02  0.00000000000E+00 0.  1.
         13    1    4    4    0    0 -0.43523050832E+02 -0.23979964422E+02 -0.36811606656E+02  0.61841644803E+02  0.00000000000E+00 0. -1.
        -13    1    3    3    0    0  0.31356999366E+02  0.97198885893E+01 -0.19537224821E+02  0.38202628144E+02  0.00000000000E+00 0. -1.
         13    1    3    3    0    0  0.18417421533E+02  0.10268431797E+03 -0.27033541401E+03  0.28976629659E+03  0.00000000000E+00 0.  1.
         -1    1    1    2    0  502 -0.24653143485E+02 -0.38191763083E+02  0.27085629280E+02  0.52915211089E+02  0.00000000000E+00 0.  1.
<scales pt_clust_5="13000.00000" pt_clust_6="13000.00000" pt_clust_7="13000.00000" pt_clust_8="13000.00000" pt_clust_9="45.45754"></scales>
<clustering>
<clus scale="   45.458">  1  9  2 -1</clus>
<clus scale="   88.554">  5  6 -1 -1</clus>
<clus scale="   91.789">  7  8 -1 -1</clus>
<clus scale="  141.888">  1  5  2 -1</clus>
<clus scale="   45.458">  1  5  2 -1</clus>
</clustering>
</event>
<event>
 9    1  0.1601012E-005  0.1109575E+03  0.7546771E-02  0.1259003E+00
         21   -1    0    0  501  502  0.00000000000E+00  0.00000000000E+00  0.47343608719E+03  0.47343608719E+03  0.00000000000E+00 0. -1.
          3   -1    0    0  502    0 -0.00000000000E+00 -0.00000000000E+00 -0.10185287726E+03  0.10185287726E+03  0.00000000000E+00 0. -1.
         23    2    1    2    0    0 -0.60540664645E+02 -0.28641916493E+02 -0.55062512504E+02  0.12492778227E+03  0.89941864804E+02 0.  0.
         23    2    1    2    0    0  0.29903581078E+02  0.39313805556E+02  0.24433298342E+03  0.26518436151E+03  0.90467338495E+02 0.  0.
        -11    1    3    3    0    0 -0.75028988690E+02 -0.42676009402E+02 -0.58762337700E+02  0.10442032012E+03  0.00000000000E+00 0. -1.
         11    1    3    3    0    0  0.14488324045E+02  0.14034092909E+02  0.36998251962E+01  0.20507462152E+02  0.00000000000E+00 0.  1.
        -11    1    4    4    0    0 -0.30969879410E+02  0.23935549524E+02  0.75260556803E+02  0.84830391794E+02  0.00000000000E+00 0. -1.
         11    1    4    4    0    0  0.60873460488E+02  0.15378256032E+02  0.16907242661E+03  0.18035396971E+03  0.00000000000E+00 0.  1.
          3    1    1    2  501    0  0.30637083567E+02 -0.10671889063E+02  0.18231273902E+03  0.18517682067E+03  0.00000000000E+00 0. -1.
<scales pt_clust_5="13000.00000" pt_clust_6="13000.00000" pt_clust_7="13000.00000" pt_clust_8="13000.00000" pt_clust_9="32.44257"></scales>
<clustering>
<clus scale="   32.443">  1  9  2 -1</clus>
<clus scale="   89.942">  5  6 -1 -1</clus>
<clus scale="   90.467">  7  8 -1 -1</clus>
<clus scale="  110.529">  2  5  1 -1</clus>
<clus scale="   32.443">  1  5  2 -1</clus>
</clustering>
</event>
<event>
 9    1  0.1601012E-005  0.9924587E+02  0.7546771E-02  0.1282138E+00
         21   -1    0    0  501  502  0.00000000000E+00  0.00000000000E+00  0.57223528983E+02  0.57223528983E+02  0.00000000000E+00 0.  1.
          1   -1    0    0  502    0 -0.00000000000E+00 -0.00000000000E+00 -0.24126018322E+03  0.24126018322E+03  0.00000000000E+00 0. -1.
         23    2    1    2    0    0 -0.95763862860E+01  0.32681049873E+02 -0.12838266380E+03  0.16092516171E+03  0.90857256800E+02 0.  0.
         23    2    1    2    0    0  0.30287985694E+01 -0.52419734090E+02 -0.50855031350E+02  0.11621571638E+03  0.90348527253E+02 0.  0.
        -13    1    3    3    0    0  0.30894433818E+02 -0.65384908494E+01 -0.16451899984E+02  0.35607343577E+02  0.00000000000E+00 0. -1.
         13    1    3    3    0    0 -0.40470820104E+02  0.39219540722E+02 -0.11193076381E+03  0.12531781813E+03  0.00000000000E+00 0.  1.
        -13    1    4    4    0    0  0.45969152833E+00 -0.76471703447E+02 -0.24175783706E+02  0.80203499065E+02  0.00000000000E+00 0.  1.
         13    1    4    4    0    0  0.25691070411E+01  0.24051969357E+02 -0.26679247644E+02  0.36012217313E+02  0.00000000000E+00 0. -1.
          1    1    1    2  501    0  0.65475877166E+01  0.19738684217E+02 -0.47989590867E+01  0.21342834110E+02  0.00000000000E+00 0. -1.
<scales pt_clust_5="13000.00000" pt_clust_6="13000.00000" pt_clust_7="13000.00000" pt_clust_8="13000.00000" pt_clust_9="20.79631"></scales>
<clustering>
<clus scale="   20.796">  1  9  2 -1</clus>
<clus scale="   90.349">  7  8 -1 -1</clus>
<clus scale="   90.857">  5  6 -1 -1</clus>
<clus scale="   98.780">  1  7  2 -1</clus>
<clus scale="   20.796">  1  5  2 -1</clus>
</clustering>
</event>
<event>
 9    1  0.1601012E-005  0.1053937E+03  0.7546771E-02  0.1269526E+00
         -3   -1    0    0    0  501 -0.00000000000E+00  0.00000000000E+00  0.30062026688E+03  0.30062026688E+03  0.00000000000E+00 0.  1.
         21   -1    0    0  501  502  0.00000000000E+00 -0.00000000000E+00 -0.65463906664E+02  0.65463906664E+02  0.00000000000E+00 0. -1.
         23    2    1    2    0    0  0.39472873727E+02 -0.33345498966E+02  0.21368551998E+03  0.23852016237E+03  0.92522085699E+02 0.  0.
         23    2    1    2    0    0 -0.22202068173E+02  0.43741782193E+02  0.11237310222E+02  0.10495674319E+03  0.92105186933E+02 0.  0.
        -11    1    4    4    0    0  0.30817519131E+02  0.21319489786E+02 -0.16633333821E+02  0.40998877108E+02  0.00000000000E+00 0. -1.
         11    1    4    4    0    0 -0.53019587304E+02  0.22422292407E+02  0.27870644043E+02  0.63957866084E+02  0.00000000000E+00 0.  1.
        -13    1    3    3    0    0  0.27535470808E+02 -0.64611514545E+02  0.12008064607E+03  0.13911222637E+03  0.00000000000E+00 0.  1.
         13    1    3    3    0    0  0.11937402919E+02  0.31266015579E+02  0.93604873915E+02  0.99407935998E+02  0.00000000000E+00 0. -1.
         -3    1    1    2    0  502 -0.17270805554E+02 -0.10396283227E+02  0.10233530013E+02  0.22607267989E+02  0.00000000000E+00 0.  1.
<scales pt_clust_5="13000.00000" pt_clust_6="13000.00000" pt_clust_7="13000.00000" pt_clust_8="13000.00000" pt_clust_9="20.15846"></scales>
<clustering>
<clus scale="   20.158">  2  9  1 -1</clus>
<clus scale="   92.105">  5  6 -1 -1</clus>
<clus scale="   92.522">  7  8 -1 -1</clus>
<clus scale="  105.028">  2  5  1 -1</clus>
<clus scale="   20.158">  2  5  1 -1</clus>
</clustering>
</event>
<event>
 9    1  0.1601012E-005  0.2121830E+03  0.7546771E-02  0.1160560E+00
         21   -1    0    0  501  502  0.00000000000E+00  0.00000000000E+00  0.12171045384E+03  0.12171045384E+03  0.00000000000E+00 0. -1.
          2   -1    0    0  502    0 -0.00000000000E+00 -0.00000000000E+00 -0.83030896821E+03  0.83030896821E+03  0.00000000000E+00 0. -1.
         23    2    1    2    0    0 -0.30089405422E+02  0.89068741572E+02 -0.29226665426E+03  0.31983899447E+03  0.89658084698E+02 0.  0.
         23    2    1    2    0    0 -0.52066652490E+02  0.15767361530E+03 -0.77181958436E+02  0.20479995969E+03  0.91728204605E+02 0.  0.
        -11    1    3    3    0    0  0.36922675922E+01  0.78573366316E+02 -0.11663920284E+03  0.14068443543E+03  0.00000000000E+00 0.  1.
         11    1    3    3    0    0 -0.33781673015E+02  0.10495375256E+02 -0.17562745142E+03  0.17915455904E+03  0.00000000000E+00 0. -1.
        -11    1    4    4    0    0 -0.20593622967E+02  0.22258279488E+00  0.91049849522E+01  0.22517717491E+02  0.00000000000E+00 0.  1.
         11    1    4    4    0    0 -0.31473029523E+02  0.15745103250E+03 -0.86286943388E+02  0.18228224220E+03  0.00000000000E+00 0. -1.
          2    1    1    2  501    0  0.82156057912E+02 -0.24674235687E+03 -0.33914990168E+03  0.42738046789E+03  0.00000000000E+00 0. -1.
<scales pt_clust_5="13000.00000" pt_clust_6="13000.00000" pt_clust_7="13000.00000" pt_clust_8="13000.00000" pt_clust_9="191.33113"></scales>
<clustering>
<clus scale="   89.658">  5  6 -1 -1</clus>
<clus scale="   91.728">  7  8 -1 -1</clus>
<clus scale="  129.912">  2  5  1 -1</clus>
<clus scale="  191.331">  1  9  2 -1</clus>
<clus scale="  191.331">  1  5  2 -1</clus>
</clustering>
</event>
<event>
 9    1  0.1601012E-005  0.9929779E+02  0.7546771E-02  0.1283059E+00
          1   -1    0    0  502    0 -0.00000000000E+00  0.00000000000E+00  0.45068255027E+03  0.45068255027E+03  0.00000000000E+00 0. -1.
         21   -1    0    0  501  502  0.00000000000E+00 -0.00000000000E+00 -0.30507848266E+02  0.30507848266E+02  0.00000000000E+00 0.  1.
         23    2    1    2    0    0  0.83212193925E+01  0.40190227780E+02  0.25132675041E+03  0.27028293934E+03  0.90571710396E+02 0.  0.
         23    2    1    2    0    0 -0.28045015426E+02 -0.33027482443E+02  0.16099391053E+03  0.18850167843E+03  0.87957410470E+02 0.  0.
        -11    1    4    4    0    0  0.22081596847E+02 -0.40284865287E+02  0.60496428269E+02  0.75962392826E+02  0.00000000000E+00 0. -1.
         11    1    4    4    0    0 -0.50126612273E+02  0.72573828438E+01  0.10049748226E+03  0.11253928560E+03  0.00000000000E+00 0.  1.
        -11    1    3    3    0    0 -0.27119886973E+02  0.27941215993E+02  0.40632610553E+02  0.56277960703E+02  0.00000000000E+00 0.  1.
         11    1    3    3    0    0  0.35441106365E+02  0.12249011787E+02  0.21069413986E+03  0.21400497864E+03  0.00000000000E+00 0. -1.
          1    1    1    2  501    0  0.19723796033E+02 -0.71627453370E+01  0.78540410627E+01  0.22405780766E+02  0.00000000000E+00 0. -1.
<scales pt_clust_5="13000.00000" pt_clust_6="13000.00000" pt_clust_7="13000.00000" pt_clust_8="13000.00000" pt_clust_9="20.98411"></scales>
<clustering>
<clus scale="   20.984">  2  9  1 -1</clus>
<clus scale="   87.957">  5  6 -1 -1</clus>
<clus scale="   90.572">  7  8 -1 -1</clus>
<clus scale="   96.919">  2  5  1 -1</clus>
<clus scale="   20.984">  2  5  1 -1</clus>
</clustering>
</event>
<event>
 9    1  0.1601012E-005  0.1476588E+03  0.7546771E-02  0.1221288E+00
          1   -1    0    0  502    0 -0.00000000000E+00  0.00000000000E+00  0.44695918946E+03  0.44695918946E+03  0.00000000000E+00 0. -1.
         21   -1    0    0  501  502  0.00000000000E+00 -0.00000000000E+00 -0.82074213802E+02  0.82074213802E+02  0.00000000000E+00 0. -1.
         23    2    1    2    0    0 -0.15354270166E+02 -0.31338416017E+02  0.90626347341E+02  0.13561303231E+03  0.94656799916E+02 0.  0.
         23    2    1    2    0    0  0.11128206845E+03 -0.41088792819E+02  0.21121130195E+03  0.25768972435E+03  0.87873729377E+02 0.  0.
        -13    1    3    3    0    0 -0.36072511549E+01 -0.62523271111E+02  0.37789209619E+02  0.73145034384E+02  0.00000000000E+00 0. -1.
         13    1    3    3    0    0 -0.11747019011E+02  0.31184855094E+02  0.52837137722E+02  0.62467997931E+02  0.00000000000E+00 0.  1.
        -13    1    4    4    0    0  0.49402860364E+01 -0.20245379699E+02  0.10099910976E+03  0.10312663088E+03  0.00000000000E+00 0.  1.
         13    1    4    4    0    0  0.10634178241E+03 -0.20843413120E+02  0.11021219219E+03  0.15456309347E+03  0.00000000000E+00 0. -1.
          1    1    1    2  501    0 -0.95927798280E+02  0.72427208836E+02  0.63047326373E+02  0.13573064660E+03  0.00000000000E+00 0. -1.
<scales pt_clust_5="13000.00000" pt_clust_6="13000.00000" pt_clust_7="13000.00000" pt_clust_8="13000.00000" pt_clust_9="118.66472"></scales>
<clustering>
<clus scale="   87.874">  7  8 -1 -1</clus>
<clus scale="   94.657">  5  6 -1 -1</clus>
<clus scale="  100.885">  1  5  2 -1</clus>
<clus scale="  118.665">  2  9  1 -1</clus>
<clus scale="  118.665">  2  5  1 -1</clus>
</clustering>
</event>
<event>
 9    1  0.1601012E-005  0.9716244E+02  0.7546771E-02  0.1286545E+00
         21   -1    0    0  501  502  0.00000000000E+00  0.00000000000E+00  0.26275179855E+03  0.26275179855E+03  0.00000000000E+00 0. -1.
          1   -1    0    0  502    0 -0.00000000000E+00 -0.00000000000E+00 -0.12662612925E+03  0.12662612925E+03  0.00000000000E+00 0. -1.
         23    2    1    2    0    0 -0.35459924679E+02  0.20203422222E+02 -0.64132705876E+02  0.11811575739E+03  0.90403228108E+02 0.  0.
         23    2    1    2    0    0  0.26193163571E+02  0.15140677483E+00  0.28482520143E+02  0.98036490157E+02  0.90076604659E+02 0.  0.
        -13    1    3    3    0    0 -0.56890075930E+02  0.24573719856E+02 -0.14161758230E+02  0.63568103976E+02  0.00000000000E+00 0. -1.
         13    1    3    3    0    0  0.21430151251E+02 -0.43702976332E+01 -0.49970947646E+02  0.54547653411E+02  0.00000000000E+00 0.  1.
        -13    1    4    4    0    0  0.25122379301E+02 -0.26901333329E+02  0.50949712259E+02  0.62854505454E+02  0.00000000000E+00 0.  1.
         13    1    4    4    0    0  0.10707842692E+01  0.27052740103E+02 -0.22467192116E+02  0.35181984703E+02  0.00000000000E+00 0. -1.
          1    1    1    2  501    0  0.92667611089E+01 -0.20354828997E+02  0.17177585504E+03  0.17322568026E+03  0.00000000000E+00 0. -1.
<scales pt_clust_5="13000.00000" pt_clust_6="13000.00000" pt_clust_7="13000.00000" pt_clust_8="13000.00000" pt_clust_9="22.36497"></scales>
<clustering>
<clus scale="   22.365">  1  9  2 -1</clus>
<clus scale="   90.077">  7  8 -1 -1</clus>
<clus scale="   90.403">  5  6 -1 -1</clus>
<clus scale="   96.859">  1  7  2 -1</clus>
<clus scale="   22.365">  1  5  2 -1</clus>
</clustering>
</event>
<event>
 9    1  0.1601012E-005  0.1134033E+03  0.7546771E-02  0.1254970E+00
         21   -1    0    0  501  502  0.00000000000E+00  0.00000000000E+00  0.91440451912E+02  0.91440451912E+02  0.00000000000E+00 0. -1.
          3   -1    0    0  502    0 -0.00000000000E+00 -0.00000000000E+00 -0.37773357400E+03  0.37773357400E+03  0.00000000000E+00 0. -1.
         23    2    1    2    0    0  0.11678493882E+02  0.68559048433E+02 -0.28825424240E+03  0.31018648197E+03  0.91040732587E+02 0.  0.
         23    2    1    2    0    0  0.94279692193E+01 -0.62473393082E+02 -0.35884837034E+02  0.11522872229E+03  0.89432239512E+02 0.  0.
        -11    1    3    3    0    0  0.33253730176E+02 -0.74357746929E+01 -0.65397670882E+02  0.73742502485E+02  0.00000000000E+00 0.  1.
         11    1    3    3    0    0 -0.21575236294E+02  0.75994823126E+02 -0.22285657152E+03  0.23644397948E+03  0.00000000000E+00 0. -1.
        -13    1    4    4    0    0 -0.39984944030E+02 -0.33442081411E+02 -0.15157825430E+02  0.54285617155E+02  0.00000000000E+00 0.  1.
         13    1    4    4    0    0  0.49412913249E+02 -0.29031311671E+02 -0.20727011604E+02  0.60943105132E+02  0.00000000000E+00 0. -1.
          3    1    1    2  501    0 -0.21106463101E+02 -0.60856553509E+01  0.37845957347E+02  0.43758821661E+02  0.00000000000E+00 0. -1.
<scales pt_clust_5="13000.00000" pt_clust_6="13000.00000" pt_clust_7="13000.00000" pt_clust_8="13000.00000" pt_clust_9="21.96629"></scales>
<clustering>
<clus scale="   21.966">  1  9  2 -1</clus>
<clus scale="   89.432">  7  8 -1 -1</clus>
<clus scale="   91.041">  5  6 -1 -1</clus>
<clus scale="  112.116">  1  7  2 -1</clus>
<clus scale="   21.966">  1  5  2 -1</clus>
</clustering>
</event>
<event>
 9    1  0.1601012E-005  0.1335236E+03  0.7546771E-02  0.1222350E+00
         21   -1    0    0  501  502  0.00000000000E+00  0.00000000000E+00  0.22548804315E+03  0.22548804315E+03  0.00000000000E+00 0. -1.
          2   -1    0    0  502    0 -0.00000000000E+00 -0.00000000000E+00 -0.18284254054E+03  0.18284254054E+03  0.00000000000E+00 0. -1.
         23    2    1    2    0    0 -0.38999955377E+02  0.85354593822E+02 -0.10123115583E+03  0.16546147847E+03  0.91232399613E+02 0.  0.
         23    2    1    2    0    0  0.82595132541E+02 -0.87710089958E+02  0.12126137438E+03  0.19370063049E+03  0.91107615144E+02 0.  0.
        -11    1    4    4    0    0  0.59436823234E+02 -0.10390418918E+03  0.11209015265E+03  0.16399091074E+03  0.00000000000E+00 0. -1.
         11    1    4    4    0    0  0.23158309308E+02  0.16194099224E+02  0.91712217330E+01  0.29709719752E+02  0.00000000000E+00 0.  1.
        -13    1    3    3    0    0 -0.60028824652E+02  0.21735843921E+02 -0.47516879197E+02  0.79584926391E+02  0.00000000000E+00 0.  1.
         13    1    3    3    0    0  0.21028869274E+02  0.63618749901E+02 -0.53714276635E+02  0.85876552076E+02  0.00000000000E+00 0. -1.
          2    1    1    2  501    0 -0.43595177164E+02  0.23554961359E+01  0.22615284057E+02  0.49168474728E+02  0.00000000000E+00 0. -1.
<scales pt_clust_5="13000.00000" pt_clust_6="13000.00000" pt_clust_7="13000.00000" pt_clust_8="13000.00000" pt_clust_9="43.65877"></scales>
<clustering>
<clus scale="   43.659">  1  9  2 -1</clus>
<clus scale="   91.108">  5  6 -1 -1</clus>
<clus scale="   91.232">  7  8 -1 -1</clus>
<clus scale="  133.438">  1  5  2 -1</clus>
<clus scale="   43.659">  1  5  2 -1</clus>
</clustering>
</event>
<event>
 9    1  0.1601012E-005  0.1106287E+03  0.7546771E-02  0.1259496E+00
          1   -1    0    0  502    0 -0.00000000000E+00  0.00000000000E+00  0.10026055221E+03  0.10026055221E+03  0.00000000000E+00 0. -1.
         21   -1    0    0  501  502  0.00000000000E+00 -0.00000000000E+00 -0.19702605163E+03  0.19702605163E+03  0.00000000000E+00 0.  1.
         23    2    1    2    0    0 -0.59203448282E+02  0.37644726600E+02  0.19688567128E+02  0.11746282539E+03  0.92128724862E+02 0.  0.
         23    2    1    2    0    0  0.26659092983E+02 -0.36677809673E+02 -0.74407780190E+02  0.12664520958E+03  0.91904963935E+02 0.  0.
        -11    1    3    3    0    0  0.22638156711E+02  0.10405369414E+02 -0.91075185439E+01  0.26527433836E+02  0.00000000000E+00 0.  1.
         11    1    3    3    0    0 -0.81841604993E+02  0.27239357186E+02  0.28796085672E+02  0.90935391558E+02  0.00000000000E+00 0. -1.
        -13    1    4    4    0    0  0.16188347477E+01 -0.42533957445E+02 -0.87856885931E+02  0.97624743623E+02  0.00000000000E+00 0.  1.
         13    1    4    4    0    0  0.25040258235E+02  0.58561477715E+01  0.13449105741E+02  0.29020465958E+02  0.00000000000E+00 0. -1.
          1    1    1    2  501    0  0.32544355299E+02 -0.96691692698E+00 -0.42046286360E+02  0.53178568868E+02  0.00000000000E+00 0. -1.
<scales pt_clust_5="13000.00000" pt_clust_6="13000.00000" pt_clust_7="13000.00000" pt_clust_8="13000.00000" pt_clust_9="32.55872"></scales>
<clustering>
<clus scale="   32.559">  2  9  1 -1</clus>
<clus scale="   91.905">  7  8 -1 -1</clus>
<clus scale="   92.129">  5  6 -1 -1</clus>
<clus scale="  110.442">  2  7  1 -1</clus>
<clus scale="   32.559">  2  5  1 -1</clus>
</clustering>
</event>
<event>
 9    1  0.1601012E-005  0.1415422E+03  0.7546771E-02  0.1212186E+00
          2   -1    0    0  502    0 -0.00000000000E+00  0.00000000000E+00  0.48514585508E+02  0.48514585508E+02  0.00000000000E+00 0. -1.
         21   -1    0    0  501  502  0.00000000000E+00 -0.00000000000E+00 -0.52432359983E+03  0.52432359983E+03  0.00000000000E+00 0.  1.
         23    2    1    2    0    0  0.10331355193E+03 -0.20158253506E+02 -0.15004567359E+03  0.20749547613E+03  0.97265735263E+02 0.  0.
         23    2    1    2    0    0 -0.90897511339E+02  0.43369210101E+02 -0.29096831662E+03  0.32171244135E+03  0.93236729303E+02 0.  0.
        -11    1    4    4    0    0 -0.57471275320E+02  0.60189984133E+02 -0.11586322460E+03  0.14265366624E+03  0.00000000000E+00 0.  1.
         11    1    4    4    0    0 -0.33426236020E+02 -0.16820774032E+02 -0.17510509202E+03  0.17905877511E+03  0.00000000000E+00 0. -1.
        -13    1    3    3    0    0  0.61086921381E+02 -0.53215568255E+02 -0.53594932633E+02  0.97138691943E+02  0.00000000000E+00 0. -1.
         13    1    3    3    0    0  0.42226630549E+02  0.33057314749E+02 -0.96450740955E+02  0.11035678419E+03  0.00000000000E+00 0.  1.
          2    1    1    2  501    0 -0.12416040590E+02 -0.23210956595E+02 -0.34795024114E+02  0.43630267855E+02  0.00000000000E+00 0. -1.
<scales pt_clust_5="13000.00000" pt_clust_6="13000.00000" pt_clust_7="13000.00000" pt_clust_8="13000.00000" pt_clust_9="26.32313"></scales>
<clustering>
<clus scale="   26.323">  2  9  1 -1</clus>
<clus scale="   93.237">  5  6 -1 -1</clus>
<clus scale="   97.266">  7  8 -1 -1</clus>
<clus scale="  138.804">  2  5  1 -1</clus>
<clus scale="   26.323">  2  5  1 -1</clus>
</clustering>
</event>
<event>
 9    1  0.2444824E-005  0.9381779E+02  0.7546771E-02  0.1294943E+00
         21   -1    0    0  501  502  0.00000000000E+00  0.00000000000E+00  0.66968191044E+03  0.66968191044E+03  0.00000000000E+00 0. -1.
          4   -1    0    0  502    0 -0.00000000000E+00 -0.00000000000E+00 -0.17118809193E+03  0.17118809193E+03  0.00000000000E+00 0. -1.
         23    2    1    2    0    0 -0.54986774276E+01  0.11724044107E+02 -0.14188028208E+03  0.17014400470E+03  0.93012253116E+02 0.  0.
         23    2    1    2    0    0 -0.70845785354E+02 -0.19643055850E+02  0.30551134795E+03  0.32717942025E+03  0.91127462178E+02 0.  0.
        -11    1    3    3    0    0  0.30540400914E+02 -0.26436044050E+02 -0.49452465482E+02  0.63852383317E+02  0.00000000000E+00 0.  1.
         11    1    3    3    0    0 -0.36039078341E+02  0.38160088157E+02 -0.92427816600E+02  0.10629162139E+03  0.00000000000E+00 0. -1.
        -11    1    4    4    0    0 -0.33199239033E+02  0.25804156975E+02  0.51916582437E+02  0.66808498871E+02  0.00000000000E+00 0.  1.
         11    1    4    4    0    0 -0.37646546321E+02 -0.45447212826E+02  0.25359476551E+03  0.26037092138E+03  0.00000000000E+00 0. -1.
          4    1    1    2  501    0  0.76344462782E+02  0.79190117431E+01  0.33486275264E+03  0.34354657741E+03  0.00000000000E+00 0. -1.
<scales pt_clust_5="13000.00000" pt_clust_6="13000.00000" pt_clust_7="13000.00000" pt_clust_8="13000.00000" pt_clust_9="76.75407"></scales>
<clustering>
<clus scale="   76.754">  1  9  2 -1</clus>
<clus scale="   91.127">  7  8 -1 -1</clus>
<clus scale="   91.950">  1  7  2 -1</clus>
<clus scale="   93.012">  5  6 -1 -1</clus>
<clus scale="   76.754">  1  5  2 -1</clus>
</clustering>
</event>
<event>
 9    1  0.1601012E-005  0.9526273E+02  0.7546771E-02  0.1296612E+00
         21   -1    0    0  501  502  0.00000000000E+00  0.00000000000E+00  0.25620308660E+03  0.25620308660E+03  0.00000000000E+00 0.  1.
          2   -1    0    0  502    0 -0.00000000000E+00 -0.00000000000E+00 -0.52312804999E+02  0.52312804999E+02  0.00000000000E+00 0. -1.
         23    2    1    2    0    0 -0.24690100011E+02  0.20903503391E+02  0.22699492990E+02  0.90227002820E+02  0.81111574780E+02 0.  0.
         23    2    1    2    0    0 -0.23528695190E+01 -0.16229508342E+02  0.12631361126E+03  0.15693195743E+03  0.91671031068E+02 0.  0.
        -11    1    4    4    0    0  0.55675038925E+01  0.35412699074E+02  0.27588975080E+02  0.45235029581E+02  0.00000000000E+00 0. -1.
         11    1    4    4    0    0 -0.79203734115E+01 -0.51642207416E+02  0.98724636185E+02  0.11169692785E+03  0.00000000000E+00 0.  1.
        -11    1    3    3    0    0  0.24683975275E+02 -0.16335372267E+01 -0.10201585036E+02  0.26758912842E+02  0.00000000000E+00 0.  1.
         11    1    3    3    0    0 -0.49374075286E+02  0.22537040618E+02  0.32901078027E+02  0.63468089978E+02  0.00000000000E+00 0. -1.
          2    1    1    2  501    0  0.27042969530E+02 -0.46739950492E+01  0.54877177349E+02  0.61356931348E+02  0.00000000000E+00 0. -1.
<scales pt_clust_5="13000.00000" pt_clust_6="13000.00000" pt_clust_7="13000.00000" pt_clust_8="13000.00000" pt_clust_9="27.44391"></scales>
<clustering>
<clus scale="   27.444">  1  9  2 -1</clus>
<clus scale="   81.112">  7  8 -1 -1</clus>
<clus scale="   85.150">  2  7  1 -1</clus>
<clus scale="   91.671">  5  6 -1 -1</clus>
<clus scale="   27.444">  1  5  2 -1</clus>
</clustering>
</event>
<event>
 9    1  0.1601012E-005  0.1755281E+03  0.7546771E-02  0.1172268E+00
          1   -1    0    0  502    0 -0.00000000000E+00  0.00000000000E+00  0.80705087937E+03  0.80705087937E+03  0.00000000000E+00 0. -1.
         21   -1    0    0  501  502  0.00000000000E+00 -0.00000000000E+00 -0.99767410348E+02  0.99767410348E+02  0.00000000000E+00 0.  1.
         23    2    1    2    0    0  0.93267628604E+02 -0.12387005271E+03  0.64897489495E+03  0.67336502261E+03  0.90605733204E+02 0.  0.
         23    2    1    2    0    0 -0.41743061752E+02  0.12802491942E+03  0.75113015765E+02  0.17909856936E+03  0.91112398786E+02 0.  0.
        -11    1    3    3    0    0  0.92218368023E+02 -0.93626956408E+02  0.61013848937E+03  0.62413076400E+03  0.00000000000E+00 0. -1.
         11    1    3    3    0    0  0.10492605811E+01 -0.30243096300E+02  0.38836405583E+02  0.49234258603E+02  0.00000000000E+00 0.  1.
        -13    1    4    4    0    0 -0.68153886875E+02  0.11363534669E+03  0.61677148132E+02  0.14615750037E+03  0.00000000000E+00 0.  1.
         13    1    4    4    0    0  0.26410825123E+02  0.14389572732E+02  0.13435867633E+02  0.32941068989E+02  0.00000000000E+00 0. -1.
          1    1    1    2  501    0 -0.51524566851E+02 -0.41548667136E+01 -0.16804441697E+02  0.54354697749E+02  0.00000000000E+00 0. -1.
<scales pt_clust_5="13000.00000" pt_clust_6="13000.00000" pt_clust_7="13000.00000" pt_clust_8="13000.00000" pt_clust_9="51.69182"></scales>
<clustering>
<clus scale="   51.692">  2  9  1 -1</clus>
<clus scale="   90.606">  5  6 -1 -1</clus>
<clus scale="   91.112">  7  8 -1 -1</clus>
<clus scale="  175.266">  1  5  2 -1</clus>
<clus scale="   51.692">  2  5  1 -1</clus>
</clustering>
</event>
<event>
 9    1  0.1601012E-005  0.1867498E+03  0.7546771E-02  0.1163756E+00
         21   -1    0    0  501  502  0.00000000000E+00  0.00000000000E+00  0.80403410654E+02  0.80403410654E+02  0.00000000000E+00 0. -1.
          1   -1    0    0  502    0 -0.00000000000E+00 -0.00000000000E+00 -0.10597147470E+04  0.10597147470E+04  0.00000000000E+00 0. -1.
         23    2    1    2    0    0  0.16174464556E+03 -0.10332297807E+03 -0.63680980934E+03  0.66903320008E+03  0.72399733264E+02 0.  0.
         23    2    1    2    0    0 -0.12028709325E+03 -0.46510124546E+02 -0.11980078618E+03  0.19948910479E+03  0.93869580107E+02 0.  0.
        -11    1    3    3    0    0  0.74988516694E+02 -0.83130072889E+01 -0.26843700991E+03  0.27883832594E+03  0.00000000000E+00 0. -1.
         11    1    3    3    0    0  0.86756128871E+02 -0.95009970784E+02 -0.36837279943E+03  0.39019487414E+03  0.00000000000E+00 0.  1.
        -13    1    4    4    0    0 -0.13132093626E+03 -0.26165490198E+02 -0.88281884283E+02  0.16038551141E+03  0.00000000000E+00 0. -1.
         13    1    4    4    0    0  0.11033843003E+02 -0.20344634348E+02 -0.31518901901E+02  0.39103593380E+02  0.00000000000E+00 0.  1.
          1    1    1    2  501    0 -0.41457552313E+02  0.14983310262E+03 -0.22270074080E+03  0.27159585276E+03  0.00000000000E+00 0. -1.
<scales pt_clust_5="13000.00000" pt_clust_6="13000.00000" pt_clust_7="13000.00000" pt_clust_8="13000.00000" pt_clust_9="155.46282"></scales>
<clustering>
<clus scale="   72.400">  5  6 -1 -1</clus>
<clus scale="   93.870">  7  8 -1 -1</clus>
<clus scale="  155.463">  1  9  2 -1</clus>
<clus scale="  176.934">  2  5  1 -1</clus>
<clus scale="  155.463">  1  5  2 -1</clus>
</clustering>
</event>
<event>
 9    1  0.1601012E-005  0.1242843E+03  0.7546771E-02  0.1236655E+00
          1   -1    0    0  502    0 -0.00000000000E+00  0.00000000000E+00  0.26480025210E+03  0.26480025210E+03  0.00000000000E+00 0. -1.
         21   -1    0    0  501  502  0.00000000000E+00 -0.00000000000E+00 -0.10085613024E+03  0.10085613024E+03  0.00000000000E+00 0. -1.
         23    2    1    2    0    0  0.65031422998E+02 -0.43753268586E+02  0.14592715736E+03  0.18895645628E+03  0.90919594280E+02 0.  0.
         23    2    1    2    0    0 -0.83022105588E+02  0.53266602384E+02  0.47140204768E+02  0.14117062402E+03  0.89313746062E+02 0.  0.
        -11    1    4    4    0    0 -0.46358312643E+02  0.57528251768E+02  0.66578011513E+02  0.99454635486E+02  0.00000000000E+00 0. -1.
         11    1    4    4    0    0 -0.36663792945E+02 -0.42616493835E+01 -0.19437806745E+02  0.41715988537E+02  0.00000000000E+00 0.  1.
        -11    1    3    3    0    0  0.38497864662E+02 -0.80684799655E+01  0.13836795410E+03  0.14385018830E+03  0.00000000000E+00 0. -1.
         11    1    3    3    0    0  0.26533558337E+02 -0.35684788620E+02  0.75592032636E+01  0.45106267978E+02  0.00000000000E+00 0.  1.
          1    1    1    2  501    0  0.17990682590E+02 -0.95133337982E+01 -0.29123240270E+02  0.35529302045E+02  0.00000000000E+00 0. -1.
<scales pt_clust_5="13000.00000" pt_clust_6="13000.00000" pt_clust_7="13000.00000" pt_clust_8="13000.00000" pt_clust_9="20.35112"></scales>
<clustering>
<clus scale="   20.351">  2  9  1 -1</clus>
<clus scale="   89.314">  5  6 -1 -1</clus>
<clus scale="   90.920">  7  8 -1 -1</clus>
<clus scale="  123.114">  2  5  1 -1</clus>
<clus scale="   20.351">  2  5  1 -1</clus>
</clustering>
</event>
<event>
 9    1  0.1601012E-005  0.9529681E+02  0.7546771E-02  0.1291168E+00
          1   -1    0    0  502    0 -0.00000000000E+00  0.00000000000E+00  0.46402690313E+03  0.46402690313E+03  0.00000000000E+00 0. -1.
         21   -1    0    0  501  502  0.00000000000E+00 -0.00000000000E+00 -0.49222890271E+02  0.49222890271E+02  0.00000000000E+00 0.  1.
         23    2    1    2    0    0  0.92283861436E+01  0.14445931596E+02  0.37776333441E+03  0.38963618467E+03  0.93900860120E+02 0.  0.
         23    2    1    2    0    0 -0.22404706783E+02  0.34143152253E+01  0.33410927951E+02  0.10112407937E+03  0.92715483539E+02 0.  0.
        -11    1    4    4    0    0 -0.41583364817E+01 -0.41778330837E+02 -0.87462507645E-01  0.41984858456E+02  0.00000000000E+00 0.  1.
         11    1    4    4    0    0 -0.18246370302E+02  0.45192646063E+02  0.33498390459E+02  0.59139220917E+02  0.00000000000E+00 0. -1.
        -13    1    3    3    0    0  0.31822213016E+02  0.46403437317E+02  0.21666002322E+03  0.22384704130E+03  0.00000000000E+00 0. -1.
         13    1    3    3    0    0 -0.22593826873E+02 -0.31957505721E+02  0.16110331119E+03  0.16578914337E+03  0.00000000000E+00 0.  1.
          1    1    1    2  501    0  0.13176320640E+02 -0.17860246821E+02  0.36297505011E+01  0.22489529360E+02  0.00000000000E+00 0. -1.
<scales pt_clust_5="13000.00000" pt_clust_6="13000.00000" pt_clust_7="13000.00000" pt_clust_8="13000.00000" pt_clust_9="22.19468"></scales>
<clustering>
<clus scale="   22.195">  2  9  1 -1</clus>
<clus scale="   92.715">  5  6 -1 -1</clus>
<clus scale="   93.901">  7  8 -1 -1</clus>
<clus scale="   94.129">  2  5  1 -1</clus>
<clus scale="   22.195">  2  5  1 -1</clus>
</clustering>
</event>
<event>
 9    1  0.1601012E-005  0.9393693E+02  0.7546771E-02  0.1295315E+00
         21   -1    0    0  501  502  0.00000000000E+00  0.00000000000E+00  0.16092673233E+03  0.16092673233E+03  0.00000000000E+00 0.  1.
          2   -1    0    0  502    0 -0.00000000000E+00 -0.00000000000E+00 -0.88770230030E+02  0.88770230030E+02  0.00000000000E+00 0. -1.
         23    2    1    2    0    0  0.21973440311E+02 -0.16838425229E+02 -0.10282494350E+02  0.93736998453E+02  0.88963647327E+02 0.  0.
         23    2    1    2    0    0 -0.41698083616E+01 -0.10721104277E+02  0.81008588128E+02  0.12311878479E+03  0.91997361048E+02 0.  0.
        -13    1    4    4    0    0 -0.18407911008E+01  0.27127301607E+02  0.80742775160E+02  0.85197856457E+02  0.00000000000E+00 0.  1.
         13    1    4    4    0    0 -0.23290172608E+01 -0.37848405884E+02  0.26581296858E+00  0.37920928337E+02  0.00000000000E+00 0. -1.
        -13    1    3    3    0    0  0.50456832152E+02 -0.28363892428E+02 -0.20423171198E+02  0.61380031168E+02  0.00000000000E+00 0. -1.
         13    1    3    3    0    0 -0.28483391841E+02  0.11525467200E+02  0.10140676848E+02  0.32356967285E+02  0.00000000000E+00 0.  1.
          2    1    1    2  501    0 -0.17803631949E+02  0.27559529505E+02  0.14304085233E+01  0.32841179115E+02  0.00000000000E+00 0. -1.
<scales pt_clust_5="13000.00000" pt_clust_6="13000.00000" pt_clust_7="13000.00000" pt_clust_8="13000.00000" pt_clust_9="32.81003"></scales>
<clustering>
<clus scale="   32.810">  1  9  2 -1</clus>
<clus scale="   88.964">  7  8 -1 -1</clus>
<clus scale="   90.968">  2  7  1 -1</clus>
<clus scale="   91.997">  5  6 -1 -1</clus>
<clus scale="   32.810">  1  5  2 -1</clus>
</clustering>
</event>
<event>
 9    1  0.1601012E-005  0.9638944E+02  0.7546771E-02  0.1289553E+00
         21   -1    0    0  501  502  0.00000000000E+00  0.00000000000E+00  0.54936626920E+02  0.54936626920E+02  0.00000000000E+00 0.  1.
          1   -1    0    0  502    0 -0.00000000000E+00 -0.00000000000E+00 -0.61160074897E+03  0.61160074897E+03  0.00000000000E+00 0. -1.
         23    2    1    2    0    0 -0.32888026945E+02 -0.18182700780E+02 -0.48693881657E+03  0.49687869353E+03  0.91470170432E+02 0.  0.
         23    2    1    2    0    0  0.10378259708E+02 -0.21583545512E+02 -0.81128432582E+02  0.12256223586E+03  0.88691157254E+02 0.  0.
        -13    1    3    3    0    0  0.23262445117E+02 -0.32564333855E+02 -0.23269768219E+03  0.23611393116E+03  0.00000000000E+00 0.  1.
         13    1    3    3    0    0 -0.56150472062E+02  0.14381633075E+02 -0.25424113438E+03  0.26076476237E+03  0.00000000000E+00 0. -1.
        -13    1    4    4    0    0 -0.28728962135E+01  0.30835510686E+02 -0.53566342184E+02  0.61874350639E+02  0.00000000000E+00 0. -1.
         13    1    4    4    0    0  0.13251155921E+02 -0.52419056198E+02 -0.27562090398E+02  0.60687885225E+02  0.00000000000E+00 0.  1.
          1    1    1    2  501    0  0.22509767237E+02  0.39766246292E+02  0.11403127099E+02  0.47096446499E+02  0.00000000000E+00 0. -1.
<scales pt_clust_5="13000.00000" pt_clust_6="13000.00000" pt_clust_7="13000.00000" pt_clust_8="13000.00000" pt_clust_9="45.69512"></scales>
<clustering>
<clus scale="   45.695">  1  9  2 -1</clus>
<clus scale="   88.691">  7  8 -1 -1</clus>
<clus scale="   91.470">  5  6 -1 -1</clus>
<clus scale="   93.756">  1  7  2 -1</clus>
<clus scale="   45.695">  1  5  2 -1</clus>
</clustering>
</event>
<event>
 9    1  0.1601012E-005  0.1248484E+03  0.7546771E-02  0.1239663E+00
         -2   -1    0    0    0  501 -0.00000000000E+00  0.00000000000E+00  0.82321603585E+03  0.82321603585E+03  0.00000000000E+00 0.  1.
         21   -1    0    0  501  502  0.00000000000E+00 -0.00000000000E+00 -0.11104845583E+03  0.11104845583E+03  0.00000000000E+00 0.  1.
         23    2    1    2    0    0 -0.41042947982E+02  0.62464327972E+02  0.49081316794E+03  0.50510838795E+03  0.93008611963E+02 0.  0.
         23    2    1    2    0    0 -0.93860493472E+01 -0.62603247448E+02  0.30640902004E+03  0.33027542106E+03  0.10577382325E+03 0.  0.
        -13    1    4    4    0    0 -0.50252595578E+02 -0.28176954179E+02  0.86233415039E+02  0.10370856271E+03  0.00000000000E+00 0.  1.
         13    1    4    4    0    0  0.40866546231E+02 -0.34426293269E+02  0.22017560500E+03  0.22656685836E+03  0.00000000000E+00 0. -1.
        -13    1    3    3    0    0 -0.56342904314E+02  0.28838017045E+01  0.27342386648E+03  0.27918354167E+03  0.00000000000E+00 0.  1.
         13    1    3    3    0    0  0.15299956332E+02  0.59580526268E+02  0.21738930146E+03  0.22592484627E+03  0.00000000000E+00 0. -1.
         -2    1    1    2    0  502  0.50428997329E+02  0.13891947540E+00 -0.85054607962E+02  0.98880682673E+02  0.00000000000E+00 0.  1.
<scales pt_clust_5="13000.00000" pt_clust_6="13000.00000" pt_clust_7="13000.00000" pt_clust_8="13000.00000" pt_clust_9="50.42919"></scales>
<clustering>
<clus scale="   50.429">  2  9  1 -1</clus>
<clus scale="   93.009">  7  8 -1 -1</clus>
<clus scale="  105.774">  5  6 -1 -1</clus>
<clus scale="  114.235">  1  7  2 -1</clus>
<clus scale="   50.429">  2  5  1 -1</clus>
</clustering>
</event>
<event>
 9    1  0.1601012E-005  0.1700598E+03  0.7546771E-02  0.1178478E+00
         -4   -1    0    0    0  501 -0.00000000000E+00  0.00000000000E+00  0.16645907544E+03  0.16645907544E+03  0.00000000000E+00 0.  1.
         21   -1    0    0  501  502  0.00000000000E+00 -0.00000000000E+00 -0.23628345902E+03  0.23628345902E+03  0.00000000000E+00 0. -1.
         23    2    1    2    0    0 -0.73954832170E+02  0.13001836335E+03  0.36338598881E+02  0.18128844006E+03  0.95764882510E+02 0.  0.
         23    2    1    2    0    0  0.81504126037E+02 -0.97479741153E+02 -0.67180020731E+02  0.17011770305E+03  0.91003599977E+02 0.  0.
        -11    1    3    3    0    0 -0.76061921525E+02  0.55135494033E+02  0.47963902143E+02  0.10547926108E+03  0.00000000000E+00 0.  1.
         11    1    3    3    0    0  0.21070893554E+01  0.74882869315E+02 -0.11625303263E+02  0.75809178985E+02  0.00000000000E+00 0. -1.
        -11    1    4    4    0    0  0.87415788978E+02 -0.77490626192E+02 -0.83543704391E+02  0.14361708761E+03  0.00000000000E+00 0. -1.
         11    1    4    4    0    0 -0.59116629412E+01 -0.19989114961E+02  0.16363683661E+02  0.26500615438E+02  0.00000000000E+00 0.  1.
         -4    1    1    2    0  502 -0.75492938673E+01 -0.32538622195E+02 -0.38982961728E+02  0.51336391355E+02  0.00000000000E+00 0.  1.
<scales pt_clust_5="13000.00000" pt_clust_6="13000.00000" pt_clust_7="13000.00000" pt_clust_8="13000.00000" pt_clust_9="33.40290"></scales>
<clustering>
<clus scale="   33.403">  2  9  1 -1</clus>
<clus scale="   91.004">  7  8 -1 -1</clus>
<clus scale="   95.765">  5  6 -1 -1</clus>
<clus scale="  167.425">  2  7  1 -1</clus>
<clus scale="   33.403">  2  5  1 -1</clus>
</clustering>
</event>
<event>
 9    1  0.1601012E-005  0.2057281E+03  0.7546771E-02  0.1145253E+00
         21   -1    0    0  501  502  0.00000000000E+00  0.00000000000E+00  0.61592940771E+02  0.61592940771E+02  0.00000000000E+00 0.  1.
          1   -1    0    0  502    0 -0.00000000000E+00 -0.00000000000E+00 -0.12889047572E+04  0.12889047572E+04  0.00000000000E+00 0. -1.
         23    2    1    2    0    0  0.13505079084E+03  0.13075084576E+03 -0.10622435509E+04  0.10826978054E+04  0.92404960365E+02 0.  0.
         23    2    1    2    0    0 -0.12050156736E+03 -0.11315685771E+03 -0.14891261785E+03  0.23983145908E+03  0.89549197800E+02 0.  0.
        -11    1    3    3    0    0  0.66390007810E+02  0.87716088394E+01 -0.26980355281E+03  0.27799016416E+03  0.00000000000E+00 0.  1.
         11    1    3    3    0    0  0.68660783029E+02  0.12197923692E+03 -0.79243999807E+03  0.80470764126E+03  0.00000000000E+00 0. -1.
        -11    1    4    4    0    0  0.11747474187E+02 -0.24477023043E+02 -0.33781100816E+02  0.43339249868E+02  0.00000000000E+00 0. -1.
         11    1    4    4    0    0 -0.13224904154E+03 -0.88679834672E+02 -0.11513151703E+03  0.19649220921E+03  0.00000000000E+00 0.  1.
          1    1    1    2  501    0 -0.14549223481E+02 -0.17593988047E+02 -0.16155647750E+02  0.27968433519E+02  0.00000000000E+00 0. -1.
<scales pt_clust_5="13000.00000" pt_clust_6="13000.00000" pt_clust_7="13000.00000" pt_clust_8="13000.00000" pt_clust_9="22.83043"></scales>
<clustering>
<clus scale="   22.830">  1  9  2 -1</clus>
<clus scale="   89.549">  7  8 -1 -1</clus>
<clus scale="   92.405">  5  6 -1 -1</clus>
<clus scale="  204.461">  1  7  2 -1</clus>
<clus scale="   22.830">  1  5  2 -1</clus>
</clustering>
</event>
<event>
 9    1  0.1601012E-005  0.1478852E+03  0.7546771E-02  0.1212264E+00
         21   -1    0    0  501  502  0.00000000000E+00  0.00000000000E+00  0.96740405848E+02  0.96740405848E+02  0.00000000000E+00 0. -1.
          1   -1    0    0  502    0 -0.00000000000E+00 -0.00000000000E+00 -0.79009161401E+03  0.79009161401E+03  0.00000000000E+00 0. -1.
         23    2    1    2    0    0 -0.64194127067E+02  0.60015218782E+02 -0.41666614675E+03  0.43401852576E+03  0.83896903549E+02 0.  0.
         23    2    1    2    0    0  0.53138981252E+02  0.64630958699E+02 -0.30081611497E+03  0.32537255266E+03  0.91520767300E+02 0.  0.
        -11    1    3    3    0    0 -0.81622161029E+02  0.32702109435E+02 -0.32932755593E+03  0.34086396734E+03  0.00000000000E+00 0. -1.
         11    1    3    3    0    0  0.17428033962E+02  0.27313109347E+02 -0.87338590817E+02  0.93154558428E+02  0.00000000000E+00 0.  1.
        -13    1    4    4    0    0 -0.64060612642E+01  0.40390986123E+02 -0.41726721118E+02  0.58425924350E+02  0.00000000000E+00 0.  1.
         13    1    4    4    0    0  0.59545042517E+02  0.24239972576E+02 -0.25908939385E+03  0.26694662831E+03  0.00000000000E+00 0. -1.
          1    1    1    2  501    0  0.11055145814E+02 -0.12464617748E+03  0.24131053552E+02  0.12744094144E+03  0.00000000000E+00 0. -1.
<scales pt_clust_5="13000.00000" pt_clust_6="13000.00000" pt_clust_7="13000.00000" pt_clust_8="13000.00000" pt_clust_9="116.16357"></scales>
<clustering>
<clus scale="   83.897">  5  6 -1 -1</clus>
<clus scale="   91.521">  7  8 -1 -1</clus>
<clus scale="  121.497">  2  5  1 -1</clus>
<clus scale="  116.164">  1  9  2 -1</clus>
<clus scale="  116.164">  1  5  2 -1</clus>
</clustering>
</event>
<event>
 9    1  0.1601012E-005  0.1362894E+03  0.7546771E-02  0.1218762E+00
          1   -1    0    0  502    0 -0.00000000000E+00  0.00000000000E+00  0.21092305362E+03  0.21092305362E+03  0.00000000000E+00 0. -1.
         21   -1    0    0  501  502  0.00000000000E+00 -0.00000000000E+00 -0.48595458283E+03  0.48595458283E+03  0.00000000000E+00 0.  1.
         23    2    1    2    0    0 -0.75817697893E+02 -0.92030100642E+02  0.13425894526E+03  0.20312543957E+03  0.94955869118E+02 0.  0.
         23    2    1    2    0    0  0.13313720197E+02  0.53135141794E+02 -0.37399534102E+02  0.11464477598E+03  0.93509898241E+02 0.  0.
        -11    1    3    3    0    0 -0.60274021834E+02 -0.14935537216E+01  0.47286779304E+02  0.76623938216E+02  0.00000000000E+00 0.  1.
         11    1    3    3    0    0 -0.15543676059E+02 -0.90536546920E+02  0.86972165957E+02  0.12650150135E+03  0.00000000000E+00 0. -1.
        -11    1    4    4    0    0 -0.17960139046E+02  0.70317608125E+02 -0.27538302424E+02  0.77624034341E+02  0.00000000000E+00 0.  1.
         11    1    4    4    0    0  0.31273859243E+02 -0.17182466331E+02 -0.98612316777E+01  0.37020741637E+02  0.00000000000E+00 0. -1.
          1    1    1    2  501    0  0.62503977696E+02  0.38894958848E+02 -0.37189094037E+03  0.37910742090E+03  0.00000000000E+00 0. -1.
<scales pt_clust_5="13000.00000" pt_clust_6="13000.00000" pt_clust_7="13000.00000" pt_clust_8="13000.00000" pt_clust_9="73.61770"></scales>
<clustering>
<clus scale="   73.618">  2  9  1 -1</clus>
<clus scale="   93.510">  7  8 -1 -1</clus>
<clus scale="   94.956">  5  6 -1 -1</clus>
<clus scale="  135.286">  2  7  1 -1</clus>
<clus scale="   73.618">  2  5  1 -1</clus>
</clustering>
</event>
<event>
 9    1  0.1601012E-005  0.1527131E+03  0.7546771E-02  0.1198757E+00
         21   -1    0    0  501  502  0.00000000000E+00  0.00000000000E+00  0.22482515703E+03  0.22482515703E+03  0.00000000000E+00 0. -1.
          1   -1    0    0  502    0 -0.00000000000E+00 -0.00000000000E+00 -0.32831511123E+03  0.32831511123E+03  0.00000000000E+00 0. -1.
         23    2    1    2    0    0  0.47438876263E+02  0.93350286475E+02 -0.18453669577E+03  0.23452221468E+03  0.99910730784E+02 0.  0.
         23    2    1    2    0    0 -0.11742509087E+03 -0.10196600966E+03 -0.33910089824E+02  0.18375748111E+03  0.91821558365E+02 0.  0.
        -13    1    4    4    0    0 -0.11864376143E+03 -0.65056087186E+02 -0.25893593416E+01  0.13533418411E+03  0.00000000000E+00 0. -1.
         13    1    4    4    0    0  0.12186705569E+01 -0.36909922476E+02 -0.31320730482E+02  0.48423297007E+02  0.00000000000E+00 0.  1.
        -13    1    3    3    0    0 -0.10761460585E+02  0.30918617729E+02 -0.17439507530E+01  0.32784315159E+02  0.00000000000E+00 0.  1.
         13    1    3    3    0    0  0.58200336848E+02  0.62431668745E+02 -0.18279274502E+03  0.20173789952E+03  0.00000000000E+00 0. -1.
          1    1    1    2  501    0  0.69986214608E+02  0.86157231872E+01  0.11495683140E+03  0.13486057247E+03  0.00000000000E+00 0. -1.
<scales pt_clust_5="13000.00000" pt_clust_6="13000.00000" pt_clust_7="13000.00000" pt_clust_8="13000.00000" pt_clust_9="70.51454"></scales>
<clustering>
<clus scale="   70.515">  1  9  2 -1</clus>
<clus scale="   91.822">  5  6 -1 -1</clus>
<clus scale="   99.911">  7  8 -1 -1</clus>
<clus scale="  147.548">  1  5  2 -1</clus>
<clus scale="   70.515">  1  5  2 -1</clus>
</clustering>
</event>
<event>
 9    1  0.1601012E-005  0.9848576E+02  0.7546771E-02  0.1283594E+00
         21   -1    0    0  501  502  0.00000000000E+00  0.00000000000E+00  0.11537381020E+03  0.11537381020E+03  0.00000000000E+00 0. -1.
          3   -1    0    0  502    0 -0.00000000000E+00 -0.00000000000E+00 -0.32821791282E+03  0.32821791282E+03  0.00000000000E+00 0. -1.
         23    2    1    2    0    0 -0.46692418166E+02  0.91167049191E+01 -0.24877770269E+03  0.26913999538E+03  0.91009315659E+02 0.  0.
         23    2    1    2    0    0 -0.22620607107E+00 -0.11505482652E+02 -0.27125157178E+02  0.95816681861E+02  0.91173653381E+02 0.  0.
        -11    1    4    4    0    0  0.39678787020E+02  0.12220611407E+02  0.10114131198E+01  0.41530379712E+02  0.00000000000E+00 0.  1.
         11    1    4    4    0    0 -0.39904993091E+02 -0.23726094058E+02 -0.28136570298E+02  0.54286302149E+02  0.00000000000E+00 0. -1.
        -13    1    3    3    0    0  0.24803938965E+01  0.33319793031E+02 -0.34752405361E+02  0.48208823258E+02  0.00000000000E+00 0.  1.
         13    1    3    3    0    0 -0.49172812062E+02 -0.24203088112E+02 -0.21402529733E+03  0.22093117212E+03  0.00000000000E+00 0. -1.
          3    1    1    2  501    0  0.46918624237E+02  0.23887777327E+01  0.63058757246E+02  0.78635045780E+02  0.00000000000E+00 0. -1.
<scales pt_clust_5="13000.00000" pt_clust_6="13000.00000" pt_clust_7="13000.00000" pt_clust_8="13000.00000" pt_clust_9="46.97940"></scales>
<clustering>
<clus scale="   46.979">  1  9  2 -1</clus>
<clus scale="   91.009">  7  8 -1 -1</clus>
<clus scale="   91.174">  5  6 -1 -1</clus>
<clus scale="   98.334">  2  7  1 -1</clus>
<clus scale="   46.979">  1  5  2 -1</clus>
</clustering>
</event>
<event>
 9    1  0.1601012E-005  0.1316626E+03  0.7546771E-02  0.1226338E+00
         21   -1    0    0  501  502  0.00000000000E+00  0.00000000000E+00  0.52857771378E+03  0.52857771378E+03  0.00000000000E+00 0.  1.
         -1   -1    0    0    0  501 -0.00000000000E+00 -0.00000000000E+00 -0.78506793088E+02  0.78506793088E+02  0.00000000000E+00 0.  1.
         23    2    1    2    0    0  0.94456119696E+02  0.69478295121E+02  0.34991359922E+02  0.15331600134E+03  0.92369957011E+02 0.  0.
         23    2    1    2    0    0 -0.43905702081E+02 -0.27978217280E+02  0.15283822455E+03  0.18349434915E+03  0.87178907819E+02 0.  0.
        -13    1    3    3    0    0  0.20194042761E+02  0.61186997146E+02 -0.11298409261E+02  0.65416374361E+02  0.00000000000E+00 0.  1.
         13    1    3    3    0    0  0.74262076935E+02  0.82912979750E+01  0.46289769183E+02  0.87899626983E+02  0.00000000000E+00 0. -1.
        -13    1    4    4    0    0 -0.57053987616E+02 -0.44519246409E+02  0.81028729769E+02  0.10864058105E+03  0.00000000000E+00 0. -1.
         13    1    4    4    0    0  0.13148285535E+02  0.16541029129E+02  0.71809494786E+02  0.74853768099E+02  0.00000000000E+00 0.  1.
         -1    1    1    2    0  502 -0.50550417615E+02 -0.41500077841E+02  0.26224133622E+03  0.27027415637E+03  0.00000000000E+00 0.  1.
<scales pt_clust_5="13000.00000" pt_clust_6="13000.00000" pt_clust_7="13000.00000" pt_clust_8="13000.00000" pt_clust_9="65.40337"></scales>
<clustering>
<clus scale="   65.403">  1  9  2 -1</clus>
<clus scale="   87.179">  7  8 -1 -1</clus>
<clus scale="   92.370">  5  6 -1 -1</clus>
<clus scale="  128.074">  1  7  2 -1</clus>
<clus scale="   65.403">  1  5  2 -1</clus>
</clustering>
</event>
<event>
 9    1  0.1601012E-005  0.1045432E+03  0.7546771E-02  0.1272306E+00
         21   -1    0    0  501  502  0.00000000000E+00  0.00000000000E+00  0.46424049969E+02  0.46424049969E+02  0.00000000000E+00 0. -1.
         -3   -1    0    0    0  501 -0.00000000000E+00 -0.00000000000E+00 -0.44182917357E+03  0.44182917357E+03  0.00000000000E+00 0.  1.
         23    2    1    2    0    0 -0.26971673478E+02  0.61718092338E+02 -0.26294070552E+03  0.28609190784E+03  0.90411122221E+02 0.  0.
         23    2    1    2    0    0 -0.56146153321E+00 -0.97487878174E+01 -0.77660271393E+02  0.12177240707E+03  0.93284764394E+02 0.  0.
        -11    1    4    4    0    0  0.72740680014E+01 -0.28736535681E+02 -0.92041746161E+02  0.96697381478E+02  0.00000000000E+00 0.  1.
         11    1    4    4    0    0 -0.78355295346E+01  0.18987747864E+02  0.14381474768E+02  0.25075025594E+02  0.00000000000E+00 0. -1.
        -13    1    3    3    0    0 -0.53640596543E+02  0.23771651590E+02 -0.19643935837E+03  0.20501421057E+03  0.00000000000E+00 0. -1.
         13    1    3    3    0    0  0.26668923065E+02  0.37946440749E+02 -0.66501347148E+02  0.81077697275E+02  0.00000000000E+00 0.  1.
         -3    1    1    2    0  502  0.27533135011E+02 -0.51969304521E+02 -0.54804146688E+02  0.80388908627E+02  0.00000000000E+00 0.  1.
<scales pt_clust_5="13000.00000" pt_clust_6="13000.00000" pt_clust_7="13000.00000" pt_clust_8="13000.00000" pt_clust_9="58.81226"></scales>
<clustering>
<clus scale="   58.812">  1  9  2 -1</clus>
<clus scale="   90.411">  7  8 -1 -1</clus>
<clus scale="   93.285">  5  6 -1 -1</clus>
<clus scale="  101.987">  2  7  1 -1</clus>
<clus scale="   58.812">  1  5  2 -1</clus>
</clustering>
</event>
<event>
 9    1  0.1601012E-005  0.1059550E+03  0.7546771E-02  0.1279942E+00
         21   -1    0    0  501  502  0.00000000000E+00  0.00000000000E+00  0.12108479004E+03  0.12108479004E+03  0.00000000000E+00 0. -1.
          1   -1    0    0  502    0 -0.00000000000E+00 -0.00000000000E+00 -0.17655355973E+03  0.17655355973E+03  0.00000000000E+00 0. -1.
         23    2    1    2    0    0 -0.23125338713E+02 -0.14090400131E+02 -0.10278105824E+03  0.14799801345E+03  0.10298614173E+03 0.  0.
         23    2    1    2    0    0  0.62969714012E+01  0.25583129968E+02 -0.12925904061E+02  0.86048539410E+02  0.80889577518E+02 0.  0.
        -11    1    3    3    0    0 -0.46268435788E+02 -0.87547498074E+01 -0.49771563065E+01  0.47351725199E+02  0.00000000000E+00 0.  1.
         11    1    3    3    0    0  0.23143097075E+02 -0.53356503240E+01 -0.97803901931E+02  0.10064628826E+03  0.00000000000E+00 0. -1.
        -11    1    4    4    0    0  0.25251891413E+02 -0.10007363454E+02 -0.31550157140E+02  0.41631931961E+02  0.00000000000E+00 0. -1.
         11    1    4    4    0    0 -0.18954920012E+02  0.35590493421E+02  0.18624253079E+02  0.44416607450E+02  0.00000000000E+00 0.  1.
          1    1    1    2  501    0  0.16828367311E+02 -0.11492729836E+02  0.60238192605E+02  0.63591796906E+02  0.00000000000E+00 0. -1.
<scales pt_clust_5="13000.00000" pt_clust_6="13000.00000" pt_clust_7="13000.00000" pt_clust_8="13000.00000" pt_clust_9="20.37834"></scales>
<clustering>
<clus scale="   20.378">  1  9  2 -1</clus>
<clus scale="   80.890">  7  8 -1 -1</clus>
<clus scale="   84.637">  1  7  2 -1</clus>
<clus scale="  102.986">  5  6 -1 -1</clus>
<clus scale="   20.378">  1  5  2 -1</clus>
</clustering>
</event>
<event>
 9    1  0.1601012E-005  0.9875889E+02  0.7546771E-02  0.1284260E+00
          1   -1    0    0  502    0 -0.00000000000E+00  0.00000000000E+00  0.78857690054E+02  0.78857690054E+02  0.00000000000E+00 0. -1.
         21   -1    0    0  501  502  0.00000000000E+00 -0.00000000000E+00 -0.29843460767E+03  0.29843460767E+03  0.00000000000E+00 0.  1.
         23    2    1    2    0    0  0.11567325200E+02  0.56814808990E+01 -0.25066419377E+02  0.93171213954E+02  0.88805785239E+02 0.  0.
         23    2    1    2    0    0 -0.56394984814E+02 -0.54664750625E+02 -0.61232282877E+02  0.13521855703E+03  0.91466039739E+02 0.  0.
        -11    1    4    4    0    0 -0.41697564178E+02 -0.39566728555E+02 -0.85533741830E+02  0.10305451886E+03  0.00000000000E+00 0.  1.
         11    1    4    4    0    0 -0.14697420636E+02 -0.15098022070E+02  0.24301458953E+02  0.32164038164E+02  0.00000000000E+00 0. -1.
        -13    1    3    3    0    0  0.98232229890E+01  0.46930253183E+02 -0.85461098767E+01  0.48702981097E+02  0.00000000000E+00 0. -1.
         13    1    3    3    0    0  0.17441022114E+01 -0.41248772284E+02 -0.16520309500E+02  0.44468232857E+02  0.00000000000E+00 0.  1.
          1    1    1    2  501    0  0.44827659614E+02  0.48983269726E+02 -0.13327821536E+03  0.14890252674E+03  0.00000000000E+00 0. -1.
<scales pt_clust_5="13000.00000" pt_clust_6="13000.00000" pt_clust_7="13000.00000" pt_clust_8="13000.00000" pt_clust_9="66.39940"></scales>
<clustering>
<clus scale="   66.399">  2  9  1 -1</clus>
<clus scale="   88.806">  7  8 -1 -1</clus>
<clus scale="   91.466">  5  6 -1 -1</clus>
<clus scale="   96.300">  1  7  2 -1</clus>
<clus scale="   66.399">  2  5  1 -1</clus>
</clustering>
</event>
<event>
 9    1  0.1601012E-005  0.1264200E+03  0.7546771E-02  0.1233584E+00
         21   -1    0    0  501  502  0.00000000000E+00  0.00000000000E+00  0.34027500579E+03  0.34027500579E+03  0.00000000000E+00 0.  1.
          3   -1    0    0  502    0 -0.00000000000E+00 -0.00000000000E+00 -0.15402284575E+03  0.15402284575E+03  0.00000000000E+00 0. -1.
         23    2    1    2    0    0  0.69699559022E+02  0.49565508978E+02 -0.80311999861E+02  0.14778498451E+03  0.89864431884E+02 0.  0.
         23    2    1    2    0    0 -0.85803750444E+02 -0.30830019525E+02  0.68248468828E+02  0.14666423212E+03  0.92410874859E+02 0.  0.
        -11    1    4    4    0    0 -0.63323353681E+02 -0.63311086045E+02  0.54566502446E+02  0.10486011600E+03  0.00000000000E+00 0.  1.
         11    1    4    4    0    0 -0.22480396763E+02  0.32481066520E+02  0.13681966382E+02  0.41804116125E+02  0.00000000000E+00 0. -1.
        -11    1    3    3    0    0  0.43481092894E+02 -0.13545985945E+02 -0.62189753903E+02  0.77082194215E+02  0.00000000000E+00 0. -1.
         11    1    3    3    0    0  0.26218466128E+02  0.63111494923E+02 -0.18122245958E+02  0.70702790299E+02  0.00000000000E+00 0.  1.
          3    1    1    2  501    0  0.16104191421E+02 -0.18735489453E+02  0.19831569108E+03  0.19984863491E+03  0.00000000000E+00 0. -1.
<scales pt_clust_5="13000.00000" pt_clust_6="13000.00000" pt_clust_7="13000.00000" pt_clust_8="13000.00000" pt_clust_9="24.70554"></scales>
<clustering>
<clus scale="   24.706">  1  9  2 -1</clus>
<clus scale="   89.864">  7  8 -1 -1</clus>
<clus scale="   92.411">  5  6 -1 -1</clus>
<clus scale="  124.571">  2  7  1 -1</clus>
<clus scale="   24.706">  1  5  2 -1</clus>
</clustering>
</event>
<event>
 9    1  0.1601012E-005  0.2620180E+03  0.7546771E-02  0.1106075E+00
         21   -1    0    0  501  502  0.00000000000E+00  0.00000000000E+00  0.28919713400E+03  0.28919713400E+03  0.00000000000E+00 0. -1.
          2   -1    0    0  502    0 -0.00000000000E+00 -0.00000000000E+00 -0.30271050207E+03  0.30271050207E+03  0.00000000000E+00 0. -1.
         23    2    1    2    0    0  0.23056409488E+03  0.30690115222E+02 -0.74361390960E+02  0.25936331731E+03  0.87395817305E+02 0.  0.
         23    2    1    2    0    0 -0.26845888394E+03 -0.42468844897E+02  0.61387053703E+02  0.29285749393E+03  0.90129718931E+02 0.  0.
        -11    1    4    4    0    0 -0.24329792554E+03 -0.20079909593E+02  0.76656967773E+02  0.25587765446E+03  0.00000000000E+00 0. -1.
         11    1    4    4    0    0 -0.25160958395E+02 -0.22388935303E+02 -0.15269914071E+02  0.36979839468E+02  0.00000000000E+00 0.  1.
        -13    1    3    3    0    0  0.20282296144E+03 -0.53785839340E+01 -0.63231221948E+02  0.21251887041E+03  0.00000000000E+00 0. -1.
         13    1    3    3    0    0  0.27741133442E+02  0.36068699156E+02 -0.11130169012E+02  0.46844446903E+02  0.00000000000E+00 0.  1.
          2    1    1    2  501    0  0.37894789057E+02  0.11778729675E+02 -0.53903081309E+00  0.39686824825E+02  0.00000000000E+00 0. -1.
<scales pt_clust_5="13000.00000" pt_clust_6="13000.00000" pt_clust_7="13000.00000" pt_clust_8="13000.00000" pt_clust_9="39.68316"></scales>
<clustering>
<clus scale="   39.683">  1  9  2 -1</clus>
<clus scale="   87.396">  7  8 -1 -1</clus>
<clus scale="   90.130">  5  6 -1 -1</clus>
<clus scale="  261.090">  2  7  1 -1</clus>
<clus scale="   39.683">  1  5  2 -1</clus>
</clustering>
</event>
<event>
 9    1  0.1601012E-005  0.1059991E+03  0.7546771E-02  0.1269321E+00
         21   -1    0    0  501  502  0.00000000000E+00  0.00000000000E+00  0.37246080807E+03  0.37246080807E+03  0.00000000000E+00 0.  1.
         -1   -1    0    0    0  501 -0.00000000000E+00 -0.00000000000E+00 -0.82913033712E+02  0.82913033712E+02  0.00000000000E+00 0.  1.
         23    2    1    2    0    0  0.24088477199E+02  0.42228425963E+02 -0.22634747254E+01  0.10477152896E+03  0.92781761520E+02 0.  0.
         23    2    1    2    0    0 -0.21740281786E+02 -0.64986585784E+02  0.30420663698E+03  0.32458129245E+03  0.90085743821E+02 0.  0.
        -13    1    3    3    0    0  0.56358583570E+02  0.27633335378E+02 -0.19024827478E+02  0.65588377222E+02  0.00000000000E+00 0.  1.
         13    1    3    3    0    0 -0.32270106371E+02  0.14595090584E+02  0.16761352753E+02  0.39183151742E+02  0.00000000000E+00 0. -1.
        -13    1    4    4    0    0  0.14504809253E+02 -0.59334460060E+02  0.26028359501E+03  0.26735466608E+03  0.00000000000E+00 0.  1.
         13    1    4    4    0    0 -0.36245091040E+02 -0.56521257240E+01  0.43923041969E+02  0.57226626368E+02  0.00000000000E+00 0. -1.
         -1    1    1    2    0  502 -0.23481954128E+01  0.22758159821E+02 -0.12395387895E+02  0.26021020372E+02  0.00000000000E+00 0.  1.
<scales pt_clust_5="13000.00000" pt_clust_6="13000.00000" pt_clust_7="13000.00000" pt_clust_8="13000.00000" pt_clust_9="22.87899"></scales>
<clustering>
<clus scale="   22.879">  1  9  2 -1</clus>
<clus scale="   90.086">  7  8 -1 -1</clus>
<clus scale="   92.782">  5  6 -1 -1</clus>
<clus scale="  103.647">  1  7  2 -1</clus>
<clus scale="   22.879">  1  5  2 -1</clus>
</clustering>
</event>
<event>
 9    1  0.1601012E-005  0.9255627E+02  0.7546771E-02  0.1310951E+00
          3   -1    0    0  502    0 -0.00000000000E+00  0.00000000000E+00  0.45981480938E+03  0.45981480938E+03  0.00000000000E+00 0. -1.
         21   -1    0    0  501  502  0.00000000000E+00 -0.00000000000E+00 -0.28221040895E+02  0.28221040895E+02  0.00000000000E+00 0.  1.
         23    2    1    2    0    0 -0.17326664447E+01  0.10764038905E+02  0.31045836597E+03  0.31867114120E+03  0.71049507847E+02 0.  0.
         23    2    1    2    0    0 -0.40544755484E+01  0.84601562268E+01  0.11619693651E+03  0.14868986597E+03  0.92298077836E+02 0.  0.
        -11    1    4    4    0    0  0.36672278310E+02  0.72638229804E+01  0.96390710636E+02  0.10338659593E+03  0.00000000000E+00 0. -1.
         11    1    4    4    0    0 -0.40726753859E+02  0.11963332463E+01  0.19806225877E+02  0.45303270043E+02  0.00000000000E+00 0.  1.
        -11    1    3    3    0    0 -0.34148943337E+02 -0.60515278997E+01  0.12941035524E+03  0.13397690609E+03  0.00000000000E+00 0.  1.
         11    1    3    3    0    0  0.32416276893E+02  0.16815566805E+02  0.18104801073E+03  0.18469423511E+03  0.00000000000E+00 0. -1.
          3    1    1    2  501    0  0.57871419931E+01 -0.19224195132E+02  0.49384659998E+01  0.20674843103E+02  0.00000000000E+00 0. -1.
<scales pt_clust_5="13000.00000" pt_clust_6="13000.00000" pt_clust_7="13000.00000" pt_clust_8="13000.00000" pt_clust_9="20.07637"></scales>
<clustering>
<clus scale="   20.076">  2  9  1 -1</clus>
<clus scale="   71.050">  7  8 -1 -1</clus>
<clus scale="   71.385">  1  7  2 -1</clus>
<clus scale="   92.298">  5  6 -1 -1</clus>
<clus scale="   20.076">  2  5  1 -1</clus>
</clustering>
</event>
<event>
 9    1  0.1601012E-005  0.1805995E+03  0.7546771E-02  0.1169990E+00
         21   -1    0    0  501  502  0.00000000000E+00  0.00000000000E+00  0.32730836152E+03  0.32730836152E+03  0.00000000000E+00 0. -1.
          1   -1    0    0  502    0 -0.00000000000E+00 -0.00000000000E+00 -0.11525378912E+03  0.11525378912E+03  0.00000000000E+00 0. -1.
         23    2    1    2    0    0  0.95865436523E+01  0.12929045170E+03  0.10015893802E+03  0.19772864199E+03  0.11071079567E+03 0.  0.
         23    2    1    2    0    0  0.15083167586E+02 -0.15595205713E+03  0.92537797162E+02  0.20367331284E+03  0.91493324310E+02 0.  0.
        -11    1    4    4    0    0 -0.26174604741E+02 -0.60935149245E+02  0.72332254575E+02  0.98133365370E+02  0.00000000000E+00 0.  1.
         11    1    4    4    0    0  0.41257772328E+02 -0.95016907883E+02  0.20205542587E+02  0.10553994747E+03  0.00000000000E+00 0. -1.
        -11    1    3    3    0    0  0.19217364573E+01  0.14911572266E+03  0.85374376014E+02  0.17183706205E+03  0.00000000000E+00 0. -1.
         11    1    3    3    0    0  0.76648071950E+01 -0.19825270960E+02  0.14784562005E+02  0.25891579938E+02  0.00000000000E+00 0.  1.
          1    1    1    2  501    0 -0.24669711239E+02  0.26661605432E+02  0.19357837222E+02  0.41160195805E+02  0.00000000000E+00 0. -1.
<scales pt_clust_5="13000.00000" pt_clust_6="13000.00000" pt_clust_7="13000.00000" pt_clust_8="13000.00000" pt_clust_9="36.32406"></scales>
<clustering>
<clus scale="   36.324">  1  9  2 -1</clus>
<clus scale="   91.493">  5  6 -1 -1</clus>
<clus scale="  110.711">  7  8 -1 -1</clus>
<clus scale="  169.500">  1  5  2 -1</clus>
<clus scale="   36.324">  1  5  2 -1</clus>
</clustering>
</event>
<event>
 9    1  0.1601012E-005  0.1054280E+03  0.7546771E-02  0.1270220E+00
          1   -1    0    0  502    0 -0.00000000000E+00  0.00000000000E+00  0.39875385651E+03  0.39875385651E+03  0.00000000000E+00 0. -1.
         21   -1    0    0  501  502  0.00000000000E+00 -0.00000000000E+00 -0.11354490568E+03  0.11354490568E+03  0.00000000000E+00 0. -1.
         23    2    1    2    0    0  0.47255513744E+02 -0.21126137841E+02  0.25577465650E+03  0.27479355451E+03  0.86089635926E+02 0.  0.
         23    2    1    2    0    0 -0.97614610358E+02  0.85108859047E+02  0.20847582830E+02  0.15562994378E+03  0.83749194906E+02 0.  0.
        -13    1    4    4    0    0 -0.88779483596E+02  0.24342868182E+02  0.20076595800E+02  0.94220176383E+02  0.00000000000E+00 0.  1.
         13    1    4    4    0    0 -0.88351267628E+01  0.60765990865E+02  0.77098703064E+00  0.61409767397E+02  0.00000000000E+00 0. -1.
        -13    1    3    3    0    0  0.62106221426E+02  0.75276092284E+01  0.20748867211E+03  0.21671501262E+03  0.00000000000E+00 0.  1.
         13    1    3    3    0    0 -0.14850707682E+02 -0.28653747069E+02  0.48285984386E+02  0.58078541888E+02  0.00000000000E+00 0. -1.
          1    1    1    2  501    0  0.50359096614E+02 -0.63982721207E+02  0.85867114983E+01  0.81875263903E+02  0.00000000000E+00 0. -1.
<scales pt_clust_5="13000.00000" pt_clust_6="13000.00000" pt_clust_7="13000.00000" pt_clust_8="13000.00000" pt_clust_9="81.42375"></scales>
<clustering>
<clus scale="   81.424">  2  9  1 -1</clus>
<clus scale="   83.749">  5  6 -1 -1</clus>
<clus scale="   86.090">  7  8 -1 -1</clus>
<clus scale="  103.526">  2  5  1 -1</clus>
<clus scale="   81.424">  2  5  1 -1</clus>
</clustering>
</event>
<event>
 9    1  0.1601012E-005  0.1851240E+03  0.7546771E-02  0.1163053E+00
         21   -1    0    0  501  502  0.00000000000E+00  0.00000000000E+00  0.22458381664E+03  0.22458381664E+03  0.00000000000E+00 0. -1.
          2   -1    0    0  502    0 -0.00000000000E+00 -0.00000000000E+00 -0.27824130344E+03  0.27824130344E+03  0.00000000000E+00 0. -1.
         23    2    1    2    0    0 -0.10412452168E+03  0.11902857556E+03 -0.15930838102E+03  0.24178631355E+03  0.89842881410E+02 0.  0.
         23    2    1    2    0    0  0.92576354918E+02 -0.14562327699E+03  0.54930050374E+02  0.20261584614E+03  0.90880968206E+02 0.  0.
        -11    1    4    4    0    0  0.21855493596E+02 -0.12970851991E+02 -0.22120540260E+02  0.33693083905E+02  0.00000000000E+00 0.  1.
         11    1    4    4    0    0  0.70720861323E+02 -0.13265242500E+03  0.77050590634E+02  0.16892276224E+03  0.00000000000E+00 0. -1.
        -13    1    3    3    0    0  0.31081831822E+01  0.22783686011E+02  0.47030658494E+01  0.23470747311E+02  0.00000000000E+00 0.  1.
         13    1    3    3    0    0 -0.10723270486E+03  0.96244889553E+02 -0.16401144687E+03  0.21831556624E+03  0.00000000000E+00 0. -1.
          2    1    1    2  501    0  0.11548166761E+02  0.26594701425E+02  0.50720843850E+02  0.58422960386E+02  0.00000000000E+00 0. -1.
<scales pt_clust_5="13000.00000" pt_clust_6="13000.00000" pt_clust_7="13000.00000" pt_clust_8="13000.00000" pt_clust_9="28.99376"></scales>
<clustering>
<clus scale="   28.994">  1  9  2 -1</clus>
<clus scale="   89.843">  7  8 -1 -1</clus>
<clus scale="   90.881">  5  6 -1 -1</clus>
<clus scale="  184.617">  2  7  1 -1</clus>
<clus scale="   28.994">  1  5  2 -1</clus>
</clustering>
</event>
<event>
 9    1  0.1601012E-005  0.1101713E+03  0.7546771E-02  0.1266547E+00
         -3   -1    0    0    0  501 -0.00000000000E+00  0.00000000000E+00  0.71779683788E+03  0.71779683788E+03  0.00000000000E+00 0.  1.
         21   -1    0    0  501  502  0.00000000000E+00 -0.00000000000E+00 -0.31510003199E+02  0.31510003199E+02  0.00000000000E+00 0.  1.
         23    2    1    2    0    0  0.29694730474E+02 -0.17119526939E+02  0.40965296651E+03  0.42413648434E+03  0.10440952617E+03 0.  0.
         23    2    1    2    0    0 -0.18791548179E+02  0.34270273381E+02  0.28612816352E+03  0.30273892496E+03  0.90851289498E+02 0.  0.
        -11    1    4    4    0    0 -0.50406963988E+02  0.42657493059E+02  0.18313157821E+03  0.19467331268E+03  0.00000000000E+00 0. -1.
         11    1    4    4    0    0  0.31615415809E+02 -0.83872196783E+01  0.10299658532E+03  0.10806561228E+03  0.00000000000E+00 0.  1.
        -13    1    3    3    0    0  0.60813022464E+02  0.16010434634E+02  0.20177306959E+03  0.21134552120E+03  0.00000000000E+00 0.  1.
         13    1    3    3    0    0 -0.31118291989E+02 -0.33129961574E+02  0.20787989692E+03  0.21279096314E+03  0.00000000000E+00 0. -1.
         -3    1    1    2    0  502 -0.10903182295E+02 -0.17150746441E+02 -0.94942953530E+01  0.22431431784E+02  0.00000000000E+00 0.  1.
<scales pt_clust_5="13000.00000" pt_clust_6="13000.00000" pt_clust_7="13000.00000" pt_clust_8="13000.00000" pt_clust_9="20.32308"></scales>
<clustering>
<clus scale="   20.323">  2  9  1 -1</clus>
<clus scale="   90.851">  5  6 -1 -1</clus>
<clus scale="   97.418">  2  5  1 -1</clus>
<clus scale="  104.410">  7  8 -1 -1</clus>
<clus scale="   20.323">  2  5  1 -1</clus>
</clustering>
</event>
<event>
 9    1  0.1601012E-005  0.1038932E+03  0.7546771E-02  0.1278269E+00
         21   -1    0    0  501  502  0.00000000000E+00  0.00000000000E+00  0.52925907973E+03  0.52925907973E+03  0.00000000000E+00 0. -1.
          1   -1    0    0  502    0 -0.00000000000E+00 -0.00000000000E+00 -0.79410744451E+02  0.79410744451E+02  0.00000000000E+00 0. -1.
         23    2    1    2    0    0  0.36934844314E+02  0.18245731865E+02  0.19706349053E+02  0.10194850059E+03  0.91148599131E+02 0.  0.
         23    2    1    2    0    0  0.11826204051E+02  0.44081030955E+01  0.36703319376E+02  0.10962584307E+03  0.10252512541E+03 0.  0.
        -13    1    3    3    0    0  0.16704437994E+02  0.23485237232E+02  0.54333558574E+02  0.61503903972E+02  0.00000000000E+00 0.  1.
         13    1    3    3    0    0  0.20230406320E+02 -0.52395053672E+01 -0.34627209520E+02  0.40444596617E+02  0.00000000000E+00 0. -1.
        -13    1    4    4    0    0 -0.33272647942E+02 -0.29405316008E+02  0.28248550067E+02  0.52628151131E+02  0.00000000000E+00 0.  1.
         13    1    4    4    0    0  0.45098851993E+02  0.33813419104E+02  0.84547693090E+01  0.56997691941E+02  0.00000000000E+00 0. -1.
          1    1    1    2  501    0 -0.48761048364E+02 -0.22653834961E+02  0.39343866685E+03  0.39709548052E+03  0.00000000000E+00 0. -1.
<scales pt_clust_5="13000.00000" pt_clust_6="13000.00000" pt_clust_7="13000.00000" pt_clust_8="13000.00000" pt_clust_9="53.76650"></scales>
<clustering>
<clus scale="   53.766">  1  9  2 -1</clus>
<clus scale="   91.149">  5  6 -1 -1</clus>
<clus scale="   92.685">  2  5  1 -1</clus>
<clus scale="  102.525">  7  8 -1 -1</clus>
<clus scale="   53.766">  1  5  2 -1</clus>
</clustering>
</event>
<event>
 9    1  0.1601012E-005  0.9800373E+02  0.7546771E-02  0.1286642E+00
         21   -1    0    0  501  502  0.00000000000E+00  0.00000000000E+00  0.22918349374E+03  0.22918349374E+03  0.00000000000E+00 0. -1.
         -3   -1    0    0    0  501 -0.00000000000E+00 -0.00000000000E+00 -0.11050125101E+03  0.11050125101E+03  0.00000000000E+00 0.  1.
         23    2    1    2    0    0 -0.16861699237E+02  0.36087298084E+02 -0.57519938296E+02  0.11273902892E+03  0.88402123035E+02 0.  0.
         23    2    1    2    0    0  0.38432983199E+02 -0.38007279483E+02  0.79314291053E+02  0.12766696763E+03  0.84181057053E+02 0.  0.
        -11    1    3    3    0    0 -0.10587551363E+02  0.62446245379E+02 -0.57646819115E+02  0.85643362614E+02  0.00000000000E+00 0.  1.
         11    1    3    3    0    0 -0.62741478735E+01 -0.26358947295E+02  0.12688081934E+00  0.27095666310E+02  0.00000000000E+00 0. -1.
        -13    1    4    4    0    0 -0.18701052834E+02  0.12056795254E+02  0.85144883226E+01  0.23824193592E+02  0.00000000000E+00 0.  1.
         13    1    4    4    0    0  0.57134036033E+02 -0.50064074737E+02  0.70799802730E+02  0.10384277404E+03  0.00000000000E+00 0. -1.
         -3    1    1    2    0  502 -0.21571283962E+02  0.19199813986E+01  0.96887889976E+02  0.99278748201E+02  0.00000000000E+00 0.  1.
<scales pt_clust_5="13000.00000" pt_clust_6="13000.00000" pt_clust_7="13000.00000" pt_clust_8="13000.00000" pt_clust_9="21.65656"></scales>
<clustering>
<clus scale="   21.657">  1  9  2 -1</clus>
<clus scale="   84.181">  7  8 -1 -1</clus>
<clus scale="   88.402">  5  6 -1 -1</clus>
<clus scale="   94.214">  1  7  2 -1</clus>
<clus scale="   21.657">  1  5  2 -1</clus>
</clustering>
</event>
<event>
 9    1  0.1601012E-005  0.9401196E+02  0.7546771E-02  0.1294635E+00
         21   -1    0    0  501  502  0.00000000000E+00  0.00000000000E+00  0.10332242487E+03  0.10332242487E+03  0.00000000000E+00 0. -1.
         -3   -1    0    0    0  501 -0.00000000000E+00 -0.00000000000E+00 -0.17363790669E+03  0.17363790669E+03  0.00000000000E+00 0.  1.
         23    2    1    2    0    0 -0.54091248275E+01 -0.11019503234E+02 -0.10170630578E+03  0.13755905504E+03  0.91802139979E+02 0.  0.
         23    2    1    2    0    0 -0.14444318972E+02 -0.13866132326E+02  0.19527761736E+01  0.96041701513E+02  0.93911059617E+02 0.  0.
        -13    1    3    3    0    0  0.36058698091E+02 -0.12245185213E+02 -0.84427887164E+02  0.92618801547E+02  0.00000000000E+00 0.  1.
         13    1    3    3    0    0 -0.41467822918E+02  0.12256819783E+01 -0.17278418611E+02  0.44940253488E+02  0.00000000000E+00 0. -1.
        -13    1    4    4    0    0  0.74782175712E+01 -0.31007997659E+02 -0.36565189082E+02  0.48522496942E+02  0.00000000000E+00 0.  1.
         13    1    4    4    0    0 -0.21922536544E+02  0.17141865332E+02  0.38517965256E+02  0.47519204571E+02  0.00000000000E+00 0. -1.
         -3    1    1    2    0  502  0.19853443800E+02  0.24885635561E+02  0.29438047781E+02  0.43359575011E+02  0.00000000000E+00 0.  1.
<scales pt_clust_5="13000.00000" pt_clust_6="13000.00000" pt_clust_7="13000.00000" pt_clust_8="13000.00000" pt_clust_9="31.83479"></scales>
<clustering>
<clus scale="   31.835">  1  9  2 -1</clus>
<clus scale="   91.802">  5  6 -1 -1</clus>
<clus scale="   91.905">  2  5  1 -1</clus>
<clus scale="   93.911">  7  8 -1 -1</clus>
<clus scale="   31.835">  1  5  2 -1</clus>
</clustering>
</event>
<event>
 9    1  0.1601012E-005  0.1098942E+03  0.7546771E-02  0.1261242E+00
         21   -1    0    0  501  502  0.00000000000E+00  0.00000000000E+00  0.37055823009E+03  0.37055823009E+03  0.00000000000E+00 0. -1.
         -3   -1    0    0    0  501 -0.00000000000E+00 -0.00000000000E+00 -0.89009132008E+02  0.89009132008E+02  0.00000000000E+00 0.  1.
         23    2    1    2    0    0  0.54344658435E+02 -0.20902122116E+02 -0.24962138294E+02  0.11200847920E+03  0.92371805525E+02 0.  0.
         23    2    1    2    0    0 -0.66941614745E+02  0.30880566033E+01  0.14176735692E+03  0.18137654311E+03  0.91152350623E+02 0.  0.
        -11    1    3    3    0    0 -0.16221579279E+02 -0.33761589565E+02 -0.79738139425E+01  0.38295773566E+02  0.00000000000E+00 0. -1.
         11    1    3    3    0    0  0.70566237714E+02  0.12859467448E+02 -0.16988324351E+02  0.73712705638E+02  0.00000000000E+00 0.  1.
        -13    1    4    4    0    0 -0.58842914355E+02  0.40693942888E+02  0.11127154810E+03  0.13228697205E+03  0.00000000000E+00 0.  1.
         13    1    4    4    0    0 -0.80987003901E+01 -0.37605886285E+02  0.30495808821E+02  0.49089571060E+02  0.00000000000E+00 0. -1.
         -3    1    1    2    0  502  0.12596956310E+02  0.17814065513E+02  0.16474387945E+03  0.16618233978E+03  0.00000000000E+00 0.  1.
<scales pt_clust_5="13000.00000" pt_clust_6="13000.00000" pt_clust_7="13000.00000" pt_clust_8="13000.00000" pt_clust_9="21.81798"></scales>
<clustering>
<clus scale="   21.818">  1  9  2 -1</clus>
<clus scale="   91.152">  7  8 -1 -1</clus>
<clus scale="   92.372">  5  6 -1 -1</clus>
<clus scale="  108.871">  1  7  2 -1</clus>
<clus scale="   21.818">  1  5  2 -1</clus>
</clustering>
</event>
<event>
 9    1  0.1601012E-005  0.1432944E+03  0.7546771E-02  0.1209462E+00
         21   -1    0    0  501  502  0.00000000000E+00  0.00000000000E+00  0.20723150791E+03  0.20723150791E+03  0.00000000000E+00 0. -1.
          3   -1    0    0  502    0 -0.00000000000E+00 -0.00000000000E+00 -0.20495702784E+03  0.20495702784E+03  0.00000000000E+00 0. -1.
         23    2    1    2    0    0 -0.21391651019E+02  0.10651902474E+03 -0.52639146442E+02  0.15231460737E+03  0.92870633226E+02 0.  0.
         23    2    1    2    0    0  0.10433227862E+03 -0.77360164934E+02  0.41712179746E+01  0.15836442716E+03  0.90510072641E+02 0.  0.
        -11    1    3    3    0    0  0.19823547788E+02  0.33886252933E+02  0.17759843760E+02  0.43089015249E+02  0.00000000000E+00 0.  1.
         11    1    3    3    0    0 -0.41215198807E+02  0.72632771806E+02 -0.70398990202E+02  0.10922559212E+03  0.00000000000E+00 0. -1.
        -13    1    4    4    0    0  0.20097676586E+02 -0.68167929588E+02  0.15889004681E+02  0.72823373296E+02  0.00000000000E+00 0. -1.
         13    1    4    4    0    0  0.84234602039E+02 -0.91922353464E+01 -0.11717786706E+02  0.85541053866E+02  0.00000000000E+00 0.  1.
          3    1    1    2  501    0 -0.82940627606E+02 -0.29158859805E+02  0.50742408543E+02  0.10150950122E+03  0.00000000000E+00 0. -1.
<scales pt_clust_5="13000.00000" pt_clust_6="13000.00000" pt_clust_7="13000.00000" pt_clust_8="13000.00000" pt_clust_9="87.91693"></scales>
<clustering>
<clus scale="   87.917">  1  9  2 -1</clus>
<clus scale="   90.510">  7  8 -1 -1</clus>
<clus scale="   92.871">  5  6 -1 -1</clus>
<clus scale="  141.776">  1  7  2 -1</clus>
<clus scale="   87.917">  1  5  2 -1</clus>
</clustering>
</event>
<event>
 9    1  0.1601012E-005  0.2472215E+03  0.7546771E-02  0.1115374E+00
          2   -1    0    0  502    0 -0.00000000000E+00  0.00000000000E+00  0.10693735892E+04  0.10693735892E+04  0.00000000000E+00 0. -1.
         21   -1    0    0  501  502  0.00000000000E+00 -0.00000000000E+00 -0.87446198154E+02  0.87446198154E+02  0.00000000000E+00 0.  1.
         23    2    1    2    0    0 -0.19754941639E+03  0.85409366081E+02  0.61513214405E+03  0.65792798912E+03  0.90339097231E+02 0.  0.
         23    2    1    2    0    0  0.23523339043E+03 -0.12679213515E+03  0.32343196595E+03  0.42808932922E+03  0.85095497431E+02 0.  0.
        -11    1    4    4    0    0  0.36353783619E+02  0.10951707004E+02  0.53624379046E+02  0.65704729645E+02  0.00000000000E+00 0. -1.
         11    1    4    4    0    0  0.19887960681E+03 -0.13774384215E+03  0.26980758691E+03  0.36238459957E+03  0.00000000000E+00 0.  1.
        -13    1    3    3    0    0 -0.63515365161E+02 -0.19945591234E+01  0.27192865492E+03  0.27925503262E+03  0.00000000000E+00 0.  1.
         13    1    3    3    0    0 -0.13403405123E+03  0.87403925204E+02  0.34320348914E+03  0.37867295650E+03  0.00000000000E+00 0. -1.
          2    1    1    2  501    0 -0.37683974038E+02  0.41382769065E+02  0.43363281016E+02  0.70802468991E+02  0.00000000000E+00 0. -1.
<scales pt_clust_5="13000.00000" pt_clust_6="13000.00000" pt_clust_7="13000.00000" pt_clust_8="13000.00000" pt_clust_9="55.96977"></scales>
<clustering>
<clus scale="   55.970">  2  9  1 -1</clus>
<clus scale="   85.095">  5  6 -1 -1</clus>
<clus scale="   90.339">  7  8 -1 -1</clus>
<clus scale="  245.354">  2  5  1 -1</clus>
<clus scale="   55.970">  2  5  1 -1</clus>
</clustering>
</event>
<event>
 9    1  0.1601012E-005  0.1211200E+03  0.7546771E-02  0.1249009E+00
          1   -1    0    0  502    0 -0.00000000000E+00  0.00000000000E+00  0.59785026908E+03  0.59785026908E+03  0.00000000000E+00 0. -1.
         21   -1    0    0  501  502  0.00000000000E+00 -0.00000000000E+00 -0.19074475056E+03  0.19074475056E+03  0.00000000000E+00 0. -1.
         23    2    1    2    0    0 -0.14097571209E+02 -0.23032197367E+02  0.44483098119E+03  0.46073000568E+03  0.11691155921E+03 0.  0.
         23    2    1    2    0    0 -0.74629025249E+02  0.76556606927E+02  0.84656354696E+02  0.16750734947E+03  0.97270798619E+02 0.  0.
        -13    1    3    3    0    0  0.25311025799E+02  0.36042340317E+02  0.23818999602E+03  0.24222752223E+03  0.00000000000E+00 0.  1.
         13    1    3    3    0    0 -0.39408597008E+02 -0.59074537684E+02  0.20664098517E+03  0.21850248345E+03  0.00000000000E+00 0. -1.
        -13    1    4    4    0    0  0.14161190024E+02  0.35992451078E+02  0.59298615678E+00  0.38682650763E+02  0.00000000000E+00 0.  1.
         13    1    4    4    0    0 -0.88790215273E+02  0.40564155849E+02  0.84063368540E+02  0.12882469871E+03  0.00000000000E+00 0. -1.
          1    1    1    2  501    0  0.88726596458E+02 -0.53524409560E+02 -0.12238181737E+03  0.16035766449E+03  0.00000000000E+00 0. -1.
<scales pt_clust_5="13000.00000" pt_clust_6="13000.00000" pt_clust_7="13000.00000" pt_clust_8="13000.00000" pt_clust_9="103.62081"></scales>
<clustering>
<clus scale="   97.271">  7  8 -1 -1</clus>
<clus scale="  103.621">  2  9  1 -1</clus>
<clus scale="  103.621">  2  7  1 -1</clus>
<clus scale="  116.912">  5  6 -1 -1</clus>
<clus scale="  103.621">  2  5  1 -1</clus>
</clustering>
</event>
<event>
 9    1  0.1601012E-005  0.1393302E+03  0.7546771E-02  0.1214639E+00
         -2   -1    0    0    0  501 -0.00000000000E+00  0.00000000000E+00  0.89858035141E+03  0.89858035141E+03  0.00000000000E+00 0.  1.
         21   -1    0    0  501  502  0.00000000000E+00 -0.00000000000E+00 -0.40591641700E+02  0.40591641700E+02  0.00000000000E+00 0.  1.
         23    2    1    2    0    0  0.69599383546E+02 -0.90770741004E+01  0.25747585884E+03  0.28177366300E+03  0.90421854716E+02 0.  0.
         23    2    1    2    0    0 -0.14354804744E+03 -0.50272203241E+01  0.51941268337E+03  0.54674313058E+03  0.92234485560E+02 0.  0.
        -11    1    3    3    0    0 -0.13448125836E+01  0.30641915799E+02  0.99234600653E+02  0.10386645990E+03  0.00000000000E+00 0. -1.
         11    1    3    3    0    0  0.70944196130E+02 -0.39718989899E+02  0.15824125819E+03  0.17790720311E+03  0.00000000000E+00 0.  1.
        -13    1    4    4    0    0 -0.14472435730E+03  0.18907347742E+02  0.46274199837E+03  0.48521416349E+03  0.00000000000E+00 0.  1.
         13    1    4    4    0    0  0.11763098593E+01 -0.23934568066E+02  0.56670684997E+02  0.61528967092E+02  0.00000000000E+00 0. -1.
         -2    1    1    2    0  502  0.73948663899E+02  0.14104294424E+02  0.81100167502E+02  0.11065519953E+03  0.00000000000E+00 0.  1.
<scales pt_clust_5="13000.00000" pt_clust_6="13000.00000" pt_clust_7="13000.00000" pt_clust_8="13000.00000" pt_clust_9="75.28171"></scales>
<clustering>
<clus scale="   75.282">  2  9  1 -1</clus>
<clus scale="   90.422">  5  6 -1 -1</clus>
<clus scale="   92.234">  7  8 -1 -1</clus>
<clus scale="  138.137">  1  5  2 -1</clus>
<clus scale="   75.282">  2  5  1 -1</clus>
</clustering>
</event>
<event>
 9    1  0.1601012E-005  0.9539684E+02  0.7546771E-02  0.1293964E+00
         21   -1    0    0  501  502  0.00000000000E+00  0.00000000000E+00  0.24523922900E+03  0.24523922900E+03  0.00000000000E+00 0. -1.
          2   -1    0    0  502    0 -0.00000000000E+00 -0.00000000000E+00 -0.26691339764E+03  0.26691339764E+03  0.00000000000E+00 0. -1.
         23    2    1    2    0    0 -0.15961653541E+02  0.30660900227E+02 -0.23154775582E+03  0.25080524237E+03  0.89966889416E+02 0.  0.
         23    2    1    2    0    0  0.19038569344E+02 -0.33446096143E+00  0.50725883118E+02  0.99306796638E+02  0.83223468166E+02 0.  0.
        -13    1    3    3    0    0 -0.29218628863E+01 -0.32118679508E+02 -0.75956513203E+02  0.82519929436E+02  0.00000000000E+00 0.  1.
         13    1    3    3    0    0 -0.13039790655E+02  0.62779579736E+02 -0.15559124262E+03  0.16828531294E+03  0.00000000000E+00 0. -1.
        -13    1    4    4    0    0 -0.37452838497E+00 -0.40462224519E+02  0.19768948679E+02  0.45034911085E+02  0.00000000000E+00 0.  1.
         13    1    4    4    0    0  0.19413097729E+02  0.40127763558E+02  0.30956934439E+02  0.54271885553E+02  0.00000000000E+00 0. -1.
          2    1    1    2  501    0 -0.30769158033E+01 -0.30326439266E+02  0.15914770407E+03  0.16204058763E+03  0.00000000000E+00 0. -1.
<scales pt_clust_5="13000.00000" pt_clust_6="13000.00000" pt_clust_7="13000.00000" pt_clust_8="13000.00000" pt_clust_9="30.48213"></scales>
<clustering>
<clus scale="   30.482">  1  9  2 -1</clus>
<clus scale="   83.223">  7  8 -1 -1</clus>
<clus scale="   89.065">  1  7  2 -1</clus>
<clus scale="   89.967">  5  6 -1 -1</clus>
<clus scale="   30.482">  1  5  2 -1</clus>
</clustering>
</event>
<event>
 9    1  0.1601012E-005  0.1530893E+03  0.7546771E-02  0.1197047E+00
         21   -1    0    0  501  502  0.00000000000E+00  0.00000000000E+00  0.80101449966E+02  0.80101449966E+02  0.00000000000E+00 0. -1.
         -1   -1    0    0    0  501 -0.00000000000E+00 -0.00000000000E+00 -0.56436054901E+03  0.56436054901E+03  0.00000000000E+00 0.  1.
         23    2    1    2    0    0 -0.96884344617E+02  0.66909496526E+02 -0.31866187437E+03  0.35212043380E+03  0.92628034474E+02 0.  0.
         23    2    1    2    0    0  0.14037075928E+03 -0.30158861526E+02 -0.75878982254E+02  0.18608225755E+03  0.90859670034E+02 0.  0.
        -13    1    3    3    0    0 -0.26318464295E+02 -0.17108699038E+02 -0.13126040736E+03  0.13496171193E+03  0.00000000000E+00 0. -1.
         13    1    3    3    0    0 -0.70565880322E+02  0.84018195565E+02 -0.18740146700E+03  0.21715872187E+03  0.00000000000E+00 0.  1.
        -13    1    4    4    0    0  0.39220547959E+02  0.37667435183E+01  0.18603135966E+02  0.43571968130E+02  0.00000000000E+00 0. -1.
         13    1    4    4    0    0  0.10115021132E+03 -0.33925605045E+02 -0.94482118221E+02  0.14251028942E+03  0.00000000000E+00 0.  1.
         -1    1    1    2    0  502 -0.43486414660E+02 -0.36750635000E+02 -0.89718242426E+02  0.10625930762E+03  0.00000000000E+00 0.  1.
<scales pt_clust_5="13000.00000" pt_clust_6="13000.00000" pt_clust_7="13000.00000" pt_clust_8="13000.00000" pt_clust_9="56.93576"></scales>
<clustering>
<clus scale="   56.936">  1  9  2 -1</clus>
<clus scale="   90.860">  7  8 -1 -1</clus>
<clus scale="   92.628">  5  6 -1 -1</clus>
<clus scale="  152.026">  1  7  2 -1</clus>
<clus scale="   56.936">  1  5  2 -1</clus>
</clustering>
</event>
<event>
 9    1  0.1601012E-005  0.1174373E+03  0.7546771E-02  0.1247574E+00
          2   -1    0    0  502    0 -0.00000000000E+00  0.00000000000E+00  0.11587171766E+03  0.11587171766E+03  0.00000000000E+00 0. -1.
         21   -1    0    0  501  502  0.00000000000E+00 -0.00000000000E+00 -0.14494713349E+03  0.14494713349E+03  0.00000000000E+00 0.  1.
         23    2    1    2    0    0  0.71593755470E+02  0.99917987665E+01  0.57015230797E+01  0.11693075344E+03  0.91732174672E+02 0.  0.
         23    2    1    2    0    0 -0.69975848762E+02 -0.30253320766E+02 -0.25500071742E+02  0.12154515340E+03  0.91165167845E+02 0.  0.
        -13    1    3    3    0    0  0.27725505668E+01 -0.23737942987E+02  0.28285413057E+02  0.37030279039E+02  0.00000000000E+00 0.  1.
         13    1    3    3    0    0  0.68821204903E+02  0.33729741754E+02 -0.22583889978E+02  0.79900474402E+02  0.00000000000E+00 0. -1.
        -13    1    4    4    0    0 -0.36738610496E+02  0.19088692146E+02 -0.42840665031E+02  0.59577061436E+02  0.00000000000E+00 0. -1.
         13    1    4    4    0    0 -0.33237238266E+02 -0.49342012912E+02  0.17340593290E+02  0.61968091962E+02  0.00000000000E+00 0.  1.
          2    1    1    2  501    0 -0.16179067078E+01  0.20261521999E+02 -0.92768671714E+01  0.22342944308E+02  0.00000000000E+00 0. -1.
<scales pt_clust_5="13000.00000" pt_clust_6="13000.00000" pt_clust_7="13000.00000" pt_clust_8="13000.00000" pt_clust_9="20.32602"></scales>
<clustering>
<clus scale="   20.326">  2  9  1 -1</clus>
<clus scale="   91.165">  7  8 -1 -1</clus>
<clus scale="   91.732">  5  6 -1 -1</clus>
<clus scale="  116.995">  2  7  1 -1</clus>
<clus scale="   20.326">  2  5  1 -1</clus>
</clustering>
</event>
<event>
 9    1  0.1601012E-005  0.9837228E+02  0.7546771E-02  0.1285195E+00
          1   -1    0    0  502    0 -0.00000000000E+00  0.00000000000E+00  0.10252787396E+03  0.10252787396E+03  0.00000000000E+00 0. -1.
         21   -1    0    0  501  502  0.00000000000E+00 -0.00000000000E+00 -0.46949736817E+03  0.46949736817E+03  0.00000000000E+00 0. -1.
         23    2    1    2    0    0  0.31755269670E+02  0.21454220675E+02  0.61959864777E+02  0.11774494811E+03  0.92499552569E+02 0.  0.
         23    2    1    2    0    0 -0.29971811819E+01 -0.11210778314E+01 -0.16338957078E+03  0.18641494825E+03  0.89689136342E+02 0.  0.
        -11    1    4    4    0    0  0.22354112341E+02  0.10991218234E+02 -0.48157782411E+01  0.25371340857E+02  0.00000000000E+00 0. -1.
         11    1    4    4    0    0 -0.25351293523E+02 -0.12112296065E+02 -0.15857379254E+03  0.16104360739E+03  0.00000000000E+00 0.  1.
        -11    1    3    3    0    0  0.46100639811E+02  0.42151985078E+02  0.14667263295E+02  0.64165313446E+02  0.00000000000E+00 0. -1.
         11    1    3    3    0    0 -0.14345370141E+02 -0.20697764403E+02  0.47292601482E+02  0.53579634664E+02  0.00000000000E+00 0.  1.
          1    1    1    2  501    0 -0.28758088488E+02 -0.20333142843E+02 -0.26553978820E+03  0.26786534577E+03  0.00000000000E+00 0. -1.
<scales pt_clust_5="13000.00000" pt_clust_6="13000.00000" pt_clust_7="13000.00000" pt_clust_8="13000.00000" pt_clust_9="35.22023"></scales>
<clustering>
<clus scale="   35.220">  2  9  1 -1</clus>
<clus scale="   89.689">  5  6 -1 -1</clus>
<clus scale="   92.500">  7  8 -1 -1</clus>
<clus scale="   95.734">  2  5  1 -1</clus>
<clus scale="   35.220">  2  5  1 -1</clus>
</clustering>
</event>
<event>
 9    1  0.1601012E-005  0.1390004E+03  0.7546771E-02  0.1215572E+00
         21   -1    0    0  501  502  0.00000000000E+00  0.00000000000E+00  0.63608785968E+02  0.63608785968E+02  0.00000000000E+00 0. -1.
          1   -1    0    0  502    0 -0.00000000000E+00 -0.00000000000E+00 -0.11855087608E+04  0.11855087608E+04  0.00000000000E+00 0. -1.
         23    2    1    2    0    0 -0.47687157152E+02 -0.60245919793E+02 -0.36326968790E+03  0.38133616945E+03  0.86883670369E+02 0.  0.
         23    2    1    2    0    0  0.87440172244E+01  0.14425389379E+03 -0.75611533348E+03  0.77515183109E+03  0.90908305472E+02 0.  0.
        -11    1    4    4    0    0 -0.31041151678E+02  0.12000693549E+03 -0.56528371362E+03  0.57871486463E+03  0.00000000000E+00 0. -1.
         11    1    4    4    0    0  0.39785168902E+02  0.24246958298E+02 -0.19083161987E+03  0.19643696646E+03  0.00000000000E+00 0.  1.
        -13    1    3    3    0    0 -0.32205984087E+02 -0.18268362520E+01 -0.35195322629E+02  0.47741737261E+02  0.00000000000E+00 0.  1.
         13    1    3    3    0    0 -0.15481173065E+02 -0.58419083541E+02 -0.32807436527E+03  0.33359443219E+03  0.00000000000E+00 0. -1.
          1    1    1    2  501    0  0.38943139928E+02 -0.84007973992E+02 -0.25149534412E+01  0.92629546218E+02  0.00000000000E+00 0. -1.
<scales pt_clust_5="13000.00000" pt_clust_6="13000.00000" pt_clust_7="13000.00000" pt_clust_8="13000.00000" pt_clust_9="92.59540"></scales>
<clustering>
<clus scale="   86.884">  7  8 -1 -1</clus>
<clus scale="   90.908">  5  6 -1 -1</clus>
<clus scale="   92.595">  1  9  2 -1</clus>
<clus scale="  136.402">  2  7  1 -1</clus>
<clus scale="   92.595">  1  5  2 -1</clus>
</clustering>
</event>
<event>
 9    1  0.1601012E-005  0.1341882E+03  0.7546771E-02  0.1222182E+00
          1   -1    0    0  502    0 -0.00000000000E+00  0.00000000000E+00  0.41789098013E+03  0.41789098013E+03  0.00000000000E+00 0. -1.
         21   -1    0    0  501  502  0.00000000000E+00 -0.00000000000E+00 -0.90614990692E+02  0.90614990692E+02  0.00000000000E+00 0. -1.
         23    2    1    2    0    0  0.53916427187E+02 -0.85892451859E+02  0.28943475793E+03  0.32082535721E+03  0.94190956711E+02 0.  0.
         23    2    1    2    0    0 -0.51319870329E+02  0.65352626800E+02  0.75660038682E+02  0.14456578209E+03  0.90940249486E+02 0.  0.
        -11    1    4    4    0    0 -0.13503796050E+02  0.78286632124E+02  0.32756998258E+02  0.85931194638E+02  0.00000000000E+00 0.  1.
         11    1    4    4    0    0 -0.37816074279E+02 -0.12934005324E+02  0.42903040425E+02  0.58634587448E+02  0.00000000000E+00 0. -1.
        -13    1    3    3    0    0  0.36428283182E+01 -0.61769493250E+02  0.65718146485E+02  0.90264141673E+02  0.00000000000E+00 0.  1.
         13    1    3    3    0    0  0.50273598869E+02 -0.24122958609E+02  0.22371661144E+03  0.23056121554E+03  0.00000000000E+00 0. -1.
          1    1    1    2  501    0 -0.25965568586E+01  0.20539825059E+02 -0.37818807175E+02  0.43114831522E+02  0.00000000000E+00 0. -1.
<scales pt_clust_5="13000.00000" pt_clust_6="13000.00000" pt_clust_7="13000.00000" pt_clust_8="13000.00000" pt_clust_9="20.70330"></scales>
<clustering>
<clus scale="   20.703">  2  9  1 -1</clus>
<clus scale="   90.940">  5  6 -1 -1</clus>
<clus scale="   94.191">  7  8 -1 -1</clus>
<clus scale="  131.927">  2  5  1 -1</clus>
<clus scale="   20.703">  2  5  1 -1</clus>
</clustering>
</event>
<event>
 9    1  0.1601012E-005  0.1638294E+03  0.7546771E-02  0.1184923E+00
         21   -1    0    0  501  502  0.00000000000E+00  0.00000000000E+00  0.83995872938E+03  0.83995872938E+03  0.00000000000E+00 0. -1.
         -3   -1    0    0    0  501 -0.00000000000E+00 -0.00000000000E+00 -0.77524614147E+02  0.77524614147E+02  0.00000000000E+00 0.  1.
         23    2    1    2    0    0  0.52938224624E+02 -0.11986204654E+03  0.79394464868E+02  0.17944614986E+03  0.93424160799E+02 0.  0.
         23    2    1    2    0    0  0.24504630228E+02  0.16502360672E+03  0.45047475508E+03  0.48879154616E+03  0.90312806110E+02 0.  0.
        -11    1    4    4    0    0  0.80960538469E+01  0.12741114282E+03  0.21726095105E+03  0.25199497267E+03  0.00000000000E+00 0.  1.
         11    1    4    4    0    0  0.16408576381E+02  0.37612463902E+02  0.23321380404E+03  0.23679657348E+03  0.00000000000E+00 0. -1.
        -11    1    3    3    0    0  0.46792296723E+01 -0.89858731994E+02  0.11193617217E+02  0.90674053468E+02  0.00000000000E+00 0.  1.
         11    1    3    3    0    0  0.48258994952E+02 -0.30003314543E+02  0.68200847650E+02  0.88772096390E+02  0.00000000000E+00 0. -1.
         -3    1    1    2    0  502 -0.77442854851E+02 -0.45161560186E+02  0.23256489528E+03  0.24924564751E+03  0.00000000000E+00 0.  1.
<scales pt_clust_5="13000.00000" pt_clust_6="13000.00000" pt_clust_7="13000.00000" pt_clust_8="13000.00000" pt_clust_9="89.64911"></scales>
<clustering>
<clus scale="   89.649">  1  9  2 -1</clus>
<clus scale="   90.313">  5  6 -1 -1</clus>
<clus scale="   93.424">  7  8 -1 -1</clus>
<clus scale="  162.075">  1  5  2 -1</clus>
<clus scale="   89.649">  1  5  2 -1</clus>
</clustering>
</event>
<event>
 9    1  0.1601012E-005  0.1257937E+03  0.7546771E-02  0.1234106E+00
         21   -1    0    0  501  502  0.00000000000E+00  0.00000000000E+00  0.15621741648E+03  0.15621741648E+03  0.00000000000E+00 0. -1.
          1   -1    0    0  502    0 -0.00000000000E+00 -0.00000000000E+00 -0.32212888990E+03  0.32212888990E+03  0.00000000000E+00 0. -1.
         23    2    1    2    0    0  0.26457223195E+02 -0.68093318635E+02 -0.11527320024E+03  0.16465512638E+03  0.92123369714E+02 0.  0.
         23    2    1    2    0    0 -0.30954587338E+02  0.93438902627E+02 -0.15569525187E+03  0.20552651996E+03  0.91165365957E+02 0.  0.
        -11    1    4    4    0    0  0.30421454606E+02  0.23094958929E+02 -0.28062949489E+02  0.47395898159E+02  0.00000000000E+00 0.  1.
         11    1    4    4    0    0 -0.61376041944E+02  0.70343943698E+02 -0.12763230238E+03  0.15813062180E+03  0.00000000000E+00 0. -1.
        -13    1    3    3    0    0 -0.33347607563E+02 -0.11830860418E+02 -0.37509690825E+02  0.51565580518E+02  0.00000000000E+00 0. -1.
         13    1    3    3    0    0  0.59804830758E+02 -0.56262458217E+02 -0.77763509415E+02  0.11308954586E+03  0.00000000000E+00 0.  1.
          1    1    1    2  501    0  0.44973641427E+01 -0.25345583992E+02  0.10505697869E+03  0.10816466005E+03  0.00000000000E+00 0. -1.
<scales pt_clust_5="13000.00000" pt_clust_6="13000.00000" pt_clust_7="13000.00000" pt_clust_8="13000.00000" pt_clust_9="25.74150"></scales>
<clustering>
<clus scale="   25.742">  1  9  2 -1</clus>
<clus scale="   91.165">  5  6 -1 -1</clus>
<clus scale="   92.123">  7  8 -1 -1</clus>
<clus scale="  125.094">  1  5  2 -1</clus>
<clus scale="   25.742">  1  5  2 -1</clus>
</clustering>
</event>
<event>
 9    1  0.1601012E-005  0.1032753E+03  0.7546771E-02  0.1273781E+00
         21   -1    0    0  501  502  0.00000000000E+00  0.00000000000E+00  0.36676997635E+03  0.36676997635E+03  0.00000000000E+00 0. -1.
          1   -1    0    0  502    0 -0.00000000000E+00 -0.00000000000E+00 -0.10171077038E+03  0.10171077038E+03  0.00000000000E+00 0. -1.
         23    2    1    2    0    0 -0.13469177066E+02  0.47137682053E+02 -0.40593044943E+02  0.11096339623E+03  0.90893895317E+02 0.  0.
         23    2    1    2    0    0 -0.22256265210E+02 -0.50003075179E+02  0.91642655849E+02  0.14052743258E+03  0.91399858133E+02 0.  0.
        -11    1    4    4    0    0 -0.35165121432E+02  0.16454220645E+02  0.34361503438E+02  0.51846311931E+02  0.00000000000E+00 0.  1.
         11    1    4    4    0    0  0.12908856222E+02 -0.66457295824E+02  0.57281152411E+02  0.88681120644E+02  0.00000000000E+00 0. -1.
        -13    1    3    3    0    0 -0.51157024463E+02  0.21663035575E+02 -0.33637868889E+02  0.64944857269E+02  0.00000000000E+00 0. -1.
         13    1    3    3    0    0  0.37687847397E+02  0.25474646477E+02 -0.69551760535E+01  0.46018538965E+02  0.00000000000E+00 0.  1.
          1    1    1    2  501    0  0.35725442276E+02  0.28653931260E+01  0.21400959506E+03  0.21698991793E+03  0.00000000000E+00 0. -1.
<scales pt_clust_5="13000.00000" pt_clust_6="13000.00000" pt_clust_7="13000.00000" pt_clust_8="13000.00000" pt_clust_9="35.84017"></scales>
<clustering>
<clus scale="   35.840">  1  9  2 -1</clus>
<clus scale="   90.894">  7  8 -1 -1</clus>
<clus scale="   91.400">  5  6 -1 -1</clus>
<clus scale="  102.828">  2  7  1 -1</clus>
<clus scale="   35.840">  1  5  2 -1</clus>
</clustering>
</event>
<event>
 9    1  0.1601012E-005  0.1677961E+03  0.7546771E-02  0.1180259E+00
         21   -1    0    0  501  502  0.00000000000E+00  0.00000000000E+00  0.11936094381E+03  0.11936094381E+03  0.00000000000E+00 0. -1.
          1   -1    0    0  502    0 -0.00000000000E+00 -0.00000000000E+00 -0.12016209796E+04  0.12016209796E+04  0.00000000000E+00 0. -1.
         23    2    1    2    0    0 -0.45321080011E+02  0.13182892924E+03 -0.61781542836E+03  0.63979450903E+03  0.90599356426E+02 0.  0.
         23    2    1    2    0    0  0.18580116105E+02 -0.14280428752E+03 -0.55789865867E+03  0.58336514023E+03  0.91245209435E+02 0.  0.
        -13    1    4    4    0    0 -0.26783964962E+02 -0.17252213911E+02 -0.60653606308E+02  0.68511894019E+02  0.00000000000E+00 0.  1.
         13    1    4    4    0    0  0.45364081067E+02 -0.12555207361E+03 -0.49724505236E+03  0.51485324621E+03  0.00000000000E+00 0. -1.
        -13    1    3    3    0    0 -0.57480120813E+01  0.12557376908E+03 -0.44660374821E+03  0.46395766944E+03  0.00000000000E+00 0.  1.
         13    1    3    3    0    0 -0.39573067930E+02  0.62551601613E+01 -0.17121168016E+03  0.17583683959E+03  0.00000000000E+00 0. -1.
          1    1    1    2  501    0  0.26740963907E+02  0.10975358277E+02  0.93454051201E+02  0.97822274181E+02  0.00000000000E+00 0. -1.
<scales pt_clust_5="13000.00000" pt_clust_6="13000.00000" pt_clust_7="13000.00000" pt_clust_8="13000.00000" pt_clust_9="28.90567"></scales>
<clustering>
<clus scale="   28.906">  1  9  2 -1</clus>
<clus scale="   90.599">  7  8 -1 -1</clus>
<clus scale="   91.245">  5  6 -1 -1</clus>
<clus scale="  167.446">  2  7  1 -1</clus>
<clus scale="   28.906">  1  5  2 -1</clus>
</clustering>
</event>
<event>
 9    1  0.1601012E-005  0.9965328E+02  0.7546771E-02  0.1281132E+00
          2   -1    0    0  502    0 -0.00000000000E+00  0.00000000000E+00  0.19229858611E+03  0.19229858611E+03  0.00000000000E+00 0. -1.
         21   -1    0    0  501  502  0.00000000000E+00 -0.00000000000E+00 -0.19866529559E+03  0.19866529559E+03  0.00000000000E+00 0. -1.
         23    2    1    2    0    0  0.23962991765E+02  0.14275955389E+02  0.51167219241E+02  0.11246203033E+03  0.96185217490E+02 0.  0.
         23    2    1    2    0    0 -0.45990868453E+01  0.58993133066E+02  0.68141658246E+02  0.13174465974E+03  0.95979312529E+02 0.  0.
        -11    1    4    4    0    0  0.95219668564E+01  0.83701915605E+02  0.49171130254E+02  0.97542188714E+02  0.00000000000E+00 0. -1.
         11    1    4    4    0    0 -0.14121053702E+02 -0.24708782539E+02  0.18970527991E+02  0.34202471029E+02  0.00000000000E+00 0.  1.
        -11    1    3    3    0    0 -0.26621009573E+02  0.34707746609E+02  0.33573736207E+02  0.55140743450E+02  0.00000000000E+00 0. -1.
         11    1    3    3    0    0  0.50584001338E+02 -0.20431791220E+02  0.17593483034E+02  0.57321286876E+02  0.00000000000E+00 0.  1.
          2    1    1    2  501    0 -0.19363904920E+02 -0.73269088455E+02 -0.12567558697E+03  0.14675719164E+03  0.00000000000E+00 0. -1.
<scales pt_clust_5="13000.00000" pt_clust_6="13000.00000" pt_clust_7="13000.00000" pt_clust_8="13000.00000" pt_clust_9="75.78470"></scales>
<clustering>
<clus scale="   75.785">  2  9  1 -1</clus>
<clus scale="   95.979">  5  6 -1 -1</clus>
<clus scale="   96.185">  7  8 -1 -1</clus>
<clus scale="   99.455">  2  5  1 -1</clus>
<clus scale="   75.785">  2  5  1 -1</clus>
</clustering>
</event>
<event>
 9    1  0.1601012E-005  0.2904508E+03  0.7546771E-02  0.1090188E+00
         21   -1    0    0  501  502  0.00000000000E+00  0.00000000000E+00  0.84182922121E+02  0.84182922121E+02  0.00000000000E+00 0. -1.
          2   -1    0    0  502    0 -0.00000000000E+00 -0.00000000000E+00 -0.21731007500E+04  0.21731007500E+04  0.00000000000E+00 0. -1.
         23    2    1    2    0    0  0.21404499977E+03  0.21202526471E+03 -0.13929209220E+04  0.14280749037E+04  0.91647481237E+02 0.  0.
         23    2    1    2    0    0 -0.12695585403E+03 -0.21015841344E+03 -0.69450608640E+03  0.74208685965E+03  0.89832375062E+02 0.  0.
        -11    1    4    4    0    0 -0.10135216309E+03 -0.93757670134E+02 -0.43796133577E+03  0.45920898652E+03  0.00000000000E+00 0.  1.
         11    1    4    4    0    0 -0.25603690946E+02 -0.11640074330E+03 -0.25654475063E+03  0.28287787313E+03  0.00000000000E+00 0. -1.
        -11    1    3    3    0    0 -0.27906255965E+01  0.33149201103E+02 -0.17534779044E+03  0.17847550178E+03  0.00000000000E+00 0.  1.
         11    1    3    3    0    0  0.21683562536E+03  0.17887606360E+03 -0.12175731316E+04  0.12495994019E+04  0.00000000000E+00 0. -1.
          2    1    1    2  501    0 -0.87089145731E+02 -0.18668512704E+01 -0.14908194325E+01  0.87121908728E+02  0.00000000000E+00 0. -1.
<scales pt_clust_5="13000.00000" pt_clust_6="13000.00000" pt_clust_7="13000.00000" pt_clust_8="13000.00000" pt_clust_9="87.10915"></scales>
<clustering>
<clus scale="   87.109">  1  9  2 -1</clus>
<clus scale="   89.832">  5  6 -1 -1</clus>
<clus scale="   91.647">  7  8 -1 -1</clus>
<clus scale="  289.883">  1  5  2 -1</clus>
<clus scale="   87.109">  1  5  2 -1</clus>
</clustering>
</event>
<event>
 9    1  0.1601012E-005  0.1730741E+03  0.7546771E-02  0.1174794E+00
         21   -1    0    0  501  502  0.00000000000E+00  0.00000000000E+00  0.11406095541E+03  0.11406095541E+03  0.00000000000E+00 0. -1.
          1   -1    0    0  502    0 -0.00000000000E+00 -0.00000000000E+00 -0.68390107064E+03  0.68390107064E+03  0.00000000000E+00 0. -1.
         23    2    1    2    0    0 -0.26188831229E+02 -0.11856254743E+03 -0.31147223112E+03  0.34620423100E+03  0.89997145860E+02 0.  0.
         23    2    1    2    0    0  0.78026020889E+02  0.21865164281E+03 -0.22057777067E+03  0.33287544179E+03  0.90856513211E+02 0.  0.
        -13    1    4    4    0    0  0.86203055851E+02  0.14484966186E+03 -0.11600079554E+03  0.20461812223E+03  0.00000000000E+00 0.  1.
         13    1    4    4    0    0 -0.81770349623E+01  0.73801980949E+02 -0.10457697513E+03  0.12825731956E+03  0.00000000000E+00 0. -1.
        -13    1    3    3    0    0  0.16471862161E+02 -0.66806743101E+02 -0.81555324881E+02  0.10670395580E+03  0.00000000000E+00 0.  1.
         13    1    3    3    0    0 -0.42660693390E+02 -0.51755804330E+02 -0.22991690624E+03  0.23950027520E+03  0.00000000000E+00 0. -1.
          1    1    1    2  501    0 -0.51837189660E+02 -0.10008909538E+03 -0.37790113442E+02  0.11888235327E+03  0.00000000000E+00 0. -1.
<scales pt_clust_5="13000.00000" pt_clust_6="13000.00000" pt_clust_7="13000.00000" pt_clust_8="13000.00000" pt_clust_9="112.71611"></scales>
<clustering>
<clus scale="   89.997">  7  8 -1 -1</clus>
<clus scale="   90.857">  5  6 -1 -1</clus>
<clus scale="  112.716">  1  9  2 -1</clus>
<clus scale="  172.625">  2  7  1 -1</clus>
<clus scale="  112.716">  1  5  2 -1</clus>
</clustering>
</event>
<event>
 9    1  0.1601012E-005  0.1112124E+03  0.7546771E-02  0.1260195E+00
         21   -1    0    0  501  502  0.00000000000E+00  0.00000000000E+00  0.78728525063E+02  0.78728525063E+02  0.00000000000E+00 0. -1.
         -2   -1    0    0    0  501 -0.00000000000E+00 -0.00000000000E+00 -0.23871072566E+03  0.23871072566E+03  0.00000000000E+00 0.  1.
         23    2    1    2    0    0  0.79260865054E+02  0.17588422342E+02 -0.10881364874E+03  0.16436229135E+03  0.92644024821E+02 0.  0.
         23    2    1    2    0    0 -0.40610739572E+02 -0.10473373327E+02 -0.57844073261E+02  0.11321446186E+03  0.87821716251E+02 0.  0.
        -13    1    4    4    0    0 -0.20656781816E+02 -0.32692459694E+02  0.92601987606E+01  0.39764944825E+02  0.00000000000E+00 0.  1.
         13    1    4    4    0    0 -0.19953957755E+02  0.22219086366E+02 -0.67104272022E+02  0.73449517035E+02  0.00000000000E+00 0. -1.
        -13    1    3    3    0    0  0.53135254312E+02  0.35524417575E+02 -0.15436492881E+02  0.65754275962E+02  0.00000000000E+00 0. -1.
         13    1    3    3    0    0  0.26125610742E+02 -0.17935995232E+02 -0.93377155863E+02  0.98608015388E+02  0.00000000000E+00 0.  1.
         -2    1    1    2    0  502 -0.38650125483E+02 -0.71150490152E+01  0.66755214043E+01  0.39862497518E+02  0.00000000000E+00 0.  1.
<scales pt_clust_5="13000.00000" pt_clust_6="13000.00000" pt_clust_7="13000.00000" pt_clust_8="13000.00000" pt_clust_9="39.29957"></scales>
<clustering>
<clus scale="   39.300">  1  9  2 -1</clus>
<clus scale="   87.822">  5  6 -1 -1</clus>
<clus scale="   92.644">  7  8 -1 -1</clus>
<clus scale="  107.228">  1  5  2 -1</clus>
<clus scale="   39.300">  1  5  2 -1</clus>
</clustering>
</event>
<event>
 9    1  0.1601012E-005  0.1319967E+03  0.7546771E-02  0.1227310E+00
          1   -1    0    0  502    0 -0.00000000000E+00  0.00000000000E+00  0.40146228647E+03  0.40146228647E+03  0.00000000000E+00 0. -1.
         21   -1    0    0  501  502  0.00000000000E+00 -0.00000000000E+00 -0.63451486886E+02  0.63451486886E+02  0.00000000000E+00 0.  1.
         23    2    1    2    0    0  0.48371914070E+02 -0.37243328514E+02  0.12556794215E+03  0.17226668131E+03  0.10090388399E+03 0.  0.
         23    2    1    2    0    0 -0.77702941068E+02  0.77609916207E+02  0.19093505116E+03  0.23831150262E+03  0.90967754612E+02 0.  0.
        -13    1    4    4    0    0 -0.62584998138E+02  0.18111190132E+02  0.15262369772E+03  0.16594845677E+03  0.00000000000E+00 0.  1.
         13    1    4    4    0    0 -0.15117942930E+02  0.59498726075E+02  0.38311353440E+02  0.72363045855E+02  0.00000000000E+00 0. -1.
        -13    1    3    3    0    0  0.27769465599E+02  0.19176615483E+02  0.10252158370E+03  0.10793313173E+03  0.00000000000E+00 0. -1.
         13    1    3    3    0    0  0.20602448471E+02 -0.56419943997E+02  0.23046358453E+02  0.64333549580E+02  0.00000000000E+00 0.  1.
          1    1    1    2  501    0  0.29331026998E+02 -0.40366587693E+02  0.21507806276E+02  0.54335589419E+02  0.00000000000E+00 0. -1.
<scales pt_clust_5="13000.00000" pt_clust_6="13000.00000" pt_clust_7="13000.00000" pt_clust_8="13000.00000" pt_clust_9="49.89760"></scales>
<clustering>
<clus scale="   49.898">  2  9  1 -1</clus>
<clus scale="   90.968">  5  6 -1 -1</clus>
<clus scale="  100.904">  7  8 -1 -1</clus>
<clus scale="  124.566">  2  5  1 -1</clus>
<clus scale="   49.898">  2  5  1 -1</clus>
</clustering>
</event>
<event>
 9    1  0.1601012E-005  0.9817960E+02  0.7546771E-02  0.1284389E+00
         -4   -1    0    0    0  501 -0.00000000000E+00  0.00000000000E+00  0.20818191240E+03  0.20818191240E+03  0.00000000000E+00 0.  1.
         21   -1    0    0  501  502  0.00000000000E+00 -0.00000000000E+00 -0.18275763435E+03  0.18275763435E+03  0.00000000000E+00 0.  1.
         23    2    1    2    0    0  0.40827586897E+02  0.29403007880E+02  0.99384008338E+02  0.14323890833E+03  0.90048736929E+02 0.  0.
         23    2    1    2    0    0  0.61258443730E+01 -0.35656836202E+02  0.53889458167E+02  0.11135860504E+03  0.90486072286E+02 0.  0.
        -13    1    3    3    0    0  0.68145438135E+02  0.10399288259E+02  0.57664117345E+02  0.89872667503E+02  0.00000000000E+00 0.  1.
         13    1    3    3    0    0 -0.27317851238E+02  0.19003719620E+02  0.41719890993E+02  0.53366240829E+02  0.00000000000E+00 0. -1.
        -13    1    4    4    0    0  0.45384239362E+02 -0.34386621685E+01  0.16986789250E+02  0.48580907659E+02  0.00000000000E+00 0.  1.
         13    1    4    4    0    0 -0.39258394989E+02 -0.32218174033E+02  0.36902668918E+02  0.62777697381E+02  0.00000000000E+00 0. -1.
         -4    1    1    2    0  502 -0.46953431270E+02  0.62538283222E+01 -0.12784918846E+03  0.13634203338E+03  0.00000000000E+00 0.  1.
<scales pt_clust_5="13000.00000" pt_clust_6="13000.00000" pt_clust_7="13000.00000" pt_clust_8="13000.00000" pt_clust_9="47.36808"></scales>
<clustering>
<clus scale="   47.368">  2  9  1 -1</clus>
<clus scale="   90.049">  5  6 -1 -1</clus>
<clus scale="   90.486">  7  8 -1 -1</clus>
<clus scale="   97.777">  1  5  2 -1</clus>
<clus scale="   47.368">  2  5  1 -1</clus>
</clustering>
</event>
<event>
 9    1  0.1601012E-005  0.9878111E+02  0.7546771E-02  0.1282975E+00
         21   -1    0    0  501  502  0.00000000000E+00  0.00000000000E+00  0.16989330113E+03  0.16989330113E+03  0.00000000000E+00 0. -1.
          1   -1    0    0  502    0 -0.00000000000E+00 -0.00000000000E+00 -0.14820489907E+03  0.14820489907E+03  0.00000000000E+00 0. -1.
         23    2    1    2    0    0  0.12682916708E+02 -0.23626100546E+02 -0.70479847838E+02  0.11831279456E+03  0.91167205736E+02 0.  0.
         23    2    1    2    0    0 -0.47499406355E+02  0.63829640465E+02  0.45861688709E+02  0.12926725066E+03  0.90974232589E+02 0.  0.
        -11    1    4    4    0    0  0.21975942901E+02  0.40472065862E+02  0.79097835049E+01  0.46727880934E+02  0.00000000000E+00 0.  1.
         11    1    4    4    0    0 -0.69475349256E+02  0.23357574604E+02  0.37951905204E+02  0.82539369723E+02  0.00000000000E+00 0. -1.
        -13    1    3    3    0    0 -0.33084664208E+02 -0.34487860979E+02 -0.31693194597E+02  0.57345149267E+02  0.00000000000E+00 0.  1.
         13    1    3    3    0    0  0.45767580917E+02  0.10861760434E+02 -0.38786653240E+02  0.60967645291E+02  0.00000000000E+00 0. -1.
          1    1    1    2  501    0  0.34816489646E+02 -0.40203539920E+02  0.46306561190E+02  0.70518154986E+02  0.00000000000E+00 0. -1.
<scales pt_clust_5="13000.00000" pt_clust_6="13000.00000" pt_clust_7="13000.00000" pt_clust_8="13000.00000" pt_clust_9="53.18376"></scales>
<clustering>
<clus scale="   53.184">  1  9  2 -1</clus>
<clus scale="   90.974">  5  6 -1 -1</clus>
<clus scale="   91.167">  7  8 -1 -1</clus>
<clus scale="   98.603">  1  5  2 -1</clus>
<clus scale="   53.184">  1  5  2 -1</clus>
</clustering>
</event>
<event>
 9    1  0.1601012E-005  0.1852766E+03  0.7546771E-02  0.1163302E+00
         21   -1    0    0  501  502  0.00000000000E+00  0.00000000000E+00  0.70681814690E+02  0.70681814690E+02  0.00000000000E+00 0.  1.
          2   -1    0    0  502    0 -0.00000000000E+00 -0.00000000000E+00 -0.72782622087E+03  0.72782622087E+03  0.00000000000E+00 0. -1.
         23    2    1    2    0    0 -0.55603941538E+02 -0.12461269561E+03 -0.28366860363E+03  0.32748270372E+03  0.90315681521E+02 0.  0.
         23    2    1    2    0    0  0.10288415970E+03  0.16303465216E+03 -0.33819202967E+03  0.40062213303E+03  0.94650918737E+02 0.  0.
        -11    1    4    4    0    0  0.52117150028E+01  0.93194728461E+02 -0.12591221393E+03  0.15673641888E+03  0.00000000000E+00 0. -1.
         11    1    4    4    0    0  0.97672444698E+02  0.69839923697E+02 -0.21227981574E+03  0.24388571415E+03  0.00000000000E+00 0.  1.
        -13    1    3    3    0    0  0.20522774005E+02 -0.56970210071E+01 -0.51782485235E+02  0.55991660793E+02  0.00000000000E+00 0.  1.
         13    1    3    3    0    0 -0.76126715543E+02 -0.11891567460E+03 -0.23188611839E+03  0.27149104293E+03  0.00000000000E+00 0. -1.
          2    1    1    2  501    0 -0.47280218162E+02 -0.38421956552E+02 -0.35283772884E+02  0.70403198817E+02  0.00000000000E+00 0. -1.
<scales pt_clust_5="13000.00000" pt_clust_6="13000.00000" pt_clust_7="13000.00000" pt_clust_8="13000.00000" pt_clust_9="60.92344"></scales>
<clustering>
<clus scale="   60.923">  1  9  2 -1</clus>
<clus scale="   90.316">  7  8 -1 -1</clus>
<clus scale="   94.651">  5  6 -1 -1</clus>
<clus scale="  183.100">  2  7  1 -1</clus>
<clus scale="   60.923">  1  5  2 -1</clus>
</clustering>
</event>
<event>
 9    1  0.1601012E-005  0.1333538E+03  0.7546771E-02  0.1226632E+00
         21   -1    0    0  501  502  0.00000000000E+00  0.00000000000E+00  0.16971649885E+03  0.16971649885E+03  0.00000000000E+00 0. -1.
          2   -1    0    0  502    0 -0.00000000000E+00 -0.00000000000E+00 -0.42529911091E+03  0.42529911091E+03  0.00000000000E+00 0. -1.
         23    2    1    2    0    0 -0.84201310756E+02  0.18433748574E+02 -0.29911890618E+03  0.32863538198E+03  0.10535383447E+03 0.  0.
         23    2    1    2    0    0  0.74067016566E+02  0.35833910751E+01 -0.78881176201E+02  0.14158641625E+03  0.91245326857E+02 0.  0.
        -11    1    4    4    0    0  0.18885055262E+02 -0.40637220480E+02 -0.18057816865E+02  0.48312666564E+02  0.00000000000E+00 0.  1.
         11    1    4    4    0    0  0.55181961304E+02  0.44220611555E+02 -0.60823359337E+02  0.93273749687E+02  0.00000000000E+00 0. -1.
        -11    1    3    3    0    0 -0.52327404719E+02  0.31736495484E+02 -0.28470755982E+03  0.29121084638E+03  0.00000000000E+00 0. -1.
         11    1    3    3    0    0 -0.31873906038E+02 -0.13302746910E+02 -0.14411346364E+02  0.37424535608E+02  0.00000000000E+00 0.  1.
          2    1    1    2  501    0  0.10134294190E+02 -0.22017139649E+02  0.12241747032E+03  0.12479381153E+03  0.00000000000E+00 0. -1.
<scales pt_clust_5="13000.00000" pt_clust_6="13000.00000" pt_clust_7="13000.00000" pt_clust_8="13000.00000" pt_clust_9="24.23754"></scales>
<clustering>
<clus scale="   24.238">  1  9  2 -1</clus>
<clus scale="   91.245">  5  6 -1 -1</clus>
<clus scale="  105.354">  7  8 -1 -1</clus>
<clus scale="  122.513">  1  5  2 -1</clus>
<clus scale="   24.238">  1  5  2 -1</clus>
</clustering>
</event>
<event>
 9    1  0.1601012E-005  0.9474538E+02  0.7546771E-02  0.1293003E+00
         21   -1    0    0  501  502  0.00000000000E+00  0.00000000000E+00  0.28572597206E+03  0.28572597206E+03  0.00000000000E+00 0.  1.
         -1   -1    0    0    0  501 -0.00000000000E+00 -0.00000000000E+00 -0.48961172370E+02  0.48961172370E+02  0.00000000000E+00 0.  1.
         23    2    1    2    0    0 -0.34879008240E+02 -0.15604334022E+01  0.63367223771E+02  0.11748283829E+03  0.92562584647E+02 0.  0.
         23    2    1    2    0    0 -0.24344222250E+01 -0.11848974202E+02  0.11863212524E+03  0.14959248104E+03  0.90321673162E+02 0.  0.
        -11    1    3    3    0    0  0.57814419595E+00  0.40889471219E+02  0.40738822038E+02  0.57722913374E+02  0.00000000000E+00 0. -1.
         11    1    3    3    0    0 -0.35457152436E+02 -0.42449904622E+02  0.22628401734E+02  0.59759924918E+02  0.00000000000E+00 0.  1.
        -13    1    4    4    0    0  0.36846640218E+02 -0.18623112551E+02  0.26109879663E+02  0.48848961427E+02  0.00000000000E+00 0. -1.
         13    1    4    4    0    0 -0.39281062443E+02  0.67741383489E+01  0.92522245574E+02  0.10074351961E+03  0.00000000000E+00 0.  1.
         -1    1    1    2    0  502  0.37313430465E+02  0.13409407604E+02  0.54765450677E+02  0.67611825099E+02  0.00000000000E+00 0.  1.
<scales pt_clust_5="13000.00000" pt_clust_6="13000.00000" pt_clust_7="13000.00000" pt_clust_8="13000.00000" pt_clust_9="39.64977"></scales>
<clustering>
<clus scale="   39.650">  1  9  2 -1</clus>
<clus scale="   90.322">  7  8 -1 -1</clus>
<clus scale="   92.557">  1  7  2 -1</clus>
<clus scale="   92.563">  5  6 -1 -1</clus>
<clus scale="   39.650">  1  5  2 -1</clus>
</clustering>
</event>
<event>
 9    1  0.1601012E-005  0.9933650E+02  0.7546771E-02  0.1286530E+00
         -4   -1    0    0    0  501 -0.00000000000E+00  0.00000000000E+00  0.44419482369E+03  0.44419482369E+03  0.00000000000E+00 0.  1.
         21   -1    0    0  501  502  0.00000000000E+00 -0.00000000000E+00 -0.79043965653E+02  0.79043965653E+02  0.00000000000E+00 0.  1.
         23    2    1    2    0    0 -0.36598651905E+02  0.17988011744E+02  0.34467827608E+03  0.35870567174E+03  0.90573809954E+02 0.  0.
         23    2    1    2    0    0  0.50333179526E+02  0.18103898557E+02  0.56017006342E+02  0.11204817364E+03  0.80967327432E+02 0.  0.
        -11    1    3    3    0    0  0.25521653260E+02  0.20944606228E+01  0.41063065949E+02  0.48393356316E+02  0.00000000000E+00 0. -1.
         11    1    3    3    0    0 -0.62120305165E+02  0.15893551121E+02  0.30361521014E+03  0.31031231543E+03  0.00000000000E+00 0.  1.
        -11    1    4    4    0    0  0.42061536060E+02  0.49277855229E+02  0.37378574593E+02  0.74797310582E+02  0.00000000000E+00 0.  1.
         11    1    4    4    0    0  0.82716434663E+01 -0.31173956672E+02  0.18638431749E+02  0.37250863054E+02  0.00000000000E+00 0. -1.
         -4    1    1    2    0  502 -0.13734527621E+02 -0.36091910301E+02 -0.35544424386E+02  0.52484943966E+02  0.00000000000E+00 0.  1.
<scales pt_clust_5="13000.00000" pt_clust_6="13000.00000" pt_clust_7="13000.00000" pt_clust_8="13000.00000" pt_clust_9="38.61688"></scales>
<clustering>
<clus scale="   38.617">  2  9  1 -1</clus>
<clus scale="   80.967">  7  8 -1 -1</clus>
<clus scale="   90.574">  5  6 -1 -1</clus>
<clus scale="   90.663">  2  7  1 -1</clus>
<clus scale="   38.617">  2  5  1 -1</clus>
</clustering>
</event>
<event>
 9    1  0.1601012E-005  0.3338312E+03  0.7546771E-02  0.1069530E+00
         21   -1    0    0  501  502  0.00000000000E+00  0.00000000000E+00  0.11223190542E+03  0.11223190542E+03  0.00000000000E+00 0.  1.
          2   -1    0    0  502    0 -0.00000000000E+00 -0.00000000000E+00 -0.12535834534E+04  0.12535834534E+04  0.00000000000E+00 0.  1.
         23    2    1    2    0    0  0.78124485507E+02 -0.31935666883E+03 -0.72665514417E+03  0.80289403762E+03  0.92298537037E+02 0.  0.
         23    2    1    2    0    0 -0.10852852213E+03  0.29080153910E+03 -0.40836465120E+03  0.52073255531E+03  0.89759292294E+02 0.  0.
        -11    1    4    4    0    0 -0.85762045157E+01  0.13843113586E+03 -0.20681901102E+03  0.24901974616E+03  0.00000000000E+00 0.  1.
         11    1    4    4    0    0 -0.99952317619E+02  0.15237040324E+03 -0.20154564018E+03  0.27171280915E+03  0.00000000000E+00 0. -1.
        -13    1    3    3    0    0  0.41025759752E+02 -0.33942176092E+02 -0.99565659783E+02  0.11290927725E+03  0.00000000000E+00 0. -1.
         13    1    3    3    0    0  0.37098725755E+02 -0.28541449274E+03 -0.62708948438E+03  0.68998476037E+03  0.00000000000E+00 0.  1.
          2    1    1    2  501    0  0.30404036628E+02  0.28555129729E+02 -0.63317526375E+01  0.42188765905E+02  0.00000000000E+00 0.  1.
<scales pt_clust_5="13000.00000" pt_clust_6="13000.00000" pt_clust_7="13000.00000" pt_clust_8="13000.00000" pt_clust_9="41.71092"></scales>
<clustering>
<clus scale="   41.711">  1  9  2 -1</clus>
<clus scale="   89.759">  5  6 -1 -1</clus>
<clus scale="   92.299">  7  8 -1 -1</clus>
<clus scale="  333.138">  1  5  2 -1</clus>
<clus scale="   41.711">  1  5  2 -1</clus>
</clustering>
</event>
<event>
 9    1  0.1601012E-005  0.3447460E+03  0.7546771E-02  0.1064828E+00
          1   -1    0    0  502    0 -0.00000000000E+00  0.00000000000E+00  0.15821907081E+03  0.15821907081E+03  0.00000000000E+00 0. -1.
         21   -1    0    0  501  502  0.00000000000E+00 -0.00000000000E+00 -0.10763730899E+04  0.10763730899E+04  0.00000000000E+00 0. -1.
         23    2    1    2    0    0 -0.26576680161E+03  0.18699395227E+03 -0.16982684101E+03  0.37738825006E+03  0.89342063612E+02 0.  0.
         23    2    1    2    0    0  0.29115410742E+03 -0.19379510901E+03 -0.55595973165E+03  0.66304931897E+03  0.90641699115E+02 0.  0.
        -11    1    3    3    0    0 -0.14170760190E+03  0.45574363283E+02 -0.77863199662E+02  0.16799031188E+03  0.00000000000E+00 0. -1.
         11    1    3    3    0    0 -0.12405919971E+03  0.14141958899E+03 -0.91963641344E+02  0.20939793817E+03  0.00000000000E+00 0.  1.
        -13    1    4    4    0    0  0.23502859543E+03 -0.16236752315E+03 -0.50801591903E+03  0.58282229472E+03  0.00000000000E+00 0. -1.
         13    1    4    4    0    0  0.56125511997E+02 -0.31427585859E+02 -0.47943812624E+02  0.80227024242E+02  0.00000000000E+00 0.  1.
          1    1    1    2  501    0 -0.25387305814E+02  0.68011567377E+01 -0.19236744640E+03  0.19415459166E+03  0.00000000000E+00 0. -1.
<scales pt_clust_5="13000.00000" pt_clust_6="13000.00000" pt_clust_7="13000.00000" pt_clust_8="13000.00000" pt_clust_9="26.28252"></scales>
<clustering>
<clus scale="   26.283">  2  9  1 -1</clus>
<clus scale="   89.342">  5  6 -1 -1</clus>
<clus scale="   90.642">  7  8 -1 -1</clus>
<clus scale="  344.407">  1  5  2 -1</clus>
<clus scale="   26.283">  2  5  1 -1</clus>
</clustering>
</event>
<event>
 9    1  0.1601012E-005  0.1055480E+03  0.7546771E-02  0.1279584E+00
         21   -1    0    0  501  502  0.00000000000E+00  0.00000000000E+00  0.58055375208E+02  0.58055375208E+02  0.00000000000E+00 0.  1.
          1   -1    0    0  502    0 -0.00000000000E+00 -0.00000000000E+00 -0.26843666644E+03  0.26843666644E+03  0.00000000000E+00 0. -1.
         23    2    1    2    0    0  0.13251289141E+02  0.27430841136E+02 -0.16031596061E+03  0.19056644893E+03  0.98419086168E+02 0.  0.
         23    2    1    2    0    0 -0.34276410145E+02 -0.39222333392E+02 -0.58877422948E+02  0.11025950665E+03  0.77313285696E+02 0.  0.
        -11    1    3    3    0    0  0.27857876588E+02 -0.21895765956E+02 -0.12024811845E+03  0.12535986537E+03  0.00000000000E+00 0. -1.
         11    1    3    3    0    0 -0.14606587447E+02  0.49326607091E+02 -0.40067842155E+02  0.65206583555E+02  0.00000000000E+00 0.  1.
        -13    1    4    4    0    0 -0.58900949311E+02 -0.26129632496E+02 -0.47891210892E+02  0.80284790619E+02  0.00000000000E+00 0.  1.
         13    1    4    4    0    0  0.24624539166E+02 -0.13092700897E+02 -0.10986212056E+02  0.29974716033E+02  0.00000000000E+00 0. -1.
          1    1    1    2  501    0  0.21025121004E+02  0.11791492256E+02  0.88120923244E+01  0.25666086067E+02  0.00000000000E+00 0. -1.
<scales pt_clust_5="13000.00000" pt_clust_6="13000.00000" pt_clust_7="13000.00000" pt_clust_8="13000.00000" pt_clust_9="24.10591"></scales>
<clustering>
<clus scale="   24.106">  1  9  2 -1</clus>
<clus scale="   77.313">  7  8 -1 -1</clus>
<clus scale="   86.206">  1  7  2 -1</clus>
<clus scale="   98.419">  5  6 -1 -1</clus>
<clus scale="   24.106">  1  5  2 -1</clus>
</clustering>
</event>
<event>
 9    1  0.1601012E-005  0.9315705E+02  0.7546771E-02  0.1295883E+00
          2   -1    0    0  502    0 -0.00000000000E+00  0.00000000000E+00  0.23034188222E+03  0.23034188222E+03  0.00000000000E+00 0. -1.
         21   -1    0    0  501  502  0.00000000000E+00 -0.00000000000E+00 -0.21616887611E+03  0.21616887611E+03  0.00000000000E+00 0. -1.
         23    2    1    2    0    0  0.76274754337E+01 -0.19920273077E+02  0.16447536585E+03  0.18911753968E+03  0.90875201136E+02 0.  0.
         23    2    1    2    0    0 -0.13735166981E+02 -0.88017791710E+01  0.10637659048E+02  0.93796306004E+02  0.91752172189E+02 0.  0.
        -11    1    4    4    0    0 -0.51480049514E+02  0.26644174955E+01 -0.40378917199E+01  0.51706858231E+02  0.00000000000E+00 0.  1.
         11    1    4    4    0    0  0.37744882534E+02 -0.11466196666E+02  0.14675550768E+02  0.42089447773E+02  0.00000000000E+00 0. -1.
        -13    1    3    3    0    0 -0.57898257127E+01  0.35633357039E+02  0.59589855192E+02  0.69672154104E+02  0.00000000000E+00 0.  1.
         13    1    3    3    0    0  0.13417301146E+02 -0.55553630116E+02  0.10488551066E+03  0.11944538557E+03  0.00000000000E+00 0. -1.
          2    1    1    2  501    0  0.61076915469E+01  0.28722052248E+02 -0.16094001879E+03  0.16359691265E+03  0.00000000000E+00 0. -1.
<scales pt_clust_5="13000.00000" pt_clust_6="13000.00000" pt_clust_7="13000.00000" pt_clust_8="13000.00000" pt_clust_9="29.36427"></scales>
<clustering>
<clus scale="   29.364">  2  9  1 -1</clus>
<clus scale="   90.875">  7  8 -1 -1</clus>
<clus scale="   91.752">  5  6 -1 -1</clus>
<clus scale="   92.293">  1  7  2 -1</clus>
<clus scale="   29.364">  2  5  1 -1</clus>
</clustering>
</event>
<event>
 9    1  0.1601012E-005  0.1663046E+03  0.7546771E-02  0.1181950E+00
         21   -1    0    0  501  502  0.00000000000E+00  0.00000000000E+00  0.44776244160E+02  0.44776244160E+02  0.00000000000E+00 0. -1.
          1   -1    0    0  502    0 -0.00000000000E+00 -0.00000000000E+00 -0.10069342331E+04  0.10069342331E+04  0.00000000000E+00 0. -1.
         23    2    1    2    0    0  0.10615299701E+03  0.61642254613E+02 -0.48252575124E+03  0.50618132047E+03  0.91215142685E+02 0.  0.
         23    2    1    2    0    0 -0.16605585517E+03 -0.62020585805E+02 -0.34467851790E+03  0.39787753290E+03  0.89900780766E+02 0.  0.
        -13    1    3    3    0    0  0.15996804494E+02  0.49397288668E+02 -0.96541207551E+02  0.10961840465E+03  0.00000000000E+00 0.  1.
         13    1    3    3    0    0  0.90156192518E+02  0.12244965945E+02 -0.38598454369E+03  0.39656291583E+03  0.00000000000E+00 0. -1.
        -13    1    4    4    0    0 -0.62082102540E+02 -0.67295830858E+02 -0.19649182655E+03  0.21677627685E+03  0.00000000000E+00 0.  1.
         13    1    4    4    0    0 -0.10397375263E+03  0.52752450526E+01 -0.14818669136E+03  0.18110125605E+03  0.00000000000E+00 0. -1.
          1    1    1    2  501    0  0.59902858160E+02  0.37833119199E+00 -0.13495371980E+03  0.14765162389E+03  0.00000000000E+00 0. -1.
<scales pt_clust_5="13000.00000" pt_clust_6="13000.00000" pt_clust_7="13000.00000" pt_clust_8="13000.00000" pt_clust_9="59.90405"></scales>
<clustering>
<clus scale="   59.904">  1  9  2 -1</clus>
<clus scale="   89.901">  7  8 -1 -1</clus>
<clus scale="   91.215">  5  6 -1 -1</clus>
<clus scale="  165.587">  1  7  2 -1</clus>
<clus scale="   59.904">  1  5  2 -1</clus>
</clustering>
</event>
<event>
 9    1  0.1601012E-005  0.1005464E+03  0.7546771E-02  0.1283004E+00
          4   -1    0    0  502    0 -0.00000000000E+00  0.00000000000E+00  0.36826053080E+02  0.36826053080E+02  0.00000000000E+00 0. -1.
         21   -1    0    0  501  502  0.00000000000E+00 -0.00000000000E+00 -0.38824529735E+03  0.38824529735E+03  0.00000000000E+00 0.  1.
         23    2    1    2    0    0  0.32075092107E+02  0.20473521271E+02 -0.85881963846E+02  0.13380189165E+03  0.95285139915E+02 0.  0.
         23    2    1    2    0    0 -0.26528603408E+02  0.58413240956E+01 -0.18902347594E+03  0.21016707349E+03  0.87763525768E+02 0.  0.
        -11    1    3    3    0    0 -0.57527175244E+00 -0.26316763423E+02 -0.69685874423E+02  0.74491771819E+02  0.00000000000E+00 0. -1.
         11    1    3    3    0    0  0.32650363860E+02  0.46790284694E+02 -0.16196089422E+02  0.59310119832E+02  0.00000000000E+00 0.  1.
        -11    1    4    4    0    0  0.23166294031E+02 -0.17569687410E+02 -0.11100306452E+03  0.11474777308E+03  0.00000000000E+00 0.  1.
         11    1    4    4    0    0 -0.49694897440E+02  0.23411011505E+02 -0.78020411426E+02  0.95419300408E+02  0.00000000000E+00 0. -1.
          4    1    1    2  501    0 -0.55464886990E+01 -0.26314845366E+02 -0.76513804478E+02  0.81102385287E+02  0.00000000000E+00 0. -1.
<scales pt_clust_5="13000.00000" pt_clust_6="13000.00000" pt_clust_7="13000.00000" pt_clust_8="13000.00000" pt_clust_9="26.89302"></scales>
<clustering>
<clus scale="   26.893">  2  9  1 -1</clus>
<clus scale="   87.764">  7  8 -1 -1</clus>
<clus scale="   93.449">  2  7  1 -1</clus>
<clus scale="   95.285">  5  6 -1 -1</clus>
<clus scale="   26.893">  2  5  1 -1</clus>
</clustering>
</event>
<event>
 9    1  0.1601012E-005  0.1868375E+03  0.7546771E-02  0.1182843E+00
          2   -1    0    0  502    0 -0.00000000000E+00  0.00000000000E+00  0.77218336780E+03  0.77218336780E+03  0.00000000000E+00 0. -1.
         21   -1    0    0  501  502  0.00000000000E+00 -0.00000000000E+00 -0.32128166457E+03  0.32128166457E+03  0.00000000000E+00 0. -1.
         23    2    1    2    0    0  0.49327385774E+02 -0.44123824630E+02  0.24406966913E+03  0.26957699319E+03  0.93389769147E+02 0.  0.
         23    2    1    2    0    0 -0.20297554454E+03 -0.72138147319E+01  0.46710541371E+03  0.51731742407E+03  0.90436380536E+02 0.  0.
        -11    1    3    3    0    0  0.33402745622E+02 -0.73247175927E+02  0.15796193955E+03  0.17729316552E+03  0.00000000000E+00 0.  1.
         11    1    3    3    0    0  0.15924640152E+02  0.29123351297E+02  0.86107729587E+02  0.92283827670E+02  0.00000000000E+00 0. -1.
        -13    1    4    4    0    0 -0.15696562283E+03 -0.11760306918E+02  0.43041419277E+03  0.45829345283E+03  0.00000000000E+00 0. -1.
         13    1    4    4    0    0 -0.46009921707E+02  0.45464921860E+01  0.36691220941E+02  0.59023971239E+02  0.00000000000E+00 0.  1.
          2    1    1    2  501    0  0.15364815876E+03  0.51337639361E+02 -0.26027337962E+03  0.30657061510E+03  0.00000000000E+00 0. -1.
<scales pt_clust_5="13000.00000" pt_clust_6="13000.00000" pt_clust_7="13000.00000" pt_clust_8="13000.00000" pt_clust_9="163.49164"></scales>
<clustering>
<clus scale="   90.436">  7  8 -1 -1</clus>
<clus scale="   93.390">  5  6 -1 -1</clus>
<clus scale="  114.463">  1  5  2 -1</clus>
<clus scale="  163.492">  2  9  1 -1</clus>
<clus scale="  163.492">  2  5  1 -1</clus>
</clustering>
</event>
<event>
 9    1  0.1601012E-005  0.9019226E+02  0.7546771E-02  0.1304978E+00
         -1   -1    0    0    0  501 -0.00000000000E+00  0.00000000000E+00  0.28996914351E+03  0.28996914351E+03  0.00000000000E+00 0.  1.
         21   -1    0    0  501  502  0.00000000000E+00 -0.00000000000E+00 -0.72320581504E+02  0.72320581504E+02  0.00000000000E+00 0.  1.
         23    2    1    2    0    0 -0.76941471108E+01  0.53269083970E+01  0.16957892355E+03  0.19022883628E+03  0.85687939568E+02 0.  0.
         23    2    1    2    0    0  0.60413526328E+01  0.16023161118E+02  0.87872037059E+02  0.12686367497E+03  0.89886915048E+02 0.  0.
        -11    1    3    3    0    0  0.17974106029E+02  0.29434648532E+02  0.14016621419E+03  0.14434692453E+03  0.00000000000E+00 0.  1.
         11    1    3    3    0    0 -0.25668253140E+02 -0.24107740135E+02  0.29412709359E+02  0.45881911746E+02  0.00000000000E+00 0. -1.
        -13    1    4    4    0    0  0.34941258065E+02  0.30349415053E+02  0.81881530000E+02  0.94056171857E+02  0.00000000000E+00 0.  1.
         13    1    4    4    0    0 -0.28899905433E+02 -0.14326253935E+02  0.59905070583E+01  0.32807503115E+02  0.00000000000E+00 0. -1.
         -1    1    1    2    0  502  0.16527944780E+01 -0.21350069515E+02 -0.39802398599E+02  0.45197213765E+02  0.00000000000E+00 0.  1.
<scales pt_clust_5="13000.00000" pt_clust_6="13000.00000" pt_clust_7="13000.00000" pt_clust_8="13000.00000" pt_clust_9="21.41395"></scales>
<clustering>
<clus scale="   21.414">  2  9  1 -1</clus>
<clus scale="   85.688">  5  6 -1 -1</clus>
<clus scale="   86.008">  1  5  2 -1</clus>
<clus scale="   89.887">  7  8 -1 -1</clus>
<clus scale="   21.414">  2  5  1 -1</clus>
</clustering>
</event>
<event>
 9    1  0.1601012E-005  0.1341261E+03  0.7546771E-02  0.1221580E+00
         -4   -1    0    0    0  501 -0.00000000000E+00  0.00000000000E+00  0.52118120776E+03  0.52118120776E+03  0.00000000000E+00 0.  1.
         21   -1    0    0  501  502  0.00000000000E+00 -0.00000000000E+00 -0.12782062320E+03  0.12782062320E+03  0.00000000000E+00 0. -1.
         23    2    1    2    0    0  0.14789290621E+02  0.97162134936E+02  0.45318025735E+03  0.47299256370E+03  0.93222401176E+02 0.  0.
         23    2    1    2    0    0  0.12598827365E+02 -0.81027792248E+02 -0.21742117956E+02  0.12640759187E+03  0.93711931049E+02 0.  0.
        -11    1    4    4    0    0  0.12731499036E+02 -0.17732405276E+02  0.35100326603E+02  0.41334757677E+02  0.00000000000E+00 0.  1.
         11    1    4    4    0    0 -0.13267167062E+00 -0.63295386972E+02 -0.56842444560E+02  0.85072834190E+02  0.00000000000E+00 0. -1.
        -13    1    3    3    0    0  0.45508982409E+02  0.60895683696E+02  0.17526269224E+03  0.19104021321E+03  0.00000000000E+00 0. -1.
         13    1    3    3    0    0 -0.30719691788E+02  0.36266451240E+02  0.27791756511E+03  0.28195235049E+03  0.00000000000E+00 0.  1.
         -4    1    1    2    0  502 -0.27388117986E+02 -0.16134342688E+02 -0.38077554830E+02  0.49601675401E+02  0.00000000000E+00 0.  1.
<scales pt_clust_5="13000.00000" pt_clust_6="13000.00000" pt_clust_7="13000.00000" pt_clust_8="13000.00000" pt_clust_9="31.78720"></scales>
<clustering>
<clus scale="   31.787">  2  9  1 -1</clus>
<clus scale="   93.222">  7  8 -1 -1</clus>
<clus scale="   93.712">  5  6 -1 -1</clus>
<clus scale="  133.784">  1  7  2 -1</clus>
<clus scale="   31.787">  2  5  1 -1</clus>
</clustering>
</event>
<event>
 9    1  0.1601012E-005  0.9124720E+02  0.7546771E-02  0.1300775E+00
         21   -1    0    0  501  502  0.00000000000E+00  0.00000000000E+00  0.50208209812E+02  0.50208209812E+02  0.00000000000E+00 0.  1.
          1   -1    0    0  502    0 -0.00000000000E+00 -0.00000000000E+00 -0.44718853015E+03  0.44718853015E+03  0.00000000000E+00 0. -1.
         23    2    1    2    0    0 -0.41243176689E+01 -0.14679398422E+02 -0.36562421965E+03  0.37654206662E+03  0.88715067520E+02 0.  0.
         23    2    1    2    0    0  0.17783218799E+02 -0.56167743685E+01 -0.22876889095E+02  0.94962642921E+02  0.90259406550E+02 0.  0.
        -13    1    4    4    0    0  0.41613245254E+02  0.48469551815E+01  0.18726349664E+02  0.45889337834E+02  0.00000000000E+00 0.  1.
         13    1    4    4    0    0 -0.23830026455E+02 -0.10463729550E+02 -0.41603238759E+02  0.49073305087E+02  0.00000000000E+00 0. -1.
        -13    1    3    3    0    0 -0.15093957417E+02  0.31911295424E+02 -0.87904424050E+02  0.94727747222E+02  0.00000000000E+00 0.  1.
         13    1    3    3    0    0  0.10969639748E+02 -0.46590693846E+02 -0.27771979560E+03  0.28181431940E+03  0.00000000000E+00 0. -1.
          1    1    1    2  501    0 -0.13658901130E+02  0.20296172790E+02 -0.84792115911E+01  0.25892030419E+02  0.00000000000E+00 0. -1.
<scales pt_clust_5="13000.00000" pt_clust_6="13000.00000" pt_clust_7="13000.00000" pt_clust_8="13000.00000" pt_clust_9="24.46426"></scales>
<clustering>
<clus scale="   24.464">  1  9  2 -1</clus>
<clus scale="   88.715">  7  8 -1 -1</clus>
<clus scale="   89.720">  2  7  1 -1</clus>
<clus scale="   90.259">  5  6 -1 -1</clus>
<clus scale="   24.464">  1  5  2 -1</clus>
</clustering>
</event>
<event>
 9    1  0.1601012E-005  0.1893185E+03  0.7546771E-02  0.1159207E+00
          1   -1    0    0  502    0 -0.00000000000E+00  0.00000000000E+00  0.83956758829E+03  0.83956758829E+03  0.00000000000E+00 0. -1.
         21   -1    0    0  501  502  0.00000000000E+00 -0.00000000000E+00 -0.13946125195E+03  0.13946125195E+03  0.00000000000E+00 0. -1.
         23    2    1    2    0    0 -0.21696570683E+02  0.15934067946E+03  0.63536396137E+03  0.66185079755E+03  0.92189595364E+02 0.  0.
         23    2    1    2    0    0 -0.39456467358E+02 -0.20630932516E+03  0.24567142059E+02  0.23023094913E+03  0.91007664545E+02 0.  0.
        -13    1    4    4    0    0  0.13691049487E+02 -0.68045554030E+02  0.41928389010E+02  0.81090271083E+02  0.00000000000E+00 0.  1.
         13    1    4    4    0    0 -0.53147516845E+02 -0.13826377113E+03 -0.17361246951E+02  0.14914067805E+03  0.00000000000E+00 0. -1.
        -13    1    3    3    0    0 -0.51482552749E+02  0.14156187362E+03  0.51092399924E+03  0.53266645314E+03  0.00000000000E+00 0. -1.
         13    1    3    3    0    0  0.29785982066E+02  0.17778805839E+02  0.12443996214E+03  0.12918434441E+03  0.00000000000E+00 0.  1.
          1    1    1    2  501    0  0.61153038041E+02  0.46968645699E+02  0.40175232903E+02  0.86947093564E+02  0.00000000000E+00 0. -1.
<scales pt_clust_5="13000.00000" pt_clust_6="13000.00000" pt_clust_7="13000.00000" pt_clust_8="13000.00000" pt_clust_9="77.10867"></scales>
<clustering>
<clus scale="   77.109">  2  9  1 -1</clus>
<clus scale="   91.008">  5  6 -1 -1</clus>
<clus scale="   92.190">  7  8 -1 -1</clus>
<clus scale="  188.746">  2  5  1 -1</clus>
<clus scale="   77.109">  2  5  1 -1</clus>
</clustering>
</event>
<event>
 9    1  0.1601012E-005  0.9365304E+02  0.7546771E-02  0.1295554E+00
         21   -1    0    0  501  502  0.00000000000E+00  0.00000000000E+00  0.56426516767E+02  0.56426516767E+02  0.00000000000E+00 0.  1.
         -1   -1    0    0    0  501 -0.00000000000E+00 -0.00000000000E+00 -0.40073601158E+03  0.40073601158E+03  0.00000000000E+00 0.  1.
         23    2    1    2    0    0  0.12358709196E+02 -0.12512437433E+02 -0.27155675977E+03  0.28635843467E+03  0.89155933884E+02 0.  0.
         23    2    1    2    0    0  0.18209941202E+02  0.49411316828E+02 -0.40534094953E+02  0.11306320299E+03  0.91472371938E+02 0.  0.
        -11    1    3    3    0    0 -0.78929946957E+01 -0.48718711889E+02 -0.14358486112E+03  0.15183024928E+03  0.00000000000E+00 0.  1.
         11    1    3    3    0    0  0.20251703892E+02  0.36206274456E+02 -0.12797189864E+03  0.13452818539E+03  0.00000000000E+00 0. -1.
        -13    1    4    4    0    0 -0.12848465857E+02  0.26469001227E+02  0.23925956647E+02  0.37922849343E+02  0.00000000000E+00 0.  1.
         13    1    4    4    0    0  0.31058407058E+02  0.22942315601E+02 -0.64460051601E+02  0.75140353649E+02  0.00000000000E+00 0. -1.
         -1    1    1    2    0  502 -0.30568650398E+02 -0.36898879395E+02 -0.32218640091E+02  0.57740890685E+02  0.00000000000E+00 0.  1.
<scales pt_clust_5="13000.00000" pt_clust_6="13000.00000" pt_clust_7="13000.00000" pt_clust_8="13000.00000" pt_clust_9="47.91628"></scales>
<clustering>
<clus scale="   47.916">  1  9  2 -1</clus>
<clus scale="   89.156">  5  6 -1 -1</clus>
<clus scale="   91.392">  2  5  1 -1</clus>
<clus scale="   91.472">  7  8 -1 -1</clus>
<clus scale="   47.916">  1  5  2 -1</clus>
</clustering>
</event>
<event>
 9    1  0.1601012E-005  0.3186587E+03  0.7546771E-02  0.1123196E+00
         21   -1    0    0  501  502  0.00000000000E+00  0.00000000000E+00  0.65983783811E+03  0.65983783811E+03  0.00000000000E+00 0.  1.
         -4   -1    0    0    0  501 -0.00000000000E+00 -0.00000000000E+00 -0.62077817966E+03  0.62077817966E+03  0.00000000000E+00 0.  1.
         23    2    1    2    0    0 -0.19129352745E+02  0.15563638293E+02 -0.40146845349E+03  0.41236936272E+03  0.90903317813E+02 0.  0.
         23    2    1    2    0    0  0.14121215677E+03  0.26554917408E+03 -0.19886329293E+02  0.31515526837E+03  0.92033363588E+02 0.  0.
        -13    1    3    3    0    0  0.75952970791E+01  0.49963431105E+02 -0.20656801571E+03  0.21266024100E+03  0.00000000000E+00 0.  1.
         13    1    3    3    0    0 -0.26724649824E+02 -0.34399792811E+02 -0.19490043778E+03  0.19970912173E+03  0.00000000000E+00 0. -1.
        -13    1    4    4    0    0  0.11772841029E+03  0.26477091602E+03 -0.10809335344E+02  0.28996630544E+03  0.00000000000E+00 0.  1.
         13    1    4    4    0    0  0.23483746481E+02  0.77825806184E+00 -0.90769939483E+01  0.25188962931E+02  0.00000000000E+00 0. -1.
         -4    1    1    2    0  502 -0.12208280402E+03 -0.28111281238E+03  0.46041444123E+03  0.55309138668E+03  0.00000000000E+00 0.  1.
<scales pt_clust_5="13000.00000" pt_clust_6="13000.00000" pt_clust_7="13000.00000" pt_clust_8="13000.00000" pt_clust_9="305.07906"></scales>
<clustering>
<clus scale="   90.903">  5  6 -1 -1</clus>
<clus scale="   92.033">  7  8 -1 -1</clus>
<clus scale="   94.189">  2  5  1 -1</clus>
<clus scale="  305.079">  1  9  2 -1</clus>
<clus scale="  305.079">  1  5  2 -1</clus>
</clustering>
</event>
<event>
 9    1  0.1601012E-005  0.1060270E+03  0.7546771E-02  0.1268598E+00
          1   -1    0    0  502    0 -0.00000000000E+00  0.00000000000E+00  0.34260300036E+03  0.34260300036E+03  0.00000000000E+00 0. -1.
         21   -1    0    0  501  502  0.00000000000E+00 -0.00000000000E+00 -0.70908249834E+02  0.70908249834E+02  0.00000000000E+00 0.  1.
         23    2    1    2    0    0 -0.19255431341E+02 -0.41760907105E+02  0.22263663798E+03  0.24505126357E+03  0.91478435765E+02 0.  0.
         23    2    1    2    0    0  0.12484456806E+02  0.68446753949E+02  0.68659468374E+02  0.13466363078E+03  0.92624786482E+02 0.  0.
        -13    1    4    4    0    0 -0.22543917026E+02  0.76271902338E+02  0.41910500259E+02  0.89900619092E+02  0.00000000000E+00 0.  1.
         13    1    4    4    0    0  0.35028373832E+02 -0.78251483890E+01  0.26748968114E+02  0.44763011692E+02  0.00000000000E+00 0. -1.
        -13    1    3    3    0    0  0.11908808022E+02 -0.53055128483E+02  0.68848369133E+02  0.87731204820E+02  0.00000000000E+00 0. -1.
         13    1    3    3    0    0 -0.31164239363E+02  0.11294221378E+02  0.15378826885E+03  0.15732005875E+03  0.00000000000E+00 0.  1.
          1    1    1    2  501    0  0.67709745356E+01 -0.26685846844E+02 -0.19601355823E+02  0.33796355840E+02  0.00000000000E+00 0. -1.
<scales pt_clust_5="13000.00000" pt_clust_6="13000.00000" pt_clust_7="13000.00000" pt_clust_8="13000.00000" pt_clust_9="27.53145"></scales>
<clustering>
<clus scale="   27.531">  2  9  1 -1</clus>
<clus scale="   91.478">  7  8 -1 -1</clus>
<clus scale="   92.625">  5  6 -1 -1</clus>
<clus scale="  105.027">  1  7  2 -1</clus>
<clus scale="   27.531">  2  5  1 -1</clus>
</clustering>
</event>
<event>
 9    1  0.1601012E-005  0.9424489E+02  0.7546771E-02  0.1293508E+00
         21   -1    0    0  501  502  0.00000000000E+00  0.00000000000E+00  0.80267619252E+02  0.80267619252E+02  0.00000000000E+00 0. -1.
          2   -1    0    0  502    0 -0.00000000000E+00 -0.00000000000E+00 -0.46066632751E+03  0.46066632751E+03  0.00000000000E+00 0. -1.
         23    2    1    2    0    0  0.22692150209E+01 -0.13202212476E+02 -0.33138744162E+03  0.34448621484E+03  0.93132529229E+02 0.  0.
         23    2    1    2    0    0  0.94717353461E+00 -0.55040180309E+02 -0.63999159586E+02  0.12650485335E+03  0.94219249133E+02 0.  0.
        -11    1    3    3    0    0  0.89638419754E+01 -0.52023041759E+02 -0.22296059586E+03  0.22912480146E+03  0.00000000000E+00 0. -1.
         11    1    3    3    0    0 -0.66946269545E+01  0.38820829282E+02 -0.10842684576E+03  0.11536141338E+03  0.00000000000E+00 0.  1.
        -11    1    4    4    0    0 -0.34218541518E+02  0.55789358551E+01 -0.52680963306E+01  0.35068304034E+02  0.00000000000E+00 0.  1.
         11    1    4    4    0    0  0.35165715052E+02 -0.60619116164E+02 -0.58731063255E+02  0.91436549316E+02  0.00000000000E+00 0. -1.
          2    1    1    2  501    0 -0.32163885555E+01  0.68242392785E+02  0.14987892945E+02  0.69942878575E+02  0.00000000000E+00 0. -1.
<scales pt_clust_5="13000.00000" pt_clust_6="13000.00000" pt_clust_7="13000.00000" pt_clust_8="13000.00000" pt_clust_9="68.31815"></scales>
<clustering>
<clus scale="   68.318">  1  9  2 -1</clus>
<clus scale="   93.133">  5  6 -1 -1</clus>
<clus scale="   93.158">  2  5  1 -1</clus>
<clus scale="   94.219">  7  8 -1 -1</clus>
<clus scale="   68.318">  1  5  2 -1</clus>
</clustering>
</event>
<event>
 9    1  0.1601012E-005  0.1069160E+03  0.7546771E-02  0.1267056E+00
          3   -1    0    0  502    0 -0.00000000000E+00  0.00000000000E+00  0.41834476598E+03  0.41834476598E+03  0.00000000000E+00 0. -1.
         21   -1    0    0  501  502  0.00000000000E+00 -0.00000000000E+00 -0.74275799645E+02  0.74275799645E+02  0.00000000000E+00 0. -1.
         23    2    1    2    0    0  0.44499709481E+02 -0.43920308213E+02  0.22121282136E+03  0.24713912455E+03  0.90738177923E+02 0.  0.
         23    2    1    2    0    0 -0.48488189599E+02  0.80664764854E+01  0.16162664687E+03  0.19252337237E+03  0.92335818388E+02 0.  0.
        -11    1    3    3    0    0  0.29274710978E+02 -0.63231831895E+02  0.90941934314E+02  0.11456748528E+03  0.00000000000E+00 0.  1.
         11    1    3    3    0    0  0.15224998503E+02  0.19311523682E+02  0.13027088704E+03  0.13257163926E+03  0.00000000000E+00 0. -1.
        -11    1    4    4    0    0 -0.21590859678E+02 -0.40500427802E+02  0.50113146317E+02  0.67954229504E+02  0.00000000000E+00 0. -1.
         11    1    4    4    0    0 -0.26897329920E+02  0.48566904287E+02  0.11151350056E+03  0.12456914287E+03  0.00000000000E+00 0.  1.
          3    1    1    2  501    0  0.39884801173E+01  0.35853831728E+02 -0.38770501896E+02  0.52958068701E+02  0.00000000000E+00 0. -1.
<scales pt_clust_5="13000.00000" pt_clust_6="13000.00000" pt_clust_7="13000.00000" pt_clust_8="13000.00000" pt_clust_9="36.07499"></scales>
<clustering>
<clus scale="   36.075">  2  9  1 -1</clus>
<clus scale="   90.738">  5  6 -1 -1</clus>
<clus scale="   92.336">  7  8 -1 -1</clus>
<clus scale="  105.539">  1  5  2 -1</clus>
<clus scale="   36.075">  2  5  1 -1</clus>
</clustering>
</event>
<event>
 9    1  0.1601012E-005  0.1162830E+03  0.7546771E-02  0.1250444E+00
         21   -1    0    0  501  502  0.00000000000E+00  0.00000000000E+00  0.70644412398E+02  0.70644412398E+02  0.00000000000E+00 0. -1.
          2   -1    0    0  502    0 -0.00000000000E+00 -0.00000000000E+00 -0.47811092827E+03  0.47811092827E+03  0.00000000000E+00 0. -1.
         23    2    1    2    0    0  0.23707324609E+01 -0.73464601992E+02 -0.39932944617E+03  0.41592832248E+03  0.90164819903E+02 0.  0.
         23    2    1    2    0    0 -0.55560428361E+01  0.44771544152E+02 -0.44797510054E+01  0.10372695375E+03  0.93294437066E+02 0.  0.
        -13    1    3    3    0    0 -0.29685588136E+02 -0.46907741202E+02 -0.33316435928E+03  0.33775739906E+03  0.00000000000E+00 0. -1.
         13    1    3    3    0    0  0.32056320597E+02 -0.26556860790E+02 -0.66165086886E+02  0.78170923417E+02  0.00000000000E+00 0.  1.
        -13    1    4    4    0    0  0.13764114035E+02  0.70013412956E+02 -0.77446293099E+01  0.71772613942E+02  0.00000000000E+00 0.  1.
         13    1    4    4    0    0 -0.19320156871E+02 -0.25241868804E+02  0.32648783046E+01  0.31954339808E+02  0.00000000000E+00 0. -1.
          2    1    1    2  501    0  0.31853103752E+01  0.28693057839E+02 -0.36573187035E+01  0.29100064441E+02  0.00000000000E+00 0. -1.
<scales pt_clust_5="13000.00000" pt_clust_6="13000.00000" pt_clust_7="13000.00000" pt_clust_8="13000.00000" pt_clust_9="28.86932"></scales>
<clustering>
<clus scale="   28.869">  1  9  2 -1</clus>
<clus scale="   90.165">  5  6 -1 -1</clus>
<clus scale="   93.294">  7  8 -1 -1</clus>
<clus scale="  113.787">  2  5  1 -1</clus>
<clus scale="   28.869">  1  5  2 -1</clus>
</clustering>
</event>
<event>
 9    1  0.1601012E-005  0.2331188E+03  0.7546771E-02  0.1146606E+00
         21   -1    0    0  501  502  0.00000000000E+00  0.00000000000E+00  0.42923565531E+03  0.42923565531E+03  0.00000000000E+00 0.  1.
          4   -1    0    0  502    0 -0.00000000000E+00 -0.00000000000E+00 -0.44304860787E+03  0.44304860787E+03  0.00000000000E+00 0.  1.
         23    2    1    2    0    0 -0.59902890935E+02 -0.81145068186E+02 -0.21489593371E+03  0.25434746215E+03  0.91320812220E+02 0.  0.
         23    2    1    2    0    0  0.91072743544E+02  0.27393322288E+03 -0.39341180270E+02  0.30819076038E+03  0.10049955773E+03 0.  0.
        -11    1    3    3    0    0 -0.56403470684E+02 -0.32861636678E+01 -0.11006272899E+03  0.12371723683E+03  0.00000000000E+00 0.  1.
         11    1    3    3    0    0 -0.34994202507E+01 -0.77858904518E+02 -0.10483320472E+03  0.13063022532E+03  0.00000000000E+00 0. -1.
        -13    1    4    4    0    0  0.27440174312E+02  0.23797689769E+02  0.22574614503E+02  0.42765715528E+02  0.00000000000E+00 0. -1.
         13    1    4    4    0    0  0.63632569232E+02  0.25013553311E+03 -0.61915794773E+02  0.26542504485E+03  0.00000000000E+00 0.  1.
          4    1    1    2  501    0 -0.31169852609E+02 -0.19278815469E+03  0.24042416142E+03  0.30974604065E+03  0.00000000000E+00 0.  1.
<scales pt_clust_5="13000.00000" pt_clust_6="13000.00000" pt_clust_7="13000.00000" pt_clust_8="13000.00000" pt_clust_9="210.34314"></scales>
<clustering>
<clus scale="   91.321">  5  6 -1 -1</clus>
<clus scale="  100.500">  7  8 -1 -1</clus>
<clus scale="  136.060">  2  5  1 -1</clus>
<clus scale="  210.343">  1  9  2 -1</clus>
<clus scale="  210.343">  1  5  2 -1</clus>
</clustering>
</event>
<event>
 9    1  0.1601012E-005  0.1176723E+03  0.7546771E-02  0.1249871E+00
         21   -1    0    0  501  502  0.00000000000E+00  0.00000000000E+00  0.29849416999E+03  0.29849416999E+03  0.00000000000E+00 0.  1.
         -2   -1    0    0    0  501 -0.00000000000E+00 -0.00000000000E+00 -0.13471103605E+03  0.13471103605E+03  0.00000000000E+00 0.  1.
         23    2    1    2    0    0 -0.57234525996E+02  0.28450324204E+02 -0.69342767627E+02  0.13107591242E+03  0.91034408229E+02 0.  0.
         23    2    1    2    0    0  0.66077138212E+02 -0.54147288479E+01  0.72165300951E+02  0.13928843450E+03  0.98984492936E+02 0.  0.
        -13    1    4    4    0    0  0.85426385905E+02 -0.17459334391E+02  0.76610148786E+02  0.11606726784E+03  0.00000000000E+00 0. -1.
         13    1    4    4    0    0 -0.19349247693E+02  0.12044605543E+02 -0.44448478351E+01  0.23221166664E+02  0.00000000000E+00 0.  1.
        -13    1    3    3    0    0 -0.48760420265E+02  0.47955960578E+02 -0.81646886357E+02  0.10650618194E+03  0.00000000000E+00 0.  1.
         13    1    3    3    0    0 -0.84741057314E+01 -0.19505636374E+02  0.12304118729E+02  0.24569730483E+02  0.00000000000E+00 0. -1.
         -2    1    1    2    0  502 -0.88426122161E+01 -0.23035595356E+02  0.16096060062E+03  0.16284085912E+03  0.00000000000E+00 0.  1.
<scales pt_clust_5="13000.00000" pt_clust_6="13000.00000" pt_clust_7="13000.00000" pt_clust_8="13000.00000" pt_clust_9="24.67449"></scales>
<clustering>
<clus scale="   24.674">  1  9  2 -1</clus>
<clus scale="   91.034">  7  8 -1 -1</clus>
<clus scale="   98.984">  5  6 -1 -1</clus>
<clus scale="  111.068">  2  7  1 -1</clus>
<clus scale="   24.674">  1  5  2 -1</clus>
</clustering>
</event>
<event>
 9    1  0.1601012E-005  0.1278316E+03  0.7546771E-02  0.1232876E+00
          1   -1    0    0  502    0 -0.00000000000E+00  0.00000000000E+00  0.67157654601E+03  0.67157654601E+03  0.00000000000E+00 0. -1.
         21   -1    0    0  501  502  0.00000000000E+00 -0.00000000000E+00 -0.28228859414E+02  0.28228859414E+02  0.00000000000E+00 0. -1.
         23    2    1    2    0    0  0.16751083129E+02  0.89380433702E+02  0.36989586228E+03  0.39337336705E+03  0.98235412469E+02 0.  0.
         23    2    1    2    0    0 -0.22442281393E+02 -0.68237598541E+02  0.23941350959E+03  0.26595962695E+03  0.90860710685E+02 0.  0.
        -13    1    3    3    0    0 -0.32399686732E+02  0.18712584148E+02  0.19362937584E+03  0.19721114495E+03  0.00000000000E+00 0.  1.
         13    1    3    3    0    0  0.49150769861E+02  0.70667849554E+02  0.17626648644E+03  0.19616222210E+03  0.00000000000E+00 0. -1.
        -13    1    4    4    0    0 -0.42500389613E+02 -0.29581481662E+02  0.51373421432E+02  0.72942275837E+02  0.00000000000E+00 0. -1.
         13    1    4    4    0    0  0.20058108221E+02 -0.38656116879E+02  0.18804008816E+03  0.19301735112E+03  0.00000000000E+00 0.  1.
          1    1    1    2  501    0  0.56911982636E+01 -0.21142835161E+02  0.34038314727E+02  0.40472411415E+02  0.00000000000E+00 0. -1.
<scales pt_clust_5="13000.00000" pt_clust_6="13000.00000" pt_clust_7="13000.00000" pt_clust_8="13000.00000" pt_clust_9="21.89542"></scales>
<clustering>
<clus scale="   21.895">  2  9  1 -1</clus>
<clus scale="   90.861">  7  8 -1 -1</clus>
<clus scale="   98.235">  5  6 -1 -1</clus>
<clus scale="  122.255">  2  7  1 -1</clus>
<clus scale="   21.895">  2  5  1 -1</clus>
</clustering>
</event>
<event>
 9    1  0.1601012E-005  0.1041342E+03  0.7546771E-02  0.1273048E+00
         21   -1    0    0  501  502  0.00000000000E+00  0.00000000000E+00  0.18870141167E+03  0.18870141167E+03  0.00000000000E+00 0.  1.
         -3   -1    0    0    0  501 -0.00000000000E+00 -0.00000000000E+00 -0.10698643061E+03  0.10698643061E+03  0.00000000000E+00 0.  1.
         23    2    1    2    0    0 -0.36209430801E+02 -0.13632635129E+02 -0.31151504994E+02  0.10277480062E+03  0.89973728158E+02 0.  0.
         23    2    1    2    0    0  0.69897081374E+02  0.17966865481E+02  0.65098756522E+02  0.13430076191E+03  0.92684606644E+02 0.  0.
        -13    1    3    3    0    0 -0.28828529277E+02  0.36836441138E+02 -0.11989871788E+02  0.48288347678E+02  0.00000000000E+00 0. -1.
         13    1    3    3    0    0 -0.73809015245E+01 -0.50469076267E+02 -0.19161633207E+02  0.54486452938E+02  0.00000000000E+00 0.  1.
        -13    1    4    4    0    0 -0.15251005175E+02  0.19888568337E+02  0.36856109759E+02  0.44570406504E+02  0.00000000000E+00 0. -1.
         13    1    4    4    0    0  0.85148086549E+02 -0.19217028565E+01  0.28242646763E+02  0.89730355405E+02  0.00000000000E+00 0.  1.
         -3    1    1    2    0  502 -0.33687650573E+02 -0.43342303513E+01  0.47767729527E+02  0.58612279755E+02  0.00000000000E+00 0.  1.
<scales pt_clust_5="13000.00000" pt_clust_6="13000.00000" pt_clust_7="13000.00000" pt_clust_8="13000.00000" pt_clust_9="33.96533"></scales>
<clustering>
<clus scale="   33.965">  1  9  2 -1</clus>
<clus scale="   89.974">  5  6 -1 -1</clus>
<clus scale="   92.685">  7  8 -1 -1</clus>
<clus scale="  101.729">  2  5  1 -1</clus>
<clus scale="   33.965">  1  5  2 -1</clus>
</clustering>
</event>
<event>
 9    1  0.1601012E-005  0.1084234E+03  0.7546771E-02  0.1271586E+00
         -3   -1    0    0    0  501 -0.00000000000E+00  0.00000000000E+00  0.21371291656E+03  0.21371291656E+03  0.00000000000E+00 0.  1.
         21   -1    0    0  501  502  0.00000000000E+00 -0.00000000000E+00 -0.93259031587E+02  0.93259031587E+02  0.00000000000E+00 0. -1.
         23    2    1    2    0    0 -0.22506298358E+02 -0.12340110108E+02  0.99566356010E+02  0.13529815366E+03  0.87939293564E+02 0.  0.
         23    2    1    2    0    0  0.20501277333E+02  0.33100546951E+02  0.60596771822E+02  0.12682025709E+03  0.10438132148E+03 0.  0.
        -11    1    3    3    0    0 -0.52585174584E+02  0.32683713305E+01  0.37791186666E+02  0.64838696986E+02  0.00000000000E+00 0. -1.
         11    1    3    3    0    0  0.30078876226E+02 -0.15608481439E+02  0.61775169345E+02  0.70459456678E+02  0.00000000000E+00 0.  1.
        -11    1    4    4    0    0  0.18961381508E+02 -0.33751220660E+02  0.42618426935E+02  0.57576116569E+02  0.00000000000E+00 0.  1.
         11    1    4    4    0    0  0.15398958257E+01  0.66851767611E+02  0.17978344887E+02  0.69244140523E+02  0.00000000000E+00 0. -1.
         -3    1    1    2    0  502  0.20050210247E+01 -0.20760436843E+02 -0.39709242863E+02  0.44853537386E+02  0.00000000000E+00 0.  1.
<scales pt_clust_5="13000.00000" pt_clust_6="13000.00000" pt_clust_7="13000.00000" pt_clust_8="13000.00000" pt_clust_9="20.85703"></scales>
<clustering>
<clus scale="   20.857">  2  9  1 -1</clus>
<clus scale="   87.939">  5  6 -1 -1</clus>
<clus scale="   92.701">  1  5  2 -1</clus>
<clus scale="  104.381">  7  8 -1 -1</clus>
<clus scale="   20.857">  2  5  1 -1</clus>
</clustering>
</event>
<event>
 9    1  0.1601012E-005  0.2010747E+03  0.7546771E-02  0.1167769E+00
         21   -1    0    0  501  502  0.00000000000E+00  0.00000000000E+00  0.66926388377E+03  0.66926388377E+03  0.00000000000E+00 0. -1.
         -1   -1    0    0    0  501 -0.00000000000E+00 -0.00000000000E+00 -0.19675651793E+03  0.19675651793E+03  0.00000000000E+00 0.  1.
         23    2    1    2    0    0 -0.83697813149E+02 -0.44445613774E+02 -0.36504044778E+02  0.13428544054E+03  0.87859534173E+02 0.  0.
         23    2    1    2    0    0 -0.11746888280E+03 -0.11348016891E+03  0.42218518629E+03  0.46164722426E+03  0.90560151183E+02 0.  0.
        -11    1    4    4    0    0 -0.85069113488E+02 -0.10052782918E+03  0.39792285073E+03  0.41914817624E+03  0.00000000000E+00 0. -1.
         11    1    4    4    0    0 -0.32399769315E+02 -0.12952339726E+02  0.24262335559E+02  0.42499048022E+02  0.00000000000E+00 0.  1.
        -13    1    3    3    0    0 -0.14999540245E+02 -0.48094958051E+02  0.98463681091E+01  0.51332856558E+02  0.00000000000E+00 0.  1.
         13    1    3    3    0    0 -0.68698272904E+02  0.36493442774E+01 -0.46350412887E+02  0.82952583978E+02  0.00000000000E+00 0. -1.
         -1    1    1    2    0  502  0.20116669595E+03  0.15792578268E+03  0.86826224334E+02  0.27008773691E+03  0.00000000000E+00 0.  1.
<scales pt_clust_5="13000.00000" pt_clust_6="13000.00000" pt_clust_7="13000.00000" pt_clust_8="13000.00000" pt_clust_9="179.52700"></scales>
<clustering>
<clus scale="   87.860">  7  8 -1 -1</clus>
<clus scale="   90.560">  5  6 -1 -1</clus>
<clus scale="  129.229">  2  7  1 -1</clus>
<clus scale="  179.527">  1  9  2 -1</clus>
<clus scale="  179.527">  1  5  2 -1</clus>
</clustering>
</event>
<event>
 9    1  0.1601012E-005  0.1344462E+03  0.7546771E-02  0.1242316E+00
          2   -1    0    0  502    0 -0.00000000000E+00  0.00000000000E+00  0.16823901859E+03  0.16823901859E+03  0.00000000000E+00 0. -1.
         21   -1    0    0  501  502  0.00000000000E+00 -0.00000000000E+00 -0.37066984759E+03  0.37066984759E+03  0.00000000000E+00 0. -1.
         23    2    1    2    0    0  0.79844426687E+01 -0.25289766355E+02  0.76721337401E+02  0.11575930343E+03  0.82527141661E+02 0.  0.
         23    2    1    2    0    0  0.91880709301E+02  0.25731430326E+02 -0.56535036251E+01  0.13198850391E+03  0.91021051478E+02 0.  0.
        -11    1    4    4    0    0  0.18754843366E+02 -0.31091170512E+02 -0.14198779710E+02  0.38987310484E+02  0.00000000000E+00 0.  1.
         11    1    4    4    0    0  0.73125865935E+02  0.56822600839E+02  0.85452760851E+01  0.93001193423E+02  0.00000000000E+00 0. -1.
        -11    1    3    3    0    0 -0.19203111498E+01  0.29687648065E+02  0.35598326246E+02  0.46392724366E+02  0.00000000000E+00 0.  1.
         11    1    3    3    0    0  0.99047538185E+01 -0.54977414420E+02  0.41123011155E+02  0.69366579063E+02  0.00000000000E+00 0. -1.
          2    1    1    2  501    0 -0.99865151969E+02 -0.44166397169E+00 -0.27349866278E+03  0.29116105884E+03  0.00000000000E+00 0. -1.
<scales pt_clust_5="13000.00000" pt_clust_6="13000.00000" pt_clust_7="13000.00000" pt_clust_8="13000.00000" pt_clust_9="98.94927"></scales>
<clustering>
<clus scale="   82.527">  7  8 -1 -1</clus>
<clus scale="   86.684">  1  7  2 -1</clus>
<clus scale="   91.021">  5  6 -1 -1</clus>
<clus scale="   98.949">  2  9  1 -1</clus>
<clus scale="   98.949">  2  5  1 -1</clus>
</clustering>
</event>
<event>
 9    1  0.1601012E-005  0.1107920E+03  0.7546771E-02  0.1265988E+00
         21   -1    0    0  501  502  0.00000000000E+00  0.00000000000E+00  0.34771882185E+02  0.34771882185E+02  0.00000000000E+00 0. -1.
         -4   -1    0    0    0  501 -0.00000000000E+00 -0.00000000000E+00 -0.58538072602E+03  0.58538072602E+03  0.00000000000E+00 0.  1.
         23    2    1    2    0    0 -0.53663687921E+01  0.32237018147E+02 -0.26032346741E+03  0.27815020292E+03  0.92364519420E+02 0.  0.
         23    2    1    2    0    0  0.52479423726E+02  0.56165872831E+01 -0.21039916658E+03  0.24183084289E+03  0.10690515099E+03 0.  0.
        -11    1    3    3    0    0  0.24421542060E+02  0.55121286006E+02 -0.15353268724E+03  0.16494560903E+03  0.00000000000E+00 0.  1.
         11    1    3    3    0    0 -0.29787910852E+02 -0.22884267860E+02 -0.10679078017E+03  0.11320459389E+03  0.00000000000E+00 0. -1.
        -13    1    4    4    0    0  0.72300121855E+02  0.31003291135E+02 -0.18426129771E+03  0.20035153485E+03  0.00000000000E+00 0.  1.
         13    1    4    4    0    0 -0.19820698129E+02 -0.25386703852E+02 -0.26137868871E+02  0.41479308045E+02  0.00000000000E+00 0. -1.
         -4    1    1    2    0  502 -0.47113054934E+02 -0.37853605430E+02 -0.79886209849E+02  0.10017156240E+03  0.00000000000E+00 0.  1.
<scales pt_clust_5="13000.00000" pt_clust_6="13000.00000" pt_clust_7="13000.00000" pt_clust_8="13000.00000" pt_clust_9="60.43621"></scales>
<clustering>
<clus scale="   60.436">  1  9  2 -1</clus>
<clus scale="   92.365">  5  6 -1 -1</clus>
<clus scale="   96.837">  2  5  1 -1</clus>
<clus scale="  106.905">  7  8 -1 -1</clus>
<clus scale="   60.436">  1  5  2 -1</clus>
</clustering>
</event>
<event>
 9    1  0.1601012E-005  0.1492763E+03  0.7546771E-02  0.1217727E+00
         21   -1    0    0  501  502  0.00000000000E+00  0.00000000000E+00  0.36087421216E+03  0.36087421216E+03  0.00000000000E+00 0. -1.
          2   -1    0    0  502    0 -0.00000000000E+00 -0.00000000000E+00 -0.57893679620E+03  0.57893679620E+03  0.00000000000E+00 0. -1.
         23    2    1    2    0    0  0.30788399845E+02 -0.40254561230E+02 -0.36985191669E+03  0.38453008310E+03  0.92220329997E+02 0.  0.
         23    2    1    2    0    0 -0.13814726822E+03  0.83236345622E+02 -0.14589474966E+03  0.23592348716E+03  0.91442095687E+02 0.  0.
        -13    1    3    3    0    0  0.17600884243E+02 -0.65567828570E+02 -0.31966493517E+03  0.32679443393E+03  0.00000000000E+00 0.  1.
         13    1    3    3    0    0  0.13187515602E+02  0.25313267340E+02 -0.50186981522E+02  0.57735649173E+02  0.00000000000E+00 0. -1.
        -13    1    4    4    0    0 -0.50179130435E+02 -0.14362593388E+02 -0.27194800307E+02  0.58853941107E+02  0.00000000000E+00 0.  1.
         13    1    4    4    0    0 -0.87968137786E+02  0.97598939010E+02 -0.11869994935E+03  0.17706954605E+03  0.00000000000E+00 0. -1.
          2    1    1    2  501    0  0.10735886838E+03 -0.42981784392E+02  0.29768408231E+03  0.31935743810E+03  0.00000000000E+00 0. -1.
<scales pt_clust_5="13000.00000" pt_clust_6="13000.00000" pt_clust_7="13000.00000" pt_clust_8="13000.00000" pt_clust_9="117.99043"></scales>
<clustering>
<clus scale="   91.442">  7  8 -1 -1</clus>
<clus scale="   92.220">  5  6 -1 -1</clus>
<clus scale="  105.228">  2  5  1 -1</clus>
<clus scale="  117.990">  1  9  2 -1</clus>
<clus scale="  117.990">  1  5  2 -1</clus>
</clustering>
</event>
<event>
 9    1  0.1601012E-005  0.2137140E+03  0.7546771E-02  0.1155768E+00
         21   -1    0    0  501  502  0.00000000000E+00  0.00000000000E+00  0.21070566501E+03  0.21070566501E+03  0.00000000000E+00 0.  1.
         -1   -1    0    0    0  501 -0.00000000000E+00 -0.00000000000E+00 -0.39082592473E+03  0.39082592473E+03  0.00000000000E+00 0.  1.
         23    2    1    2    0    0 -0.42320686401E+01 -0.10727383016E+03 -0.94635432894E+02  0.17080647071E+03  0.93238405366E+02 0.  0.
         23    2    1    2    0    0 -0.16441402654E+03  0.15776701567E+03 -0.47054671948E+02  0.25053648452E+03  0.92908474153E+02 0.  0.
        -11    1    3    3    0    0  0.97656232779E+01 -0.52667070139E+02 -0.10074942186E+03  0.11410360941E+03  0.00000000000E+00 0.  1.
         11    1    3    3    0    0 -0.13997691918E+02 -0.54606760023E+02  0.61139889620E+01  0.56702861306E+02  0.00000000000E+00 0. -1.
        -13    1    4    4    0    0 -0.11076974183E+03  0.82925677282E+02  0.15470793765E+02  0.13923343391E+03  0.00000000000E+00 0.  1.
         13    1    4    4    0    0 -0.53644284702E+02  0.74841338390E+02 -0.62525465714E+02  0.11130305061E+03  0.00000000000E+00 0. -1.
         -1    1    1    2    0  502  0.16864609518E+03 -0.50493185510E+02 -0.38430154877E+02  0.18018863451E+03  0.00000000000E+00 0.  1.
<scales pt_clust_5="13000.00000" pt_clust_6="13000.00000" pt_clust_7="13000.00000" pt_clust_8="13000.00000" pt_clust_9="192.46217"></scales>
<clustering>
<clus scale="   92.908">  7  8 -1 -1</clus>
<clus scale="   93.238">  5  6 -1 -1</clus>
<clus scale="  142.193">  2  5  1 -1</clus>
<clus scale="  192.462">  1  9  2 -1</clus>
<clus scale="  192.462">  1  5  2 -1</clus>
</clustering>
</event>
<event>
 9    1  0.1601012E-005  0.1369341E+03  0.7546771E-02  0.1217792E+00
         21   -1    0    0  501  502  0.00000000000E+00  0.00000000000E+00  0.58817334986E+02  0.58817334986E+02  0.00000000000E+00 0. -1.
         -1   -1    0    0    0  501 -0.00000000000E+00 -0.00000000000E+00 -0.51394563696E+03  0.51394563696E+03  0.00000000000E+00 0.  1.
         23    2    1    2    0    0 -0.34957752707E+02 -0.88290766284E+02 -0.31679280497E+03  0.34342894608E+03  0.92565953973E+02 0.  0.
         23    2    1    2    0    0  0.20753064292E+02  0.11757629556E+03 -0.11267954073E+03  0.18788956315E+03  0.91383445356E+02 0.  0.
        -11    1    3    3    0    0  0.10744400886E+02 -0.84442581252E+02 -0.23030576284E+03  0.24553357424E+03  0.00000000000E+00 0.  1.
         11    1    3    3    0    0 -0.45702153593E+02 -0.38481850324E+01 -0.86487042130E+02  0.97895371839E+02  0.00000000000E+00 0. -1.
        -13    1    4    4    0    0  0.41092474915E+02  0.19623066599E+02 -0.14679997963E+02  0.47845152080E+02  0.00000000000E+00 0.  1.
         13    1    4    4    0    0 -0.20339410623E+02  0.97953228965E+02 -0.97999542770E+02  0.14004441107E+03  0.00000000000E+00 0. -1.
         -1    1    1    2    0  502  0.14204688415E+02 -0.29285529279E+02 -0.25655956267E+02  0.41444462719E+02  0.00000000000E+00 0.  1.
<scales pt_clust_5="13000.00000" pt_clust_6="13000.00000" pt_clust_7="13000.00000" pt_clust_8="13000.00000" pt_clust_9="32.54866"></scales>
<clustering>
<clus scale="   32.549">  1  9  2 -1</clus>
<clus scale="   91.383">  7  8 -1 -1</clus>
<clus scale="   92.566">  5  6 -1 -1</clus>
<clus scale="  136.138">  1  7  2 -1</clus>
<clus scale="   32.549">  1  5  2 -1</clus>
</clustering>
</event>
<event>
 9    1  0.1601012E-005  0.2235999E+03  0.7546771E-02  0.1131824E+00
         21   -1    0    0  501  502  0.00000000000E+00  0.00000000000E+00  0.72026291224E+02  0.72026291224E+02  0.00000000000E+00 0. -1.
          2   -1    0    0  502    0 -0.00000000000E+00 -0.00000000000E+00 -0.10750899954E+04  0.10750899954E+04  0.00000000000E+00 0. -1.
         23    2    1    2    0    0  0.76819806724E+01  0.21003900919E+03 -0.75271480292E+03  0.78697374229E+03  0.92588867119E+02 0.  0.
         23    2    1    2    0    0 -0.66174690777E+01 -0.18946278405E+03 -0.26371163619E+03  0.33558491997E+03  0.84459895881E+02 0.  0.
        -11    1    3    3    0    0  0.50167802612E+01  0.11372008126E+03 -0.56070711081E+03  0.57214498956E+03  0.00000000000E+00 0. -1.
         11    1    3    3    0    0  0.26652004112E+01  0.96318927932E+02 -0.19200769211E+03  0.21482875273E+03  0.00000000000E+00 0.  1.
        -11    1    4    4    0    0  0.21763062426E+02 -0.78737842035E+01 -0.38189272932E+02  0.44654763810E+02  0.00000000000E+00 0. -1.
         11    1    4    4    0    0 -0.28380531504E+02 -0.18158899985E+03 -0.22552236326E+03  0.29093015616E+03  0.00000000000E+00 0.  1.
          2    1    1    2  501    0 -0.10645115948E+01 -0.20576225138E+02  0.13362734979E+02  0.24557624315E+02  0.00000000000E+00 0. -1.
<scales pt_clust_5="13000.00000" pt_clust_6="13000.00000" pt_clust_7="13000.00000" pt_clust_8="13000.00000" pt_clust_9="20.60374"></scales>
<clustering>
<clus scale="   20.604">  1  9  2 -1</clus>
<clus scale="   84.460">  7  8 -1 -1</clus>
<clus scale="   92.589">  5  6 -1 -1</clus>
<clus scale="  220.358">  1  7  2 -1</clus>
<clus scale="   20.604">  1  5  2 -1</clus>
</clustering>
</event>
<event>
 9    1  0.1601012E-005  0.1151182E+03  0.7546771E-02  0.1252291E+00
         -3   -1    0    0    0  501 -0.00000000000E+00  0.00000000000E+00  0.66461990815E+02  0.66461990815E+02  0.00000000000E+00 0.  1.
         21   -1    0    0  501  502  0.00000000000E+00 -0.00000000000E+00 -0.39875065460E+03  0.39875065460E+03  0.00000000000E+00 0. -1.
         23    2    1    2    0    0 -0.54926221801E+02  0.28211081986E+02 -0.29484333468E+02  0.11371727982E+03  0.90826971889E+02 0.  0.
         23    2    1    2    0    0  0.62699899576E+02 -0.51403339343E+02 -0.13977580947E+03  0.18664206876E+03  0.93404519242E+02 0.  0.
        -11    1    4    4    0    0  0.84048150317E+01 -0.47038800760E+02 -0.11919005176E+03  0.12841167443E+03  0.00000000000E+00 0. -1.
         11    1    4    4    0    0  0.54295084544E+02 -0.43645385828E+01 -0.20585757714E+02  0.58230394326E+02  0.00000000000E+00 0.  1.
        -13    1    3    3    0    0 -0.56139260787E+02 -0.21459526423E+02 -0.17706325977E+02  0.62654942787E+02  0.00000000000E+00 0. -1.
         13    1    3    3    0    0  0.12130389861E+01  0.49670608409E+02 -0.11778007491E+02  0.51062337037E+02  0.00000000000E+00 0.  1.
         -3    1    1    2    0  502 -0.77736777745E+01  0.23192257357E+02 -0.16302852085E+03  0.16485329683E+03  0.00000000000E+00 0.  1.
<scales pt_clust_5="13000.00000" pt_clust_6="13000.00000" pt_clust_7="13000.00000" pt_clust_8="13000.00000" pt_clust_9="24.46039"></scales>
<clustering>
<clus scale="   24.460">  2  9  1 -1</clus>
<clus scale="   90.827">  7  8 -1 -1</clus>
<clus scale="   93.405">  5  6 -1 -1</clus>
<clus scale="  113.037">  1  7  2 -1</clus>
<clus scale="   24.460">  2  5  1 -1</clus>
</clustering>
</event>
<event>
 9    1  0.1601012E-005  0.1986806E+03  0.7546771E-02  0.1178120E+00
         21   -1    0    0  501  502  0.00000000000E+00  0.00000000000E+00  0.26241028322E+03  0.26241028322E+03  0.00000000000E+00 0.  1.
          2   -1    0    0  502    0 -0.00000000000E+00 -0.00000000000E+00 -0.31226319670E+03  0.31226319670E+03  0.00000000000E+00 0. -1.
         23    2    1    2    0    0 -0.28343131633E+02  0.54579733140E+02 -0.14481520721E+03  0.17937127821E+03  0.86141342140E+02 0.  0.
         23    2    1    2    0    0 -0.41459124129E+02 -0.19350121629E+03  0.10054456164E+03  0.23973004770E+03  0.90552234747E+02 0.  0.
        -11    1    3    3    0    0 -0.18339634528E+02  0.73494614579E+02 -0.75984508545E+02  0.10729140742E+03  0.00000000000E+00 0. -1.
         11    1    3    3    0    0 -0.10003497105E+02 -0.18914881439E+02 -0.68830698667E+02  0.72079870790E+02  0.00000000000E+00 0.  1.
        -11    1    4    4    0    0 -0.51390196422E+02 -0.17568444633E+03  0.57116969448E+02  0.19175068493E+03  0.00000000000E+00 0.  1.
         11    1    4    4    0    0  0.99310722933E+01 -0.17816769955E+02  0.43427592195E+02  0.47979362776E+02  0.00000000000E+00 0. -1.
          2    1    1    2  501    0  0.69802255762E+02  0.13892148315E+03 -0.55822679157E+01  0.15557215401E+03  0.00000000000E+00 0. -1.
<scales pt_clust_5="13000.00000" pt_clust_6="13000.00000" pt_clust_7="13000.00000" pt_clust_8="13000.00000" pt_clust_9="176.84545"></scales>
<clustering>
<clus scale="   86.141">  5  6 -1 -1</clus>
<clus scale="   90.552">  7  8 -1 -1</clus>
<clus scale="  105.842">  2  5  1 -1</clus>
<clus scale="  176.845">  1  9  2 -1</clus>
<clus scale="  176.845">  1  5  2 -1</clus>
</clustering>
</event>
<event>
 9    1  0.1601012E-005  0.1048198E+03  0.7546771E-02  0.1270581E+00
         21   -1    0    0  501  502  0.00000000000E+00  0.00000000000E+00  0.16026781636E+03  0.16026781636E+03  0.00000000000E+00 0. -1.
         -3   -1    0    0    0  501 -0.00000000000E+00 -0.00000000000E+00 -0.19990145602E+03  0.19990145602E+03  0.00000000000E+00 0.  1.
         23    2    1    2    0    0 -0.22555333664E+02  0.39334583920E+02 -0.12358712638E+03  0.15973716341E+03  0.90477792847E+02 0.  0.
         23    2    1    2    0    0  0.67994607602E+02 -0.60736012696E+02  0.42978817402E+02  0.13561180122E+03  0.90726247494E+02 0.  0.
        -13    1    3    3    0    0  0.19989024386E+02 -0.15062901264E+02 -0.10310478097E+02  0.27069504041E+02  0.00000000000E+00 0. -1.
         13    1    3    3    0    0 -0.42544358050E+02  0.54397485184E+02 -0.11327664828E+03  0.13266765937E+03  0.00000000000E+00 0.  1.
        -13    1    4    4    0    0  0.39928172130E+02  0.36327338115E+00  0.54327991375E+02  0.67423449511E+02  0.00000000000E+00 0. -1.
         13    1    4    4    0    0  0.28066435472E+02 -0.61099286078E+02 -0.11349173972E+02  0.68188351711E+02  0.00000000000E+00 0.  1.
         -3    1    1    2    0  502 -0.45439273938E+02  0.21401428776E+02  0.40974669320E+02  0.64820307740E+02  0.00000000000E+00 0.  1.
<scales pt_clust_5="13000.00000" pt_clust_6="13000.00000" pt_clust_7="13000.00000" pt_clust_8="13000.00000" pt_clust_9="50.22697"></scales>
<clustering>
<clus scale="   50.227">  1  9  2 -1</clus>
<clus scale="   90.478">  5  6 -1 -1</clus>
<clus scale="   90.726">  7  8 -1 -1</clus>
<clus scale="  104.605">  2  5  1 -1</clus>
<clus scale="   50.227">  1  5  2 -1</clus>
</clustering>
</event>
<event>
 9    1  0.1601012E-005  0.9706404E+02  0.7546771E-02  0.1289479E+00
         -2   -1    0    0    0  501 -0.00000000000E+00  0.00000000000E+00  0.42116873131E+03  0.42116873131E+03  0.00000000000E+00 0.  1.
         21   -1    0    0  501  502  0.00000000000E+00 -0.00000000000E+00 -0.60488918539E+02  0.60488918539E+02  0.00000000000E+00 0.  1.
         23    2    1    2    0    0 -0.25476747508E+02  0.16978918959E+02  0.27625229303E+03  0.29079491508E+03  0.85492718277E+02 0.  0.
         23    2    1    2    0    0  0.55485071168E+02  0.15180412386E+02  0.97231423044E+02  0.14505157869E+03  0.90977869889E+02 0.  0.
        -11    1    3    3    0    0 -0.90073610835E+01 -0.32530172854E+02  0.15764859131E+03  0.16122165811E+03  0.00000000000E+00 0. -1.
         11    1    3    3    0    0 -0.16469386424E+02  0.49509091813E+02  0.11860370172E+03  0.12957325697E+03  0.00000000000E+00 0.  1.
        -13    1    4    4    0    0  0.69766835728E+02 -0.16093480302E+02  0.53265489510E+02  0.89239138546E+02  0.00000000000E+00 0.  1.
         13    1    4    4    0    0 -0.14281764560E+02  0.31273892689E+02  0.43965933535E+02  0.55812440140E+02  0.00000000000E+00 0. -1.
         -2    1    1    2    0  502 -0.30008323661E+02 -0.32159331345E+02 -0.12803903307E+02  0.45811156080E+02  0.00000000000E+00 0.  1.
<scales pt_clust_5="13000.00000" pt_clust_6="13000.00000" pt_clust_7="13000.00000" pt_clust_8="13000.00000" pt_clust_9="43.98548"></scales>
<clustering>
<clus scale="   43.985">  2  9  1 -1</clus>
<clus scale="   85.493">  5  6 -1 -1</clus>
<clus scale="   90.978">  7  8 -1 -1</clus>
<clus scale="   91.943">  1  5  2 -1</clus>
<clus scale="   43.985">  2  5  1 -1</clus>
</clustering>
</event>
<event>
 9    1  0.1601012E-005  0.9849483E+02  0.7546771E-02  0.1286942E+00
         21   -1    0    0  501  502  0.00000000000E+00  0.00000000000E+00  0.73350002024E+03  0.73350002024E+03  0.00000000000E+00 0. -1.
         -1   -1    0    0    0  501 -0.00000000000E+00 -0.00000000000E+00 -0.12864618580E+03  0.12864618580E+03  0.00000000000E+00 0.  1.
         23    2    1    2    0    0  0.66989798497E+01 -0.24360155502E+02 -0.10112776200E+03  0.14118781550E+03  0.95230675164E+02 0.  0.
         23    2    1    2    0    0  0.37390092225E+02  0.31726012783E+02  0.49876614933E+03  0.50897644874E+03  0.88796366875E+02 0.  0.
        -11    1    4    4    0    0 -0.17440489254E+02  0.41463222066E+02  0.25430329882E+03  0.25825091915E+03  0.00000000000E+00 0. -1.
         11    1    4    4    0    0  0.54830581479E+02 -0.97372092831E+01  0.24446285051E+03  0.25072552959E+03  0.00000000000E+00 0.  1.
        -13    1    3    3    0    0  0.41589371361E+02 -0.36156473153E+02 -0.84253188198E+02  0.10067554858E+03  0.00000000000E+00 0.  1.
         13    1    3    3    0    0 -0.34890391511E+02  0.11796317651E+02 -0.16874573801E+02  0.40512266918E+02  0.00000000000E+00 0. -1.
         -1    1    1    2    0  502 -0.44089072075E+02 -0.73658572808E+01  0.20721544710E+03  0.21198194179E+03  0.00000000000E+00 0.  1.
<scales pt_clust_5="13000.00000" pt_clust_6="13000.00000" pt_clust_7="13000.00000" pt_clust_8="13000.00000" pt_clust_9="44.70014"></scales>
<clustering>
<clus scale="   44.700">  1  9  2 -1</clus>
<clus scale="   88.796">  5  6 -1 -1</clus>
<clus scale="   92.288">  1  5  2 -1</clus>
<clus scale="   95.231">  7  8 -1 -1</clus>
<clus scale="   44.700">  1  5  2 -1</clus>
</clustering>
</event>
<event>
 9    1  0.1601012E-005  0.1296189E+03  0.7546771E-02  0.1229926E+00
         -1   -1    0    0    0  501 -0.00000000000E+00  0.00000000000E+00  0.13734227389E+03  0.13734227389E+03  0.00000000000E+00 0.  1.
         21   -1    0    0  501  502  0.00000000000E+00 -0.00000000000E+00 -0.26653475161E+03  0.26653475161E+03  0.00000000000E+00 0. -1.
         23    2    1    2    0    0  0.97625085834E+02  0.17285422046E+02  0.23391240175E+02  0.13488973940E+03  0.88423121859E+02 0.  0.
         23    2    1    2    0    0 -0.74472604501E+02 -0.75289767898E+01 -0.71830806094E+01  0.12143197126E+03  0.95348165600E+02 0.  0.
        -13    1    3    3    0    0  0.84217530162E+02  0.45524365515E+02  0.34430612886E+02  0.10173754148E+03  0.00000000000E+00 0.  1.
         13    1    3    3    0    0  0.13407555672E+02 -0.28238943469E+02 -0.11039372711E+02  0.33152197924E+02  0.00000000000E+00 0. -1.
        -13    1    4    4    0    0  0.76705358771E+01  0.24375037332E+02 -0.19912809775E+02  0.32395980595E+02  0.00000000000E+00 0.  1.
         13    1    4    4    0    0 -0.82143140378E+02 -0.31904014122E+02  0.12729729165E+02  0.89035990661E+02  0.00000000000E+00 0. -1.
         -1    1    1    2    0  502 -0.23152481333E+02 -0.97564452560E+01 -0.14540063729E+03  0.14755531485E+03  0.00000000000E+00 0.  1.
<scales pt_clust_5="13000.00000" pt_clust_6="13000.00000" pt_clust_7="13000.00000" pt_clust_8="13000.00000" pt_clust_9="25.12420"></scales>
<clustering>
<clus scale="   25.124">  2  9  1 -1</clus>
<clus scale="   88.423">  5  6 -1 -1</clus>
<clus scale="   95.348">  7  8 -1 -1</clus>
<clus scale="  124.613">  1  5  2 -1</clus>
<clus scale="   25.124">  2  5  1 -1</clus>
</clustering>
</event>
<event>
 9    1  0.1601012E-005  0.1016737E+03  0.7546771E-02  0.1279367E+00
         21   -1    0    0  501  502  0.00000000000E+00  0.00000000000E+00  0.33517895483E+03  0.33517895483E+03  0.00000000000E+00 0.  1.
          2   -1    0    0  502    0 -0.00000000000E+00 -0.00000000000E+00 -0.58701300854E+02  0.58701300854E+02  0.00000000000E+00 0. -1.
         23    2    1    2    0    0  0.22438297332E+02  0.37350762048E+02  0.20597973908E+02  0.10167723583E+03  0.89528917922E+02 0.  0.
         23    2    1    2    0    0  0.15073473344E+02 -0.27242482723E+02  0.15732402356E+03  0.18626658759E+03  0.94736639171E+02 0.  0.
        -11    1    3    3    0    0  0.12037937859E+02 -0.19848041408E+02  0.34799312756E+02  0.41831194866E+02  0.00000000000E+00 0.  1.
         11    1    3    3    0    0  0.10400359474E+02  0.57198803456E+02 -0.14201338848E+02  0.59846040964E+02  0.00000000000E+00 0. -1.
        -11    1    4    4    0    0 -0.39399916197E+02 -0.21639436647E+02  0.69645872665E+02  0.82892497815E+02  0.00000000000E+00 0. -1.
         11    1    4    4    0    0  0.54473389541E+02 -0.56030460764E+01  0.87678150891E+02  0.10337408978E+03  0.00000000000E+00 0.  1.
          2    1    1    2  501    0 -0.37511770676E+02 -0.10108279325E+02  0.98555656515E+02  0.10593643227E+03  0.00000000000E+00 0. -1.
<scales pt_clust_5="13000.00000" pt_clust_6="13000.00000" pt_clust_7="13000.00000" pt_clust_8="13000.00000" pt_clust_9="38.84984"></scales>
<clustering>
<clus scale="   38.850">  1  9  2 -1</clus>
<clus scale="   89.529">  5  6 -1 -1</clus>
<clus scale="   94.737">  7  8 -1 -1</clus>
<clus scale="   96.840">  2  5  1 -1</clus>
<clus scale="   38.850">  1  5  2 -1</clus>
</clustering>
</event>
<event>
 9    1  0.1601012E-005  0.9333065E+02  0.7546771E-02  0.1296028E+00
         21   -1    0    0  501  502  0.00000000000E+00  0.00000000000E+00  0.48698504240E+02  0.48698504240E+02  0.00000000000E+00 0. -1.
          1   -1    0    0  502    0 -0.00000000000E+00 -0.00000000000E+00 -0.48402295956E+03  0.48402295956E+03  0.00000000000E+00 0. -1.
         23    2    1    2    0    0  0.73862571894E+01 -0.13265975634E+02 -0.33004396639E+03  0.34311588376E+03  0.92568607168E+02 0.  0.
         23    2    1    2    0    0  0.13752888292E+02  0.86870464615E+01 -0.12831602301E+03  0.15800706908E+03  0.90755856045E+02 0.  0.
        -11    1    4    4    0    0  0.26001073474E+02 -0.34847458517E+02 -0.84542210814E+02  0.95067274055E+02  0.00000000000E+00 0. -1.
         11    1    4    4    0    0 -0.12248185182E+02  0.43534504978E+02 -0.43773812196E+02  0.62939795028E+02  0.00000000000E+00 0.  1.
        -13    1    3    3    0    0 -0.57830219149E+01  0.36607295926E+02 -0.19632901940E+03  0.19979644971E+03  0.00000000000E+00 0.  1.
         13    1    3    3    0    0  0.13169279104E+02 -0.49873271560E+02 -0.13371494699E+03  0.14331943405E+03  0.00000000000E+00 0. -1.
          1    1    1    2  501    0 -0.21139145481E+02  0.45789291724E+01  0.23035534083E+02  0.31598510954E+02  0.00000000000E+00 0. -1.
<scales pt_clust_5="13000.00000" pt_clust_6="13000.00000" pt_clust_7="13000.00000" pt_clust_8="13000.00000" pt_clust_9="21.62938"></scales>
<clustering>
<clus scale="   21.629">  1  9  2 -1</clus>
<clus scale="   90.756">  5  6 -1 -1</clus>
<clus scale="   91.533">  1  5  2 -1</clus>
<clus scale="   92.569">  7  8 -1 -1</clus>
<clus scale="   21.629">  1  5  2 -1</clus>
</clustering>
</event>
<event>
 9    1  0.1601012E-005  0.1203944E+03  0.7546771E-02  0.1243444E+00
         21   -1    0    0  501  502  0.00000000000E+00  0.00000000000E+00  0.20861472519E+03  0.20861472519E+03  0.00000000000E+00 0. -1.
         -1   -1    0    0    0  501 -0.00000000000E+00 -0.00000000000E+00 -0.15422869500E+03  0.15422869500E+03  0.00000000000E+00 0.  1.
         23    2    1    2    0    0  0.75656517079E+02  0.13317374354E+02 -0.93559652996E+02  0.15447822161E+03  0.95962759695E+02 0.  0.
         23    2    1    2    0    0 -0.54943755740E+02  0.13723721652E+02  0.13103883813E+03  0.17033782994E+03  0.92933537425E+02 0.  0.
        -13    1    4    4    0    0  0.19984411619E+02  0.18082981459E+02  0.65000181193E+02  0.70366145847E+02  0.00000000000E+00 0.  1.
         13    1    4    4    0    0 -0.74928167359E+02 -0.43592598067E+01  0.66038656939E+02  0.99971684092E+02  0.00000000000E+00 0. -1.
        -13    1    3    3    0    0 -0.57568347229E+01  0.32730310972E+02 -0.50237978575E+02  0.60235113461E+02  0.00000000000E+00 0. -1.
         13    1    3    3    0    0  0.81413351802E+02 -0.19412936619E+02 -0.43321674421E+02  0.94243108153E+02  0.00000000000E+00 0.  1.
         -1    1    1    2    0  502 -0.20712761339E+02 -0.27041096006E+02  0.16906845055E+02  0.38027368633E+02  0.00000000000E+00 0.  1.
<scales pt_clust_5="13000.00000" pt_clust_6="13000.00000" pt_clust_7="13000.00000" pt_clust_8="13000.00000" pt_clust_9="34.06229"></scales>
<clustering>
<clus scale="   34.062">  1  9  2 -1</clus>
<clus scale="   92.934">  5  6 -1 -1</clus>
<clus scale="   95.963">  7  8 -1 -1</clus>
<clus scale="  117.994">  1  5  2 -1</clus>
<clus scale="   34.062">  1  5  2 -1</clus>
</clustering>
</event>
<event>
 9    1  0.1601012E-005  0.1024624E+03  0.7546771E-02  0.1276756E+00
          1   -1    0    0  502    0 -0.00000000000E+00  0.00000000000E+00  0.21686277420E+03  0.21686277420E+03  0.00000000000E+00 0. -1.
         21   -1    0    0  501  502  0.00000000000E+00 -0.00000000000E+00 -0.12261146917E+03  0.12261146917E+03  0.00000000000E+00 0. -1.
         23    2    1    2    0    0  0.37505192139E+02 -0.20766288690E+02  0.12218203448E+03  0.16118609789E+03  0.95992866510E+02 0.  0.
         23    2    1    2    0    0 -0.27669863177E+02 -0.26897200070E+01  0.40729437416E+02  0.10506836295E+03  0.92777248820E+02 0.  0.
        -13    1    3    3    0    0 -0.32418551351E+02 -0.52805627857E+01  0.30277892949E+02  0.44672112290E+02  0.00000000000E+00 0. -1.
         13    1    3    3    0    0  0.69923743490E+02 -0.15485725904E+02  0.91904141533E+02  0.11651398560E+03  0.00000000000E+00 0.  1.
        -13    1    4    4    0    0  0.23694308859E+02  0.24310142435E+02  0.31500728171E+02  0.46310896912E+02  0.00000000000E+00 0.  1.
         13    1    4    4    0    0 -0.51364172035E+02 -0.26999862442E+02  0.92287092458E+01  0.58757466037E+02  0.00000000000E+00 0. -1.
          1    1    1    2  501    0 -0.98353289626E+01  0.23456008697E+02 -0.68660166869E+02  0.73219782534E+02  0.00000000000E+00 0. -1.
<scales pt_clust_5="13000.00000" pt_clust_6="13000.00000" pt_clust_7="13000.00000" pt_clust_8="13000.00000" pt_clust_9="25.43458"></scales>
<clustering>
<clus scale="   25.435">  2  9  1 -1</clus>
<clus scale="   92.777">  7  8 -1 -1</clus>
<clus scale="   95.993">  5  6 -1 -1</clus>
<clus scale="   99.456">  2  7  1 -1</clus>
<clus scale="   25.435">  2  5  1 -1</clus>
</clustering>
</event>
<event>
 9    1  0.1601012E-005  0.1028764E+03  0.7546771E-02  0.1291785E+00
          2   -1    0    0  502    0 -0.00000000000E+00  0.00000000000E+00  0.34628393894E+02  0.34628393894E+02  0.00000000000E+00 0. -1.
         21   -1    0    0  501  502  0.00000000000E+00 -0.00000000000E+00 -0.33808985150E+03  0.33808985150E+03  0.00000000000E+00 0.  1.
         23    2    1    2    0    0 -0.18325144808E+02 -0.25684141252E+02 -0.11089004932E+03  0.15159193504E+03  0.98427768880E+02 0.  0.
         23    2    1    2    0    0 -0.90442530058E+00  0.31531621945E+02 -0.91504443371E+02  0.11808020031E+03  0.67637337190E+02 0.  0.
        -11    1    4    4    0    0  0.27981813339E+02  0.17244808500E+02 -0.17219579975E+02  0.37106323349E+02  0.00000000000E+00 0. -1.
         11    1    4    4    0    0 -0.28886238640E+02  0.14286813445E+02 -0.74284863396E+02  0.80973876966E+02  0.00000000000E+00 0.  1.
        -13    1    3    3    0    0 -0.45097474171E+02 -0.87179800449E+01 -0.11074872866E+03  0.11989606437E+03  0.00000000000E+00 0.  1.
         13    1    3    3    0    0  0.26772329363E+02 -0.16966161207E+02 -0.14132065840E+00  0.31695870664E+02  0.00000000000E+00 0. -1.
          2    1    1    2  501    0  0.19229570108E+02 -0.58474806930E+01 -0.10106696492E+03  0.10304611004E+03  0.00000000000E+00 0. -1.
<scales pt_clust_5="13000.00000" pt_clust_6="13000.00000" pt_clust_7="13000.00000" pt_clust_8="13000.00000" pt_clust_9="20.09899"></scales>
<clustering>
<clus scale="   20.099">  2  9  1 -1</clus>
<clus scale="   67.637">  5  6 -1 -1</clus>
<clus scale="   73.962">  2  5  1 -1</clus>
<clus scale="   98.428">  7  8 -1 -1</clus>
<clus scale="   20.099">  2  5  1 -1</clus>
</clustering>
</event>
<event>
 9    1  0.1601012E-005  0.1312630E+03  0.7546771E-02  0.1225881E+00
         21   -1    0    0  501  502  0.00000000000E+00  0.00000000000E+00  0.16318030068E+03  0.16318030068E+03  0.00000000000E+00 0.  1.
         -1   -1    0    0    0  501 -0.00000000000E+00 -0.00000000000E+00 -0.24660057379E+03  0.24660057379E+03  0.00000000000E+00 0.  1.
         23    2    1    2    0    0  0.23442676491E+02 -0.80420830553E+02 -0.12639937167E+03  0.17558178812E+03  0.88516066863E+02 0.  0.
         23    2    1    2    0    0 -0.58531164754E+02  0.12685664135E+03  0.77976832886E+01  0.16619012729E+03  0.89665209767E+02 0.  0.
        -13    1    3    3    0    0  0.44827826561E+02 -0.64954918796E+02 -0.12660483343E+03  0.14918934063E+03  0.00000000000E+00 0.  1.
         13    1    3    3    0    0 -0.21385150070E+02 -0.15465911757E+02  0.20546175824E+00  0.26392447491E+02  0.00000000000E+00 0. -1.
        -13    1    4    4    0    0 -0.48146451313E+02  0.10600049194E+03  0.42886846077E+02  0.12407040997E+03  0.00000000000E+00 0.  1.
         13    1    4    4    0    0 -0.10384713441E+02  0.20856149410E+02 -0.35089162788E+02  0.42119717314E+02  0.00000000000E+00 0. -1.
         -1    1    1    2    0  502  0.35088488263E+02 -0.46435810792E+02  0.35181415274E+02  0.68008959066E+02  0.00000000000E+00 0.  1.
<scales pt_clust_5="13000.00000" pt_clust_6="13000.00000" pt_clust_7="13000.00000" pt_clust_8="13000.00000" pt_clust_9="58.20212"></scales>
<clustering>
<clus scale="   58.202">  1  9  2 -1</clus>
<clus scale="   88.516">  5  6 -1 -1</clus>
<clus scale="   89.665">  7  8 -1 -1</clus>
<clus scale="  130.481">  2  5  1 -1</clus>
<clus scale="   58.202">  1  5  2 -1</clus>
</clustering>
</event>
<event>
 9    1  0.1601012E-005  0.1572236E+03  0.7546771E-02  0.1192275E+00
         21   -1    0    0  501  502  0.00000000000E+00  0.00000000000E+00  0.13374120337E+03  0.13374120337E+03  0.00000000000E+00 0.  1.
          1   -1    0    0  502    0 -0.00000000000E+00 -0.00000000000E+00 -0.34416580108E+03  0.34416580108E+03  0.00000000000E+00 0. -1.
         23    2    1    2    0    0 -0.10314109061E+03  0.19532452415E+02 -0.12975360204E+03  0.18959943855E+03  0.89957482092E+02 0.  0.
         23    2    1    2    0    0  0.17296667633E+03 -0.38893391608E+02 -0.81404494385E+02  0.21584380664E+03  0.92367148520E+02 0.  0.
        -11    1    3    3    0    0 -0.40520052487E+02 -0.16891058074E+02 -0.10370682759E+03  0.11261566759E+03  0.00000000000E+00 0. -1.
         11    1    3    3    0    0 -0.62621038127E+02  0.36423510489E+02 -0.26046774451E+02  0.76983770963E+02  0.00000000000E+00 0.  1.
        -13    1    4    4    0    0  0.10500954829E+03  0.18685477671E+02 -0.66065880689E+02  0.12546255577E+03  0.00000000000E+00 0. -1.
         13    1    4    4    0    0  0.67957128039E+02 -0.57578869279E+02 -0.15338613696E+02  0.90381250870E+02  0.00000000000E+00 0.  1.
          1    1    1    2  501    0 -0.69825585716E+02  0.19360939193E+02  0.73349871635E+00  0.72463759269E+02  0.00000000000E+00 0. -1.
<scales pt_clust_5="13000.00000" pt_clust_6="13000.00000" pt_clust_7="13000.00000" pt_clust_8="13000.00000" pt_clust_9="72.46005"></scales>
<clustering>
<clus scale="   72.460">  1  9  2 -1</clus>
<clus scale="   89.957">  5  6 -1 -1</clus>
<clus scale="   92.367">  7  8 -1 -1</clus>
<clus scale="  155.820">  2  5  1 -1</clus>
<clus scale="   72.460">  1  5  2 -1</clus>
</clustering>
</event>
<event>
 9    1  0.1601012E-005  0.1034936E+03  0.7546771E-02  0.1276162E+00
         21   -1    0    0  501  502  0.00000000000E+00  0.00000000000E+00  0.84738692420E+02  0.84738692420E+02  0.00000000000E+00 0.  1.
         -2   -1    0    0    0  501 -0.00000000000E+00 -0.00000000000E+00 -0.30616549289E+03  0.30616549289E+03  0.00000000000E+00 0.  1.
         23    2    1    2    0    0  0.48601736605E+01 -0.19962769226E+02 -0.15300254106E+03  0.18502150609E+03  0.10198552201E+03 0.  0.
         23    2    1    2    0    0 -0.23455697826E+02  0.12933504661E+01 -0.11544482327E+03  0.15198208422E+03  0.96016687037E+02 0.  0.
        -11    1    4    4    0    0  0.18922977545E+02 -0.20284782437E+02 -0.67420142433E+00  0.27748982418E+02  0.00000000000E+00 0.  1.
         11    1    4    4    0    0 -0.42378675372E+02  0.21578132903E+02 -0.11477062184E+03  0.12423310180E+03  0.00000000000E+00 0. -1.
        -13    1    3    3    0    0  0.53329202783E+02 -0.65429854195E+01 -0.77571366306E+02  0.94361705147E+02  0.00000000000E+00 0.  1.
         13    1    3    3    0    0 -0.48469029122E+02 -0.13419783807E+02 -0.75431174754E+02  0.90659800938E+02  0.00000000000E+00 0. -1.
         -2    1    1    2    0  502  0.18595524166E+02  0.18669418760E+02  0.47020563858E+02  0.53900595000E+02  0.00000000000E+00 0.  1.
<scales pt_clust_5="13000.00000" pt_clust_6="13000.00000" pt_clust_7="13000.00000" pt_clust_8="13000.00000" pt_clust_9="26.35035"></scales>
<clustering>
<clus scale="   26.350">  1  9  2 -1</clus>
<clus scale="   96.017">  5  6 -1 -1</clus>
<clus scale="   97.617">  1  5  2 -1</clus>
<clus scale="  101.986">  7  8 -1 -1</clus>
<clus scale="   26.350">  1  5  2 -1</clus>
</clustering>
</event>
<event>
 9    1  0.1601012E-005  0.9867286E+02  0.7546771E-02  0.1284220E+00
         -1   -1    0    0    0  501 -0.00000000000E+00  0.00000000000E+00  0.22015411463E+03  0.22015411463E+03  0.00000000000E+00 0.  1.
         21   -1    0    0  501  502  0.00000000000E+00 -0.00000000000E+00 -0.10262513768E+03  0.10262513768E+03  0.00000000000E+00 0. -1.
         23    2    1    2    0    0 -0.19253684137E+00  0.16389207783E+02  0.96590550211E+02  0.13337026629E+03  0.90494476844E+02 0.  0.
         23    2    1    2    0    0  0.20475823168E+02 -0.70226418449E+02  0.45926268122E+02  0.12668539258E+03  0.92676628156E+02 0.  0.
        -13    1    4    4    0    0  0.29819734815E+02 -0.31450932804E+01 -0.16800910280E+02  0.34371191170E+02  0.00000000000E+00 0.  1.
         13    1    4    4    0    0 -0.93439116473E+01 -0.67081325168E+02  0.62727178402E+02  0.92314201407E+02  0.00000000000E+00 0. -1.
        -13    1    3    3    0    0  0.35463749415E+02  0.36484023261E+02  0.57397036833E+02  0.76701899019E+02  0.00000000000E+00 0.  1.
         13    1    3    3    0    0 -0.35656286257E+02 -0.20094815478E+02  0.39193513378E+02  0.56668367275E+02  0.00000000000E+00 0. -1.
         -1    1    1    2    0  502 -0.20283286326E+02  0.53837210666E+02 -0.24987841388E+02  0.62723593437E+02  0.00000000000E+00 0.  1.
<scales pt_clust_5="13000.00000" pt_clust_6="13000.00000" pt_clust_7="13000.00000" pt_clust_8="13000.00000" pt_clust_9="57.53136"></scales>
<clustering>
<clus scale="   57.531">  2  9  1 -1</clus>
<clus scale="   90.494">  7  8 -1 -1</clus>
<clus scale="   92.677">  5  6 -1 -1</clus>
<clus scale="   96.626">  1  7  2 -1</clus>
<clus scale="   57.531">  2  5  1 -1</clus>
</clustering>
</event>
<event>
 9    1  0.1601012E-005  0.1117257E+03  0.7546771E-02  0.1257458E+00
         21   -1    0    0  501  502  0.00000000000E+00  0.00000000000E+00  0.19494841240E+03  0.19494841240E+03  0.00000000000E+00 0.  1.
          1   -1    0    0  502    0 -0.00000000000E+00 -0.00000000000E+00 -0.19194686555E+03  0.19194686555E+03  0.00000000000E+00 0. -1.
         23    2    1    2    0    0 -0.61014013950E+02  0.71240493829E+01 -0.12065274803E+03  0.16325064105E+03  0.91215263065E+02 0.  0.
         23    2    1    2    0    0  0.88051331540E+02  0.33358642730E+02  0.11476107449E+03  0.17415772679E+03  0.91076745400E+02 0.  0.
        -13    1    4    4    0    0  0.29764285446E+02 -0.38901467983E+01  0.98674456491E+02  0.10313919863E+03  0.00000000000E+00 0.  1.
         13    1    4    4    0    0  0.58287046095E+02  0.37248789529E+02  0.16086617999E+02  0.71018528163E+02  0.00000000000E+00 0. -1.
        -13    1    3    3    0    0 -0.16340763911E+01  0.39535765645E+02 -0.62852750680E+02  0.74271227530E+02  0.00000000000E+00 0.  1.
         13    1    3    3    0    0 -0.59379937559E+02 -0.32411716262E+02 -0.57799997354E+02  0.88979413516E+02  0.00000000000E+00 0. -1.
          1    1    1    2  501    0 -0.27037317590E+02 -0.40482692113E+02  0.88932204022E+01  0.49486910111E+02  0.00000000000E+00 0. -1.
<scales pt_clust_5="13000.00000" pt_clust_6="13000.00000" pt_clust_7="13000.00000" pt_clust_8="13000.00000" pt_clust_9="48.68126"></scales>
<clustering>
<clus scale="   48.681">  1  9  2 -1</clus>
<clus scale="   91.077">  5  6 -1 -1</clus>
<clus scale="   91.215">  7  8 -1 -1</clus>
<clus scale="  111.613">  1  5  2 -1</clus>
<clus scale="   48.681">  1  5  2 -1</clus>
</clustering>
</event>
<event>
 9    1  0.1601012E-005  0.1375831E+03  0.7546771E-02  0.1222990E+00
          2   -1    0    0  502    0 -0.00000000000E+00  0.00000000000E+00  0.39321583839E+03  0.39321583839E+03  0.00000000000E+00 0. -1.
         21   -1    0    0  501  502  0.00000000000E+00 -0.00000000000E+00 -0.24668097254E+03  0.24668097254E+03  0.00000000000E+00 0. -1.
         23    2    1    2    0    0  0.79298414001E+02 -0.15640702879E+01  0.33316684991E+03  0.35409652809E+03  0.89963973609E+02 0.  0.
         23    2    1    2    0    0 -0.85317602040E+02  0.41874260203E+02 -0.70874717036E+02  0.16307747769E+03  0.11197540502E+03 0.  0.
        -11    1    4    4    0    0 -0.59373721915E+01  0.63984275840E+02 -0.26743195920E+02  0.69602000484E+02  0.00000000000E+00 0. -1.
         11    1    4    4    0    0 -0.79380229848E+02 -0.22110015637E+02 -0.44131521116E+02  0.93475477203E+02  0.00000000000E+00 0.  1.
        -13    1    3    3    0    0  0.15830547448E+02  0.33084590645E+02  0.19217233080E+03  0.19564100055E+03  0.00000000000E+00 0. -1.
         13    1    3    3    0    0  0.63467866553E+02 -0.34648660933E+02  0.14099451911E+03  0.15845552754E+03  0.00000000000E+00 0.  1.
          2    1    1    2  501    0  0.60191880387E+01 -0.40310189915E+02 -0.11575726703E+03  0.12272280516E+03  0.00000000000E+00 0. -1.
<scales pt_clust_5="13000.00000" pt_clust_6="13000.00000" pt_clust_7="13000.00000" pt_clust_8="13000.00000" pt_clust_9="40.75711"></scales>
<clustering>
<clus scale="   40.757">  2  9  1 -1</clus>
<clus scale="   89.964">  7  8 -1 -1</clus>
<clus scale="  111.975">  5  6 -1 -1</clus>
<clus scale="  120.350">  1  7  2 -1</clus>
<clus scale="   40.757">  2  5  1 -1</clus>
</clustering>
</event>
<event>
 9    1  0.1601012E-005  0.1210297E+03  0.7546771E-02  0.1241705E+00
         21   -1    0    0  501  502  0.00000000000E+00  0.00000000000E+00  0.61663123256E+02  0.61663123256E+02  0.00000000000E+00 0.  1.
          2   -1    0    0  502    0 -0.00000000000E+00 -0.00000000000E+00 -0.60455222176E+03  0.60455222176E+03  0.00000000000E+00 0. -1.
         23    2    1    2    0    0  0.80580150038E+02  0.18527971259E+02 -0.45501232844E+03  0.47187695849E+03  0.93782720291E+02 0.  0.
         23    2    1    2    0    0 -0.38023165096E+02 -0.18635487957E+02 -0.61913258506E+01  0.10223181605E+03  0.92843789252E+02 0.  0.
        -11    1    4    4    0    0  0.26526526742E+01  0.29688196131E+02  0.17739999672E+02  0.34686209710E+02  0.00000000000E+00 0.  1.
         11    1    4    4    0    0 -0.40675817770E+02 -0.48323684088E+02 -0.23931325523E+02  0.67545606344E+02  0.00000000000E+00 0. -1.
        -11    1    3    3    0    0  0.71605104081E+02  0.50158219370E+02 -0.38081083909E+03  0.39071733141E+03  0.00000000000E+00 0.  1.
         11    1    3    3    0    0  0.89750459577E+01 -0.31630248111E+02 -0.74201489351E+02  0.81159627078E+02  0.00000000000E+00 0. -1.
          2    1    1    2  501    0 -0.42556984943E+02  0.10751669838E+00 -0.81685444215E+02  0.92106570470E+02  0.00000000000E+00 0. -1.
<scales pt_clust_5="13000.00000" pt_clust_6="13000.00000" pt_clust_7="13000.00000" pt_clust_8="13000.00000" pt_clust_9="42.55714"></scales>
<clustering>
<clus scale="   42.557">  1  9  2 -1</clus>
<clus scale="   92.844">  5  6 -1 -1</clus>
<clus scale="   93.783">  7  8 -1 -1</clus>
<clus scale="  120.304">  1  5  2 -1</clus>
<clus scale="   42.557">  1  5  2 -1</clus>
</clustering>
</event>
<event>
 9    1  0.1601012E-005  0.9973026E+02  0.7546771E-02  0.1281375E+00
         -1   -1    0    0    0  501 -0.00000000000E+00  0.00000000000E+00  0.14609267918E+03  0.14609267918E+03  0.00000000000E+00 0.  1.
         21   -1    0    0  501  502  0.00000000000E+00 -0.00000000000E+00 -0.21581882414E+03  0.21581882414E+03  0.00000000000E+00 0.  1.
         23    2    1    2    0    0 -0.44161490601E+02  0.38899639542E+01  0.98632358478E+02  0.14245264096E+03  0.92731028820E+02 0.  0.
         23    2    1    2    0    0  0.41593536140E+00 -0.19394539324E+00 -0.83975337521E+02  0.12433866026E+03  0.91695335253E+02 0.  0.
        -11    1    3    3    0    0 -0.41175176836E+02  0.39552304618E+02  0.88394153725E+02  0.10522977906E+03  0.00000000000E+00 0.  1.
         11    1    3    3    0    0 -0.29863137644E+01 -0.35662340664E+02  0.10238204753E+02  0.37222861901E+02  0.00000000000E+00 0. -1.
        -13    1    4    4    0    0  0.41345446557E+02  0.63064292747E+01 -0.68184613455E+02  0.79989740050E+02  0.00000000000E+00 0. -1.
         13    1    4    4    0    0 -0.40929511196E+02 -0.65003746680E+01 -0.15790724066E+02  0.44348920213E+02  0.00000000000E+00 0.  1.
         -1    1    1    2    0  502  0.43745555239E+02 -0.36960185609E+01 -0.84383165917E+02  0.95120202095E+02  0.00000000000E+00 0.  1.
<scales pt_clust_5="13000.00000" pt_clust_6="13000.00000" pt_clust_7="13000.00000" pt_clust_8="13000.00000" pt_clust_9="43.90141"></scales>
<clustering>
<clus scale="   43.901">  2  9  1 -1</clus>
<clus scale="   91.695">  7  8 -1 -1</clus>
<clus scale="   92.731">  5  6 -1 -1</clus>
<clus scale="   98.768">  2  7  1 -1</clus>
<clus scale="   43.901">  2  5  1 -1</clus>
</clustering>
</event>
<event>
 9    1  0.1601012E-005  0.1089047E+03  0.7546771E-02  0.1262848E+00
          1   -1    0    0  502    0 -0.00000000000E+00  0.00000000000E+00  0.87149124163E+03  0.87149124163E+03  0.00000000000E+00 0. -1.
         21   -1    0    0  501  502  0.00000000000E+00 -0.00000000000E+00 -0.84190279748E+02  0.84190279748E+02  0.00000000000E+00 0. -1.
         23    2    1    2    0    0  0.66752100992E+02 -0.12068059025E+02  0.53526544683E+03  0.54759251470E+03  0.93525304323E+02 0.  0.
         23    2    1    2    0    0 -0.40229085654E+02  0.48004863877E+01  0.31951793526E+03  0.33521812779E+03  0.92941154726E+02 0.  0.
        -13    1    4    4    0    0  0.18151208490E+02  0.28267094156E+02  0.16492034807E+03  0.16830691070E+03  0.00000000000E+00 0. -1.
         13    1    4    4    0    0 -0.58380294144E+02 -0.23466607768E+02  0.15459758719E+03  0.16691121708E+03  0.00000000000E+00 0.  1.
        -13    1    3    3    0    0  0.17475898479E+01  0.35068740606E+02  0.15126088744E+03  0.15528273151E+03  0.00000000000E+00 0.  1.
         13    1    3    3    0    0  0.65004511144E+02 -0.47136799631E+02  0.38400455939E+03  0.39230978318E+03  0.00000000000E+00 0. -1.
          1    1    1    2  501    0 -0.26523015338E+02  0.72675726376E+01 -0.67482420203E+02  0.72870878897E+02  0.00000000000E+00 0. -1.
<scales pt_clust_5="13000.00000" pt_clust_6="13000.00000" pt_clust_7="13000.00000" pt_clust_8="13000.00000" pt_clust_9="27.50069"></scales>
<clustering>
<clus scale="   27.501">  2  9  1 -1</clus>
<clus scale="   92.941">  5  6 -1 -1</clus>
<clus scale="   93.525">  7  8 -1 -1</clus>
<clus scale="  108.403">  2  5  1 -1</clus>
<clus scale="   27.501">  2  5  1 -1</clus>
</clustering>
</event>
<event>
 9    1  0.1601012E-005  0.1490276E+03  0.7546771E-02  0.1201970E+00
         -3   -1    0    0    0  501 -0.00000000000E+00  0.00000000000E+00  0.19955879668E+03  0.19955879668E+03  0.00000000000E+00 0.  1.
         21   -1    0    0  501  502  0.00000000000E+00 -0.00000000000E+00 -0.14905515540E+03  0.14905515540E+03  0.00000000000E+00 0. -1.
         23    2    1    2    0    0  0.29892427117E+02  0.10586470380E+03  0.69663849181E+02  0.15950751757E+03  0.92134160705E+02 0.  0.
         23    2    1    2    0    0 -0.53079645820E+02 -0.11999501986E+03 -0.76776226009E+01  0.15962486895E+03  0.90580899236E+02 0.  0.
        -11    1    4    4    0    0 -0.60288098432E+02 -0.37938943876E+02 -0.24923967665E+02  0.75466697550E+02  0.00000000000E+00 0.  1.
         11    1    4    4    0    0  0.72084526115E+01 -0.82056075985E+02  0.17246345064E+02  0.84158171399E+02  0.00000000000E+00 0. -1.
        -11    1    3    3    0    0 -0.58150523392E+01  0.82654996566E+02  0.62162823090E+01  0.83092150392E+02  0.00000000000E+00 0. -1.
         11    1    3    3    0    0  0.35707479456E+02  0.23209707236E+02  0.63447566872E+02  0.76415367179E+02  0.00000000000E+00 0.  1.
         -3    1    1    2    0  502  0.23187218703E+02  0.14130316059E+02 -0.11482585300E+02  0.29481565568E+02  0.00000000000E+00 0.  1.
<scales pt_clust_5="13000.00000" pt_clust_6="13000.00000" pt_clust_7="13000.00000" pt_clust_8="13000.00000" pt_clust_9="27.15351"></scales>
<clustering>
<clus scale="   27.154">  2  9  1 -1</clus>
<clus scale="   90.581">  5  6 -1 -1</clus>
<clus scale="   92.134">  7  8 -1 -1</clus>
<clus scale="  148.072">  2  5  1 -1</clus>
<clus scale="   27.154">  2  5  1 -1</clus>
</clustering>
</event>
<event>
 9    1  0.1601012E-005  0.1271684E+03  0.7546771E-02  0.1231749E+00
          1   -1    0    0  502    0 -0.00000000000E+00  0.00000000000E+00  0.12435286528E+04  0.12435286528E+04  0.00000000000E+00 0. -1.
         21   -1    0    0  501  502  0.00000000000E+00 -0.00000000000E+00 -0.20413096064E+02  0.20413096064E+02  0.00000000000E+00 0.  1.
         23    2    1    2    0    0 -0.68160436487E+02  0.68959818953E+02  0.76185772568E+03  0.77341238442E+03  0.91313856949E+02 0.  0.
         23    2    1    2    0    0  0.46001553219E+02 -0.62049303132E+02  0.44818395098E+03  0.46388921287E+03  0.91422584658E+02 0.  0.
        -11    1    4    4    0    0  0.20917344523E+02  0.22331912268E+02  0.14447161508E+03  0.14767632570E+03  0.00000000000E+00 0.  1.
         11    1    4    4    0    0  0.25084208696E+02 -0.84381215399E+02  0.30371233590E+03  0.31621288717E+03  0.00000000000E+00 0. -1.
        -13    1    3    3    0    0 -0.35237963810E+00  0.65223169147E+02  0.38433133066E+03  0.38982657387E+03  0.00000000000E+00 0.  1.
         13    1    3    3    0    0 -0.67808056848E+02  0.37366498059E+01  0.37752639502E+03  0.38358581056E+03  0.00000000000E+00 0. -1.
          1    1    1    2  501    0  0.22158883267E+02 -0.69105158213E+01  0.13073880123E+02  0.26640151614E+02  0.00000000000E+00 0. -1.
<scales pt_clust_5="13000.00000" pt_clust_6="13000.00000" pt_clust_7="13000.00000" pt_clust_8="13000.00000" pt_clust_9="23.21145"></scales>
<clustering>
<clus scale="   23.211">  2  9  1 -1</clus>
<clus scale="   91.314">  7  8 -1 -1</clus>
<clus scale="   91.423">  5  6 -1 -1</clus>
<clus scale="  127.090">  1  7  2 -1</clus>
<clus scale="   23.211">  2  5  1 -1</clus>
</clustering>
</event>
<event>
 9    1  0.1601012E-005  0.1306771E+03  0.7546771E-02  0.1226579E+00
         -4   -1    0    0    0  501 -0.00000000000E+00  0.00000000000E+00  0.57980604873E+02  0.57980604873E+02  0.00000000000E+00 0.  1.
         21   -1    0    0  501  502  0.00000000000E+00 -0.00000000000E+00 -0.55683223164E+03  0.55683223164E+03  0.00000000000E+00 0.  1.
         23    2    1    2    0    0 -0.80282991066E+02  0.28719256249E+02 -0.70844399979E+02  0.14411780093E+03  0.92091569666E+02 0.  0.
         23    2    1    2    0    0  0.11967556297E+03 -0.17486319489E+02 -0.36788283534E+03  0.39794274327E+03  0.91611323763E+02 0.  0.
        -13    1    3    3    0    0 -0.64115762202E+01  0.46290054485E+02 -0.42188224414E+02  0.62958110939E+02  0.00000000000E+00 0.  1.
         13    1    3    3    0    0 -0.73871414846E+02 -0.17570798236E+02 -0.28656175565E+02  0.81159689994E+02  0.00000000000E+00 0. -1.
        -13    1    4    4    0    0  0.12540999450E+03  0.62487490649E+01 -0.28274860530E+03  0.30937596446E+03  0.00000000000E+00 0.  1.
         13    1    4    4    0    0 -0.57344315336E+01 -0.23735068553E+02 -0.85134230040E+02  0.88566778810E+02  0.00000000000E+00 0. -1.
         -4    1    1    2    0  502 -0.39392571903E+02 -0.11232936760E+02 -0.60124391449E+02  0.72752292311E+02  0.00000000000E+00 0.  1.
<scales pt_clust_5="13000.00000" pt_clust_6="13000.00000" pt_clust_7="13000.00000" pt_clust_8="13000.00000" pt_clust_9="40.96283"></scales>
<clustering>
<clus scale="   40.963">  2  9  1 -1</clus>
<clus scale="   91.611">  7  8 -1 -1</clus>
<clus scale="   92.092">  5  6 -1 -1</clus>
<clus scale="  130.339">  2  7  1 -1</clus>
<clus scale="   40.963">  2  5  1 -1</clus>
</clustering>
</event>
<event>
 9    1  0.1601012E-005  0.9063143E+02  0.7546771E-02  0.1302019E+00
         21   -1    0    0  501  502  0.00000000000E+00  0.00000000000E+00  0.43368890726E+03  0.43368890726E+03  0.00000000000E+00 0. -1.
         -3   -1    0    0    0  501 -0.00000000000E+00 -0.00000000000E+00 -0.49493314121E+02  0.49493314121E+02  0.00000000000E+00 0.  1.
         23    2    1    2    0    0  0.10898781146E+02 -0.33800096550E+00  0.85590423109E+01  0.89829567014E+02  0.88753570235E+02 0.  0.
         23    2    1    2    0    0 -0.11202979920E+02  0.23267438261E+02  0.31141211812E+03  0.32515713114E+03  0.89904238927E+02 0.  0.
        -13    1    4    4    0    0 -0.33960025233E+02  0.45657608642E+02  0.24428956737E+03  0.25082921135E+03  0.00000000000E+00 0.  1.
         13    1    4    4    0    0  0.22757045314E+02 -0.22390170381E+02  0.67122550750E+02  0.74327919790E+02  0.00000000000E+00 0. -1.
        -13    1    3    3    0    0 -0.30436833000E+02  0.10518664197E+02 -0.20476372660E+02  0.38161825649E+02  0.00000000000E+00 0.  1.
         13    1    3    3    0    0  0.41335614146E+02 -0.10856665163E+02  0.29035414971E+02  0.51667741365E+02  0.00000000000E+00 0. -1.
         -3    1    1    2    0  502  0.30419877404E+00 -0.22929437296E+02  0.64224432704E+02  0.68195523223E+02  0.00000000000E+00 0.  1.
<scales pt_clust_5="13000.00000" pt_clust_6="13000.00000" pt_clust_7="13000.00000" pt_clust_8="13000.00000" pt_clust_9="22.93146"></scales>
<clustering>
<clus scale="   22.931">  1  9  2 -1</clus>
<clus scale="   88.754">  7  8 -1 -1</clus>
<clus scale="   89.490">  2  7  1 -1</clus>
<clus scale="   89.904">  5  6 -1 -1</clus>
<clus scale="   22.931">  1  5  2 -1</clus>
</clustering>
</event>
<event>
 9    1  0.1601012E-005  0.9398355E+02  0.7546771E-02  0.1293987E+00
         21   -1    0    0  501  502  0.00000000000E+00  0.00000000000E+00  0.78262025656E+03  0.78262025656E+03  0.00000000000E+00 0. -1.
          4   -1    0    0  502    0 -0.00000000000E+00 -0.00000000000E+00 -0.18975073623E+02  0.18975073623E+02  0.00000000000E+00 0. -1.
         23    2    1    2    0    0  0.37008022888E+02  0.15958075998E+02  0.25583855397E+03  0.27460545626E+03  0.91271775280E+02 0.  0.
         23    2    1    2    0    0 -0.72201619048E+01  0.15306194014E+02  0.26811747691E+03  0.28344180709E+03  0.90365182853E+02 0.  0.
        -11    1    4    4    0    0 -0.73826873271E+01 -0.37938486925E+02  0.11697515419E+03  0.12319504682E+03  0.00000000000E+00 0.  1.
         11    1    4    4    0    0  0.16252542226E+00  0.53244680939E+02  0.15114232271E+03  0.16024676027E+03  0.00000000000E+00 0. -1.
        -11    1    3    3    0    0  0.15085182703E+02 -0.38022123966E+02  0.12068440830E+03  0.12742829770E+03  0.00000000000E+00 0.  1.
         11    1    3    3    0    0  0.21922840185E+02  0.53980199964E+02  0.13515414566E+03  0.14717715855E+03  0.00000000000E+00 0. -1.
          4    1    1    2  501    0 -0.29787860983E+02 -0.31264270012E+02  0.23968915206E+03  0.24354806683E+03  0.00000000000E+00 0. -1.
<scales pt_clust_5="13000.00000" pt_clust_6="13000.00000" pt_clust_7="13000.00000" pt_clust_8="13000.00000" pt_clust_9="43.18300"></scales>
<clustering>
<clus scale="   43.183">  1  9  2 -1</clus>
<clus scale="   90.365">  5  6 -1 -1</clus>
<clus scale="   91.272">  7  8 -1 -1</clus>
<clus scale="   93.103">  1  5  2 -1</clus>
<clus scale="   43.183">  1  5  2 -1</clus>
</clustering>
</event>
<event>
 9    1  0.1601012E-005  0.1292383E+03  0.7546771E-02  0.1244755E+00
         21   -1    0    0  501  502  0.00000000000E+00  0.00000000000E+00  0.44434733001E+02  0.44434733001E+02  0.00000000000E+00 0. -1.
         -1   -1    0    0    0  501 -0.00000000000E+00 -0.00000000000E+00 -0.62514920481E+03  0.62514920481E+03  0.00000000000E+00 0.  1.
         23    2    1    2    0    0 -0.19158919447E+02  0.22536312910E+02 -0.51512318729E+03  0.53129343085E+03  0.12667226207E+03 0.  0.
         23    2    1    2    0    0 -0.24583751812E+01 -0.19857685607E+02 -0.71024521674E+02  0.11584050613E+03  0.89298202088E+02 0.  0.
        -11    1    4    4    0    0 -0.10927052353E+02  0.32565515868E+02 -0.45256132001E+02  0.56815761727E+02  0.00000000000E+00 0.  1.
         11    1    4    4    0    0  0.84686771723E+01 -0.52423201475E+02 -0.25768389672E+02  0.59024744407E+02  0.00000000000E+00 0. -1.
        -13    1    3    3    0    0 -0.61053997746E+02  0.50897547274E+02 -0.31368143759E+03  0.32359572811E+03  0.00000000000E+00 0.  1.
         13    1    3    3    0    0  0.41895078299E+02 -0.28361234364E+02 -0.20144174970E+03  0.20769770274E+03  0.00000000000E+00 0. -1.
         -1    1    1    2    0  502  0.21617294629E+02 -0.26786273031E+01  0.54332371579E+01  0.22450000831E+02  0.00000000000E+00 0.  1.
<scales pt_clust_5="13000.00000" pt_clust_6="13000.00000" pt_clust_7="13000.00000" pt_clust_8="13000.00000" pt_clust_9="21.78262"></scales>
<clustering>
<clus scale="   21.783">  1  9  2 -1</clus>
<clus scale="   89.298">  5  6 -1 -1</clus>
<clus scale="   92.902">  1  5  2 -1</clus>
<clus scale="  126.672">  7  8 -1 -1</clus>
<clus scale="   21.783">  1  5  2 -1</clus>
</clustering>
</event>
<event>
 9    1  0.1601012E-005  0.9603898E+02  0.7546771E-02  0.1290816E+00
         21   -1    0    0  501  502  0.00000000000E+00  0.00000000000E+00  0.97324344214E+02  0.97324344214E+02  0.00000000000E+00 0.  1.
         -2   -1    0    0    0  501 -0.00000000000E+00 -0.00000000000E+00 -0.20782966463E+03  0.20782966463E+03  0.00000000000E+00 0.  1.
         23    2    1    2    0    0 -0.12155279394E+02  0.66343303545E+00 -0.14860170549E+03  0.17717731389E+03  0.95713858565E+02 0.  0.
         23    2    1    2    0    0 -0.80216534278E+01 -0.38689763417E+01  0.99469450970E+01  0.93194873607E+02  0.92233545135E+02 0.  0.
        -11    1    4    4    0    0 -0.18878021651E+02 -0.44984511210E+02 -0.26103804921E+01  0.48854887540E+02  0.00000000000E+00 0.  1.
         11    1    4    4    0    0  0.10856368223E+02  0.41115534868E+02  0.12557325589E+02  0.44339986067E+02  0.00000000000E+00 0. -1.
        -13    1    3    3    0    0 -0.37688342308E+02  0.31184636795E+02 -0.11544469047E+03  0.12538089678E+03  0.00000000000E+00 0.  1.
         13    1    3    3    0    0  0.25533062914E+02 -0.30521203759E+02 -0.33157015014E+02  0.51796417109E+02  0.00000000000E+00 0. -1.
         -2    1    1    2    0  502  0.20176932821E+02  0.32055433063E+01  0.28149439972E+02  0.34781821354E+02  0.00000000000E+00 0.  1.
<scales pt_clust_5="13000.00000" pt_clust_6="13000.00000" pt_clust_7="13000.00000" pt_clust_8="13000.00000" pt_clust_9="20.42998"></scales>
<clustering>
<clus scale="   20.430">  1  9  2 -1</clus>
<clus scale="   92.234">  5  6 -1 -1</clus>
<clus scale="   92.571">  1  5  2 -1</clus>
<clus scale="   95.714">  7  8 -1 -1</clus>
<clus scale="   20.430">  1  5  2 -1</clus>
</clustering>
</event>
<event>
 9    1  0.1601012E-005  0.9997351E+02  0.7546771E-02  0.1282466E+00
         21   -1    0    0  501  502  0.00000000000E+00  0.00000000000E+00  0.39431096013E+02  0.39431096013E+02  0.00000000000E+00 0.  1.
         -1   -1    0    0    0  501 -0.00000000000E+00 -0.00000000000E+00 -0.54414501082E+03  0.54414501082E+03  0.00000000000E+00 0.  1.
         23    2    1    2    0    0 -0.13672748842E+02  0.17137206781E+02 -0.23620720919E+03  0.25302199617E+03  0.88009414031E+02 0.  0.
         23    2    1    2    0    0 -0.45029644840E+01 -0.82522412332E+02 -0.18951940494E+03  0.22641681989E+03  0.92286219204E+02 0.  0.
        -11    1    3    3    0    0  0.30684404676E+02  0.17220123289E+02 -0.47155738543E+02  0.58836459904E+02  0.00000000000E+00 0. -1.
         11    1    3    3    0    0 -0.44357153519E+02 -0.82916508269E-01 -0.18905147064E+03  0.19418553627E+03  0.00000000000E+00 0.  1.
        -13    1    4    4    0    0  0.31203643124E+02 -0.50222467880E+02 -0.15843012166E+03  0.16910371691E+03  0.00000000000E+00 0.  1.
         13    1    4    4    0    0 -0.35706607608E+02 -0.32299944452E+02 -0.31089283283E+02  0.57313102983E+02  0.00000000000E+00 0. -1.
         -1    1    1    2    0  502  0.18175713326E+02  0.65385205551E+02 -0.78987300682E+02  0.10413729077E+03  0.00000000000E+00 0.  1.
<scales pt_clust_5="13000.00000" pt_clust_6="13000.00000" pt_clust_7="13000.00000" pt_clust_8="13000.00000" pt_clust_9="67.86444"></scales>
<clustering>
<clus scale="   67.864">  1  9  2 -1</clus>
<clus scale="   88.009">  5  6 -1 -1</clus>
<clus scale="   92.286">  7  8 -1 -1</clus>
<clus scale="   96.040">  2  5  1 -1</clus>
<clus scale="   67.864">  1  5  2 -1</clus>
</clustering>
</event>
<event>
 9    1  0.1601012E-005  0.1563516E+03  0.7546771E-02  0.1207281E+00
         21   -1    0    0  501  502  0.00000000000E+00  0.00000000000E+00  0.64337149347E+03  0.64337149347E+03  0.00000000000E+00 0. -1.
          2   -1    0    0  502    0 -0.00000000000E+00 -0.00000000000E+00 -0.81032665442E+02  0.81032665442E+02  0.00000000000E+00 0. -1.
         23    2    1    2    0    0  0.69379972757E+02  0.14279588478E+02  0.34599550706E+02  0.11947731734E+03  0.89778690029E+02 0.  0.
         23    2    1    2    0    0  0.82632279772E+02 -0.32726874567E+02  0.14344143697E+03  0.19124476874E+03  0.89999854167E+02 0.  0.
        -13    1    4    4    0    0  0.58858286300E+02 -0.53783992234E+02  0.13748681046E+03  0.15893281202E+03  0.00000000000E+00 0. -1.
         13    1    4    4    0    0  0.23773993472E+02  0.21057117667E+02  0.59546265140E+01  0.32311956718E+02  0.00000000000E+00 0.  1.
        -13    1    3    3    0    0  0.82309697703E+02 -0.63590196776E+01  0.72754991146E+01  0.82874944070E+02  0.00000000000E+00 0. -1.
         13    1    3    3    0    0 -0.12929724946E+02  0.20638608156E+02  0.27324051592E+02  0.36602373272E+02  0.00000000000E+00 0.  1.
          2    1    1    2  501    0 -0.15201225253E+03  0.18447286088E+02  0.38429784035E+03  0.41368207283E+03  0.00000000000E+00 0. -1.
<scales pt_clust_5="13000.00000" pt_clust_6="13000.00000" pt_clust_7="13000.00000" pt_clust_8="13000.00000" pt_clust_9="127.85085"></scales>
<clustering>
<clus scale="   89.779">  7  8 -1 -1</clus>
<clus scale="   90.000">  5  6 -1 -1</clus>
<clus scale="  114.358">  2  7  1 -1</clus>
<clus scale="  127.851">  1  9  2 -1</clus>
<clus scale="  127.851">  1  5  2 -1</clus>
</clustering>
</event>
<event>
 9    1  0.1601012E-005  0.9422173E+02  0.7546771E-02  0.1295056E+00
         21   -1    0    0  501  502  0.00000000000E+00  0.00000000000E+00  0.88994050889E+02  0.88994050889E+02  0.00000000000E+00 0. -1.
          1   -1    0    0  502    0 -0.00000000000E+00 -0.00000000000E+00 -0.18802522259E+03  0.18802522259E+03  0.00000000000E+00 0. -1.
         23    2    1    2    0    0  0.18896809158E+02 -0.49505626785E+01 -0.72383273893E+02  0.11940577987E+03  0.92934409454E+02 0.  0.
         23    2    1    2    0    0  0.16753735924E+01  0.20894167718E+02 -0.64205854768E+02  0.11191870861E+03  0.89241427765E+02 0.  0.
        -11    1    4    4    0    0  0.30783042006E+02 -0.15592488688E+02 -0.25673156569E+01  0.34602203518E+02  0.00000000000E+00 0.  1.
         11    1    4    4    0    0 -0.29107668413E+02  0.36486656407E+02 -0.61638539111E+02  0.77316505094E+02  0.00000000000E+00 0. -1.
        -13    1    3    3    0    0  0.24988818913E-01 -0.34586884040E+02 -0.76573122415E+02  0.84021998598E+02  0.00000000000E+00 0.  1.
         13    1    3    3    0    0  0.18871820339E+02  0.29636321361E+02  0.41898485218E+01  0.35383781276E+02  0.00000000000E+00 0. -1.
          1    1    1    2  501    0 -0.20572182751E+02 -0.15943605040E+02  0.37557956958E+02  0.45694784994E+02  0.00000000000E+00 0. -1.
<scales pt_clust_5="13000.00000" pt_clust_6="13000.00000" pt_clust_7="13000.00000" pt_clust_8="13000.00000" pt_clust_9="26.02716"></scales>
<clustering>
<clus scale="   26.027">  1  9  2 -1</clus>
<clus scale="   89.241">  5  6 -1 -1</clus>
<clus scale="   90.581">  1  5  2 -1</clus>
<clus scale="   92.934">  7  8 -1 -1</clus>
<clus scale="   26.027">  1  5  2 -1</clus>
</clustering>
</event>
<event>
 9    1  0.1601012E-005  0.1082540E+03  0.7546771E-02  0.1263850E+00
         -1   -1    0    0    0  501 -0.00000000000E+00  0.00000000000E+00  0.18972388382E+03  0.18972388382E+03  0.00000000000E+00 0.  1.
         21   -1    0    0  501  502  0.00000000000E+00 -0.00000000000E+00 -0.17650895278E+03  0.17650895278E+03  0.00000000000E+00 0.  1.
         23    2    1    2    0    0 -0.50339317318E+02  0.14955779160E+02  0.12363583080E+03  0.16229701295E+03  0.91086659587E+02 0.  0.
         23    2    1    2    0    0  0.89233522655E+02 -0.22442252667E+02 -0.69262701834E+02  0.14681486645E+03  0.91054966229E+02 0.  0.
        -11    1    3    3    0    0 -0.50832392068E+02 -0.12904043072E+02  0.12378060286E+03  0.13443245165E+03  0.00000000000E+00 0. -1.
         11    1    3    3    0    0  0.49307474997E+00  0.27859822232E+02 -0.14477205752E+00  0.27864561300E+02  0.00000000000E+00 0.  1.
        -11    1    4    4    0    0  0.10226563240E+03 -0.36540141859E+01 -0.40459310558E+02  0.11003893493E+03  0.00000000000E+00 0.  1.
         11    1    4    4    0    0 -0.13032109749E+02 -0.18788238481E+02 -0.28803391276E+02  0.36775931514E+02  0.00000000000E+00 0. -1.
         -1    1    1    2    0  502 -0.38894205337E+02  0.74864735071E+01 -0.41158197936E+02  0.57120957203E+02  0.00000000000E+00 0.  1.
<scales pt_clust_5="13000.00000" pt_clust_6="13000.00000" pt_clust_7="13000.00000" pt_clust_8="13000.00000" pt_clust_9="39.60816"></scales>
<clustering>
<clus scale="   39.608">  2  9  1 -1</clus>
<clus scale="   91.055">  7  8 -1 -1</clus>
<clus scale="   91.087">  5  6 -1 -1</clus>
<clus scale="  108.227">  2  7  1 -1</clus>
<clus scale="   39.608">  2  5  1 -1</clus>
</clustering>
</event>
<event>
 9    1  0.1601012E-005  0.1015904E+03  0.7546771E-02  0.1278588E+00
         -3   -1    0    0    0  501 -0.00000000000E+00  0.00000000000E+00  0.46322549222E+03  0.46322549222E+03  0.00000000000E+00 0.  1.
         21   -1    0    0  501  502  0.00000000000E+00 -0.00000000000E+00 -0.43890855123E+02  0.43890855123E+02  0.00000000000E+00 0.  1.
         23    2    1    2    0    0 -0.42240995341E+02  0.11488348490E+02  0.22277357966E+03  0.24410247624E+03  0.89675343729E+02 0.  0.
         23    2    1    2    0    0  0.25167544939E+02 -0.34433703753E+02  0.20831230982E+03  0.23209326358E+03  0.93027841561E+02 0.  0.
        -11    1    3    3    0    0 -0.69063792097E+01 -0.38174840799E+02  0.90218854236E+02  0.98206202469E+02  0.00000000000E+00 0.  1.
         11    1    3    3    0    0 -0.35334616132E+02  0.49663189289E+02  0.13255472543E+03  0.14589627377E+03  0.00000000000E+00 0. -1.
        -11    1    4    4    0    0  0.33327032001E+02 -0.53530631840E+02  0.20003322037E+03  0.20973676087E+03  0.00000000000E+00 0.  1.
         11    1    4    4    0    0 -0.81594870620E+01  0.19096928087E+02  0.82790894453E+01  0.22356502712E+02  0.00000000000E+00 0. -1.
         -3    1    1    2    0  502  0.17073450402E+02  0.22945355263E+02 -0.11751252385E+02  0.30920607520E+02  0.00000000000E+00 0.  1.
<scales pt_clust_5="13000.00000" pt_clust_6="13000.00000" pt_clust_7="13000.00000" pt_clust_8="13000.00000" pt_clust_9="28.60056"></scales>
<clustering>
<clus scale="   28.601">  2  9  1 -1</clus>
<clus scale="   89.675">  5  6 -1 -1</clus>
<clus scale="   93.028">  7  8 -1 -1</clus>
<clus scale="   98.530">  1  5  2 -1</clus>
<clus scale="   28.601">  2  5  1 -1</clus>
</clustering>
</event>
<event>
 9    1  0.1601012E-005  0.1033791E+03  0.7546771E-02  0.1274262E+00
         21   -1    0    0  501  502  0.00000000000E+00  0.00000000000E+00  0.17096458349E+03  0.17096458349E+03  0.00000000000E+00 0. -1.
          1   -1    0    0  502    0 -0.00000000000E+00 -0.00000000000E+00 -0.22271072879E+03  0.22271072879E+03  0.00000000000E+00 0. -1.
         23    2    1    2    0    0  0.62986489501E+02 -0.41556191826E+02 -0.11198045860E+03  0.16317580793E+03  0.91610623000E+02 0.  0.
         23    2    1    2    0    0  0.50702881927E+01  0.16049359423E+02 -0.42894967190E+02  0.10433305880E+03  0.93606192043E+02 0.  0.
        -13    1    3    3    0    0  0.69157519909E+02 -0.63476107557E+02 -0.76883925638E+02  0.12133885121E+03  0.00000000000E+00 0. -1.
         13    1    3    3    0    0 -0.61710304077E+01  0.21919915731E+02 -0.35096532957E+02  0.41836956720E+02  0.00000000000E+00 0.  1.
        -13    1    4    4    0    0 -0.27426304547E+02 -0.23062963633E+02 -0.39554238165E+02  0.53372654322E+02  0.00000000000E+00 0.  1.
         13    1    4    4    0    0  0.32496592739E+02  0.39112323055E+02 -0.33407290252E+01  0.50960404481E+02  0.00000000000E+00 0. -1.
          1    1    1    2  501    0 -0.68056777694E+02  0.25506832403E+02  0.10312928048E+03  0.12616644555E+03  0.00000000000E+00 0. -1.
<scales pt_clust_5="13000.00000" pt_clust_6="13000.00000" pt_clust_7="13000.00000" pt_clust_8="13000.00000" pt_clust_9="72.67959"></scales>
<clustering>
<clus scale="   72.680">  1  9  2 -1</clus>
<clus scale="   91.611">  5  6 -1 -1</clus>
<clus scale="   93.606">  7  8 -1 -1</clus>
<clus scale="  101.576">  2  5  1 -1</clus>
<clus scale="   72.680">  1  5  2 -1</clus>
</clustering>
</event>
<event>
 9    1  0.1601012E-005  0.1135383E+03  0.7546771E-02  0.1255449E+00
         21   -1    0    0  501  502  0.00000000000E+00  0.00000000000E+00  0.23258258179E+03  0.23258258179E+03  0.00000000000E+00 0. -1.
          2   -1    0    0  502    0 -0.00000000000E+00 -0.00000000000E+00 -0.34148500606E+03  0.34148500606E+03  0.00000000000E+00 0. -1.
         23    2    1    2    0    0 -0.42044709852E+02  0.54951051853E+02 -0.30282783723E+03  0.32306257318E+03  0.88754444714E+02 0.  0.
         23    2    1    2    0    0  0.31050304656E+02 -0.22693725388E+02  0.68963461971E+02  0.12147933671E+03  0.92315456821E+02 0.  0.
        -11    1    4    4    0    0 -0.23809437913E+02 -0.28263592344E+02  0.51986408174E+02  0.63783278536E+02  0.00000000000E+00 0.  1.
         11    1    4    4    0    0  0.54859742569E+02  0.55698669563E+01  0.16977053797E+02  0.57696058169E+02  0.00000000000E+00 0. -1.
        -11    1    3    3    0    0  0.21186241401E+02 -0.88043133199E+00 -0.11808001549E+03  0.11996883780E+03  0.00000000000E+00 0.  1.
         11    1    3    3    0    0 -0.63230951253E+02  0.55831483185E+02 -0.18474782174E+03  0.20309373538E+03  0.00000000000E+00 0. -1.
          2    1    1    2  501    0  0.10994405195E+02 -0.32257326465E+02  0.12496195099E+03  0.12952567797E+03  0.00000000000E+00 0. -1.
<scales pt_clust_5="13000.00000" pt_clust_6="13000.00000" pt_clust_7="13000.00000" pt_clust_8="13000.00000" pt_clust_9="34.07950"></scales>
<clustering>
<clus scale="   34.079">  1  9  2 -1</clus>
<clus scale="   88.754">  7  8 -1 -1</clus>
<clus scale="   92.315">  5  6 -1 -1</clus>
<clus scale="  110.662">  2  7  1 -1</clus>
<clus scale="   34.079">  1  5  2 -1</clus>
</clustering>
</event>
<event>
 9    1  0.1601012E-005  0.1170705E+03  0.7546771E-02  0.1254682E+00
          1   -1    0    0  502    0 -0.00000000000E+00  0.00000000000E+00  0.24140111421E+03  0.24140111421E+03  0.00000000000E+00 0. -1.
         21   -1    0    0  501  502  0.00000000000E+00 -0.00000000000E+00 -0.10446550621E+03  0.10446550621E+03  0.00000000000E+00 0.  1.
         23    2    1    2    0    0 -0.28335472867E+02  0.30961496900E+02  0.13008624551E+03  0.16316085102E+03  0.89092753486E+02 0.  0.
         23    2    1    2    0    0  0.39349643754E+02 -0.68381125833E+02  0.32881960262E+02  0.13580974892E+03  0.10554000075E+03 0.  0.
        -11    1    3    3    0    0  0.17545379965E+01 -0.27739544541E+02  0.18029715881E+02  0.33130520516E+02  0.00000000000E+00 0.  1.
         11    1    3    3    0    0 -0.30090010864E+02  0.58701041441E+02  0.11205652962E+03  0.13003033051E+03  0.00000000000E+00 0. -1.
        -11    1    4    4    0    0  0.40865242010E+02 -0.95877482569E+02  0.25409113362E+02  0.10727573216E+03  0.00000000000E+00 0.  1.
         11    1    4    4    0    0 -0.15155982566E+01  0.27496356736E+02  0.74728468997E+01  0.28534016763E+02  0.00000000000E+00 0. -1.
          1    1    1    2  501    0 -0.11014170887E+02  0.37419628932E+02 -0.26032597766E+02  0.46896020473E+02  0.00000000000E+00 0. -1.
<scales pt_clust_5="13000.00000" pt_clust_6="13000.00000" pt_clust_7="13000.00000" pt_clust_8="13000.00000" pt_clust_9="39.00693"></scales>
<clustering>
<clus scale="   39.007">  2  9  1 -1</clus>
<clus scale="   89.093">  5  6 -1 -1</clus>
<clus scale="  102.491">  1  5  2 -1</clus>
<clus scale="  105.540">  7  8 -1 -1</clus>
<clus scale="   39.007">  2  5  1 -1</clus>
</clustering>
</event>
<event>
 9    1  0.1601012E-005  0.1059518E+03  0.7546771E-02  0.1270377E+00
          3   -1    0    0  502    0 -0.00000000000E+00  0.00000000000E+00  0.64157311275E+03  0.64157311275E+03  0.00000000000E+00 0. -1.
         21   -1    0    0  501  502  0.00000000000E+00 -0.00000000000E+00 -0.28489341134E+02  0.28489341134E+02  0.00000000000E+00 0. -1.
         23    2    1    2    0    0  0.33216697764E+02  0.28427103674E+02  0.34976092505E+03  0.36517276331E+03  0.95430567100E+02 0.  0.
         23    2    1    2    0    0 -0.54291646448E+02 -0.54049704261E+01  0.24898842463E+03  0.27054369032E+03  0.90674451700E+02 0.  0.
        -13    1    3    3    0    0  0.45773900771E+02  0.55936194035E+02  0.20733766294E+03  0.21957462118E+03  0.00000000000E+00 0. -1.
         13    1    3    3    0    0 -0.12557203007E+02 -0.27509090361E+02  0.14242326212E+03  0.14559814213E+03  0.00000000000E+00 0.  1.
        -13    1    4    4    0    0 -0.10661685105E+02 -0.41485360403E+02  0.63411940007E+02  0.76523073595E+02  0.00000000000E+00 0.  1.
         13    1    4    4    0    0 -0.43629961343E+02  0.36080389977E+02  0.18557648463E+03  0.19402061672E+03  0.00000000000E+00 0. -1.
          3    1    1    2  501    0  0.21074948684E+02 -0.23022133248E+02  0.14334421930E+02  0.34346000253E+02  0.00000000000E+00 0. -1.
<scales pt_clust_5="13000.00000" pt_clust_6="13000.00000" pt_clust_7="13000.00000" pt_clust_8="13000.00000" pt_clust_9="31.21173"></scales>
<clustering>
<clus scale="   31.212">  2  9  1 -1</clus>
<clus scale="   90.674">  7  8 -1 -1</clus>
<clus scale="   95.431">  5  6 -1 -1</clus>
<clus scale="  101.689">  2  7  1 -1</clus>
<clus scale="   31.212">  2  5  1 -1</clus>
</clustering>
</event>
<event>
 9    1  0.1601012E-005  0.1217747E+03  0.7546771E-02  0.1242120E+00
          2   -1    0    0  502    0 -0.00000000000E+00  0.00000000000E+00  0.53305173454E+03  0.53305173454E+03  0.00000000000E+00 0. -1.
         21   -1    0    0  501  502  0.00000000000E+00 -0.00000000000E+00 -0.48911508210E+02  0.48911508210E+02  0.00000000000E+00 0.  1.
         23    2    1    2    0    0  0.26685370192E+02  0.69595836794E+02  0.33750776687E+03  0.35607611176E+03  0.85574617655E+02 0.  0.
         23    2    1    2    0    0 -0.55469325698E+02 -0.80146812230E+02  0.14145921180E+03  0.19479691278E+03  0.91841009474E+02 0.  0.
        -11    1    4    4    0    0 -0.35682768083E+02 -0.99454575893E+02  0.10417153885E+03  0.14837850960E+03  0.00000000000E+00 0.  1.
         11    1    4    4    0    0 -0.19786557615E+02  0.19307763662E+02  0.37287672953E+02  0.46418403184E+02  0.00000000000E+00 0. -1.
        -13    1    3    3    0    0  0.17882589926E+02 -0.10568742099E+02  0.21322460417E+02  0.29767980285E+02  0.00000000000E+00 0.  1.
         13    1    3    3    0    0  0.88027802656E+01  0.80164578893E+02  0.31618530645E+03  0.32630813147E+03  0.00000000000E+00 0. -1.
          2    1    1    2  501    0  0.28783955506E+02  0.10550975436E+02  0.51732476633E+01  0.31090218215E+02  0.00000000000E+00 0. -1.
<scales pt_clust_5="13000.00000" pt_clust_6="13000.00000" pt_clust_7="13000.00000" pt_clust_8="13000.00000" pt_clust_9="30.65680"></scales>
<clustering>
<clus scale="   30.657">  2  9  1 -1</clus>
<clus scale="   85.575">  7  8 -1 -1</clus>
<clus scale="   91.841">  5  6 -1 -1</clus>
<clus scale="  117.121">  1  7  2 -1</clus>
<clus scale="   30.657">  2  5  1 -1</clus>
</clustering>
</event>
<event>
 9    1  0.1601012E-005  0.1034883E+03  0.7546771E-02  0.1275263E+00
         21   -1    0    0  501  502  0.00000000000E+00  0.00000000000E+00  0.15835316646E+03  0.15835316646E+03  0.00000000000E+00 0. -1.
          1   -1    0    0  502    0 -0.00000000000E+00 -0.00000000000E+00 -0.20580148612E+03  0.20580148612E+03  0.00000000000E+00 0. -1.
         23    2    1    2    0    0  0.27366934076E+01 -0.48347959535E+02 -0.99213724980E+02  0.14335128144E+03  0.91439663074E+02 0.  0.
         23    2    1    2    0    0  0.19672647239E+02  0.23999752664E+02 -0.50886651762E+02  0.11294949523E+03  0.95943399816E+02 0.  0.
        -11    1    3    3    0    0  0.55430732710E+01 -0.20326061410E+02 -0.11088335081E+03  0.11286714278E+03  0.00000000000E+00 0. -1.
         11    1    3    3    0    0 -0.28063798634E+01 -0.28021898125E+02  0.11669625828E+02  0.30484138653E+02  0.00000000000E+00 0.  1.
        -11    1    4    4    0    0  0.28605141121E+02  0.51574933208E+02 -0.56814991981E+01  0.59249533898E+02  0.00000000000E+00 0. -1.
         11    1    4    4    0    0 -0.89324938815E+01 -0.27575180544E+02 -0.45205152564E+02  0.53699961334E+02  0.00000000000E+00 0.  1.
          1    1    1    2  501    0 -0.22409340647E+02  0.24348206871E+02  0.10265205709E+03  0.10785387592E+03  0.00000000000E+00 0. -1.
<scales pt_clust_5="13000.00000" pt_clust_6="13000.00000" pt_clust_7="13000.00000" pt_clust_8="13000.00000" pt_clust_9="33.09099"></scales>
<clustering>
<clus scale="   33.091">  1  9  2 -1</clus>
<clus scale="   91.440">  5  6 -1 -1</clus>
<clus scale="   95.943">  7  8 -1 -1</clus>
<clus scale="   99.327">  2  5  1 -1</clus>
<clus scale="   33.091">  1  5  2 -1</clus>
</clustering>
</event>
<event>
 9    1  0.1601012E-005  0.2882379E+03  0.7546771E-02  0.1124721E+00
         21   -1    0    0  501  502  0.00000000000E+00  0.00000000000E+00  0.90667998862E+02  0.90667998862E+02  0.00000000000E+00 0. -1.
          1   -1    0    0  502    0 -0.00000000000E+00 -0.00000000000E+00 -0.13727723887E+04  0.13727723887E+04  0.00000000000E+00 0. -1.
         23    2    1    2    0    0 -0.12151386258E+02  0.81728332208E+02 -0.30246507191E+03  0.32634581008E+03  0.90494704594E+02 0.  0.
         23    2    1    2    0    0  0.22284362951E+03  0.12995711353E+03 -0.40015710919E+03  0.48517312550E+03  0.93376202035E+02 0.  0.
        -11    1    4    4    0    0  0.16750539693E+03  0.13966606885E+03 -0.32261339842E+03  0.38941504033E+03  0.00000000000E+00 0. -1.
         11    1    4    4    0    0  0.55338232571E+02 -0.97089553158E+01 -0.77543710766E+02  0.95758085178E+02  0.00000000000E+00 0.  1.
        -13    1    3    3    0    0 -0.44298322755E+02  0.12251761418E+02 -0.11680040651E+03  0.12551805455E+03  0.00000000000E+00 0.  1.
         13    1    3    3    0    0  0.32146936496E+02  0.69476570790E+02 -0.18566466540E+03  0.20082775553E+03  0.00000000000E+00 0. -1.
          1    1    1    2  501    0 -0.21069224325E+03 -0.21168544574E+03 -0.57948220874E+03  0.65192145198E+03  0.00000000000E+00 0. -1.
<scales pt_clust_5="13000.00000" pt_clust_6="13000.00000" pt_clust_7="13000.00000" pt_clust_8="13000.00000" pt_clust_9="272.69408"></scales>
<clustering>
<clus scale="   90.495">  7  8 -1 -1</clus>
<clus scale="   93.376">  5  6 -1 -1</clus>
<clus scale="  122.542">  2  7  1 -1</clus>
<clus scale="  272.694">  1  9  2 -1</clus>
<clus scale="  272.694">  1  5  2 -1</clus>
</clustering>
</event>
<event>
 9    1  0.1601012E-005  0.1444434E+03  0.7546771E-02  0.1207808E+00
         -4   -1    0    0    0  501 -0.00000000000E+00  0.00000000000E+00  0.85267281617E+02  0.85267281617E+02  0.00000000000E+00 0.  1.
         21   -1    0    0  501  502  0.00000000000E+00 -0.00000000000E+00 -0.35350401605E+03  0.35350401605E+03  0.00000000000E+00 0.  1.
         23    2    1    2    0    0 -0.37616547463E+02 -0.10951266082E+03 -0.44842561103E+02  0.15416853591E+03  0.91373161569E+02 0.  0.
         23    2    1    2    0    0  0.54570245915E+02  0.91679595261E+02 -0.13966245355E+03  0.19733050377E+03  0.89725508401E+02 0.  0.
        -11    1    4    4    0    0 -0.53699587092E+01  0.56491437824E+02 -0.10570421775E+03  0.11997291634E+03  0.00000000000E+00 0. -1.
         11    1    4    4    0    0  0.59940204624E+02  0.35188157437E+02 -0.33958235803E+02  0.77357587431E+02  0.00000000000E+00 0.  1.
        -11    1    3    3    0    0 -0.14501307681E+01 -0.46394991540E+02  0.25512917526E+02  0.52967037674E+02  0.00000000000E+00 0.  1.
         11    1    3    3    0    0 -0.36166416695E+02 -0.63117669280E+02 -0.70355478629E+02  0.10120149823E+03  0.00000000000E+00 0. -1.
         -4    1    1    2    0  502 -0.16953698452E+02  0.17833065559E+02 -0.83731719773E+02  0.87272257989E+02  0.00000000000E+00 0.  1.
<scales pt_clust_5="13000.00000" pt_clust_6="13000.00000" pt_clust_7="13000.00000" pt_clust_8="13000.00000" pt_clust_9="24.60581"></scales>
<clustering>
<clus scale="   24.606">  2  9  1 -1</clus>
<clus scale="   89.726">  5  6 -1 -1</clus>
<clus scale="   91.373">  7  8 -1 -1</clus>
<clus scale="  143.407">  2  5  1 -1</clus>
<clus scale="   24.606">  2  5  1 -1</clus>
</clustering>
</event>
<event>
 9    1  0.1601012E-005  0.1176617E+03  0.7546771E-02  0.1250573E+00
         21   -1    0    0  501  502  0.00000000000E+00  0.00000000000E+00  0.52055236476E+03  0.52055236476E+03  0.00000000000E+00 0. -1.
          2   -1    0    0  502    0 -0.00000000000E+00 -0.00000000000E+00 -0.50812633804E+03  0.50812633804E+03  0.00000000000E+00 0. -1.
         23    2    1    2    0    0  0.51892100769E+02 -0.37152594672E+02 -0.37024648648E+03  0.38686785967E+03  0.92256027897E+02 0.  0.
         23    2    1    2    0    0 -0.77499050639E+02  0.98842625359E+02 -0.83069664186E+02  0.17130350891E+03  0.81660000115E+02 0.  0.
        -11    1    4    4    0    0 -0.62887565479E+02  0.11307329375E+03 -0.72982895036E+02  0.14854938108E+03  0.00000000000E+00 0. -1.
         11    1    4    4    0    0 -0.14611485160E+02 -0.14230668390E+02 -0.10086769150E+02  0.22754127830E+02  0.00000000000E+00 0.  1.
        -11    1    3    3    0    0  0.10214059615E+02 -0.62407998262E+02 -0.22070434042E+03  0.22958547676E+03  0.00000000000E+00 0. -1.
         11    1    3    3    0    0  0.41678041155E+02  0.25255403589E+02 -0.14954214606E+03  0.15728238291E+03  0.00000000000E+00 0.  1.
          2    1    1    2  501    0  0.25606949870E+02 -0.61690030687E+02  0.46574217738E+03  0.47050733422E+03  0.00000000000E+00 0. -1.
<scales pt_clust_5="13000.00000" pt_clust_6="13000.00000" pt_clust_7="13000.00000" pt_clust_8="13000.00000" pt_clust_9="66.79353"></scales>
<clustering>
<clus scale="   66.794">  1  9  2 -1</clus>
<clus scale="   81.660">  5  6 -1 -1</clus>
<clus scale="   92.256">  7  8 -1 -1</clus>
<clus scale="  109.551">  1  5  2 -1</clus>
<clus scale="   66.794">  1  5  2 -1</clus>
</clustering>
</event>
<event>
 9    1  0.1601012E-005  0.1134600E+03  0.7546771E-02  0.1254324E+00
          4   -1    0    0  502    0 -0.00000000000E+00  0.00000000000E+00  0.38839669280E+03  0.38839669280E+03  0.00000000000E+00 0. -1.
         21   -1    0    0  501  502  0.00000000000E+00 -0.00000000000E+00 -0.96406393418E+02  0.96406393418E+02  0.00000000000E+00 0.  1.
         23    2    1    2    0    0  0.46996099249E+01  0.55677712928E+02  0.22177569292E+03  0.24630108736E+03  0.91420312924E+02 0.  0.
         23    2    1    2    0    0  0.40969348546E+02 -0.10387863889E+03  0.88987623591E+02  0.16949903367E+03  0.91333816988E+02 0.  0.
        -11    1    3    3    0    0  0.46199752767E+02  0.31597145219E+02  0.89159972893E+02  0.10527249170E+03  0.00000000000E+00 0. -1.
         11    1    3    3    0    0 -0.41500142842E+02  0.24080567709E+02  0.13261572003E+03  0.14102859566E+03  0.00000000000E+00 0.  1.
        -13    1    4    4    0    0  0.43676569688E+02 -0.35471298894E+01  0.29528484566E+02  0.52840857970E+02  0.00000000000E+00 0. -1.
         13    1    4    4    0    0 -0.27072211423E+01 -0.10033150900E+03  0.59459139025E+02  0.11665817570E+03  0.00000000000E+00 0.  1.
          4    1    1    2  501    0 -0.45668958471E+02  0.48200925962E+02 -0.18773017132E+02  0.69002965180E+02  0.00000000000E+00 0. -1.
<scales pt_clust_5="13000.00000" pt_clust_6="13000.00000" pt_clust_7="13000.00000" pt_clust_8="13000.00000" pt_clust_9="66.40017"></scales>
<clustering>
<clus scale="   66.400">  2  9  1 -1</clus>
<clus scale="   91.334">  7  8 -1 -1</clus>
<clus scale="   91.420">  5  6 -1 -1</clus>
<clus scale="  113.390">  2  7  1 -1</clus>
<clus scale="   66.400">  2  5  1 -1</clus>
</clustering>
</event>
<event>
 9    1  0.1601012E-005  0.9661043E+02  0.7546771E-02  0.1287920E+00
         21   -1    0    0  501  502  0.00000000000E+00  0.00000000000E+00  0.81098714508E+02  0.81098714508E+02  0.00000000000E+00 0. -1.
          1   -1    0    0  502    0 -0.00000000000E+00 -0.00000000000E+00 -0.39842064639E+03  0.39842064639E+03  0.00000000000E+00 0. -1.
         23    2    1    2    0    0  0.16930442462E+02 -0.14165443779E+02 -0.32277797273E+03  0.33651836859E+03  0.92583438237E+02 0.  0.
         23    2    1    2    0    0 -0.37132748687E+02  0.27232472670E+02 -0.22243960828E+02  0.10631079589E+03  0.93202698122E+02 0.  0.
        -13    1    4    4    0    0  0.28285470268E+02  0.99468378437E+01  0.96625755374E+01  0.31501948787E+02  0.00000000000E+00 0.  1.
         13    1    4    4    0    0 -0.65418218954E+02  0.17285634826E+02 -0.31906536366E+02  0.74808847106E+02  0.00000000000E+00 0. -1.
        -13    1    3    3    0    0  0.45226392951E+01  0.39190078183E+02 -0.11225984019E+03  0.11898986602E+03  0.00000000000E+00 0.  1.
         13    1    3    3    0    0  0.12407803167E+02 -0.53355521962E+02 -0.21051813254E+03  0.21752850257E+03  0.00000000000E+00 0. -1.
          1    1    1    2  501    0  0.20202306225E+02 -0.13067028891E+02  0.27700001673E+02  0.36690196423E+02  0.00000000000E+00 0. -1.
<scales pt_clust_5="13000.00000" pt_clust_6="13000.00000" pt_clust_7="13000.00000" pt_clust_8="13000.00000" pt_clust_9="24.05993"></scales>
<clustering>
<clus scale="   24.060">  1  9  2 -1</clus>
<clus scale="   92.583">  7  8 -1 -1</clus>
<clus scale="   93.203">  5  6 -1 -1</clus>
<clus scale="   96.013">  2  7  1 -1</clus>
<clus scale="   24.060">  1  5  2 -1</clus>
</clustering>
</event>
<event>
 9    1  0.1601012E-005  0.1728382E+03  0.7546771E-02  0.1176319E+00
          1   -1    0    0  502    0 -0.00000000000E+00  0.00000000000E+00  0.12502894158E+04  0.12502894158E+04  0.00000000000E+00 0. -1.
         21   -1    0    0  501  502  0.00000000000E+00 -0.00000000000E+00 -0.76862210661E+02  0.76862210661E+02  0.00000000000E+00 0. -1.
         23    2    1    2    0    0  0.39831771335E+02  0.12925080311E+03  0.60812884226E+03  0.62949097555E+03  0.90254414832E+02 0.  0.
         23    2    1    2    0    0  0.23843121176E+02 -0.15547792798E+03  0.59438222923E+03  0.62290621755E+03  0.99900154755E+02 0.  0.
        -11    1    3    3    0    0  0.15160527835E+02  0.10530240611E+03  0.56187054083E+03  0.57185395250E+03  0.00000000000E+00 0.  1.
         11    1    3    3    0    0  0.24671243500E+02  0.23948397005E+02  0.46258301432E+02  0.57637023052E+02  0.00000000000E+00 0. -1.
        -11    1    4    4    0    0  0.21364829997E+01 -0.56611378923E+02  0.76320694083E+02  0.95048730284E+02  0.00000000000E+00 0.  1.
         11    1    4    4    0    0  0.21706638176E+02 -0.98866549059E+02  0.51806153515E+03  0.52785748727E+03  0.00000000000E+00 0. -1.
          1    1    1    2  501    0 -0.63674892511E+02  0.26227124869E+02 -0.29083866401E+02  0.74754433313E+02  0.00000000000E+00 0. -1.
<scales pt_clust_5="13000.00000" pt_clust_6="13000.00000" pt_clust_7="13000.00000" pt_clust_8="13000.00000" pt_clust_9="68.86475"></scales>
<clustering>
<clus scale="   68.865">  2  9  1 -1</clus>
<clus scale="   90.254">  5  6 -1 -1</clus>
<clus scale="   99.900">  7  8 -1 -1</clus>
<clus scale="  167.448">  1  5  2 -1</clus>
<clus scale="   68.865">  2  5  1 -1</clus>
</clustering>
</event>
<event>
 9    1  0.1601012E-005  0.1370035E+03  0.7546771E-02  0.1218096E+00
         21   -1    0    0  501  502  0.00000000000E+00  0.00000000000E+00  0.22980960155E+03  0.22980960155E+03  0.00000000000E+00 0. -1.
          4   -1    0    0  502    0 -0.00000000000E+00 -0.00000000000E+00 -0.15543831635E+03  0.15543831635E+03  0.00000000000E+00 0. -1.
         23    2    1    2    0    0  0.50940286137E+02  0.83294266221E+02 -0.66617272889E+02  0.15227568471E+03  0.96006122567E+02 0.  0.
         23    2    1    2    0    0 -0.83019536253E+02 -0.61773527731E+02  0.79532449455E+02  0.16038384732E+03  0.93216714373E+02 0.  0.
        -11    1    4    4    0    0  0.36444546456E+01 -0.51821196070E+02  0.26873264865E+02  0.58488381549E+02  0.00000000000E+00 0.  1.
         11    1    4    4    0    0 -0.86663990899E+02 -0.99523316610E+01  0.52659184590E+02  0.10189546578E+03  0.00000000000E+00 0. -1.
        -11    1    3    3    0    0  0.51125118188E+02  0.45908382809E+02  0.76423835180E+01  0.69135832589E+02  0.00000000000E+00 0.  1.
         11    1    3    3    0    0 -0.18483205113E+00  0.37385883412E+02 -0.74259656407E+02  0.83139852123E+02  0.00000000000E+00 0. -1.
          4    1    1    2  501    0  0.32079250116E+02 -0.21520738490E+02  0.61456108633E+02  0.72588385857E+02  0.00000000000E+00 0. -1.
<scales pt_clust_5="13000.00000" pt_clust_6="13000.00000" pt_clust_7="13000.00000" pt_clust_8="13000.00000" pt_clust_9="38.62927"></scales>
<clustering>
<clus scale="   38.629">  1  9  2 -1</clus>
<clus scale="   93.217">  5  6 -1 -1</clus>
<clus scale="   96.006">  7  8 -1 -1</clus>
<clus scale="  135.063">  1  5  2 -1</clus>
<clus scale="   38.629">  1  5  2 -1</clus>
</clustering>
</event>
<event>
 9    1  0.2018433E-005  0.9263065E+02  0.7546771E-02  0.1297822E+00
         21   -1    0    0  501  502  0.00000000000E+00  0.00000000000E+00  0.46275221237E+03  0.46275221237E+03  0.00000000000E+00 0.  1.
         -3   -1    0    0    0  501 -0.00000000000E+00 -0.00000000000E+00 -0.19974186042E+03  0.19974186042E+03  0.00000000000E+00 0.  1.
         23    2    1    2    0    0  0.13605606188E+01 -0.12598146291E+02 -0.16004515959E+03  0.18484654522E+03  0.91614560832E+02 0.  0.
         23    2    1    2    0    0  0.85254379856E+02  0.36123243825E+02  0.28802121692E+03  0.31550611135E+03  0.89524783591E+02 0.  0.
        -11    1    4    4    0    0  0.10255153239E+03  0.19234605796E+02  0.22532305737E+03  0.24830881386E+03  0.00000000000E+00 0.  1.
         11    1    4    4    0    0 -0.17297152534E+02  0.16888638029E+02  0.62698159544E+02  0.67197297494E+02  0.00000000000E+00 0. -1.
        -13    1    3    3    0    0  0.54438344219E+01  0.24420767666E+02 -0.51602077559E+01  0.25546760473E+02  0.00000000000E+00 0. -1.
         13    1    3    3    0    0 -0.40832738030E+01 -0.37018913957E+02 -0.15488495184E+03  0.15929978475E+03  0.00000000000E+00 0.  1.
         -3    1    1    2    0  502 -0.86614940474E+02 -0.23525097534E+02  0.13503429463E+03  0.16214141622E+03  0.00000000000E+00 0.  1.
<scales pt_clust_5="13000.00000" pt_clust_6="13000.00000" pt_clust_7="13000.00000" pt_clust_8="13000.00000" pt_clust_9="89.75287"></scales>
<clustering>
<clus scale="   89.525">  5  6 -1 -1</clus>
<clus scale="   89.753">  1  9  2 -1</clus>
<clus scale="   90.564">  1  5  2 -1</clus>
<clus scale="   91.615">  7  8 -1 -1</clus>
<clus scale="   89.753">  1  5  2 -1</clus>
</clustering>
</event>
<event>
 9    1  0.1601012E-005  0.1045544E+03  0.7546771E-02  0.1271540E+00
          3   -1    0    0  502    0 -0.00000000000E+00  0.00000000000E+00  0.24595035160E+03  0.24595035160E+03  0.00000000000E+00 0. -1.
         21   -1    0    0  501  502  0.00000000000E+00 -0.00000000000E+00 -0.90552550649E+02  0.90552550649E+02  0.00000000000E+00 0.  1.
         23    2    1    2    0    0  0.14828421356E+01 -0.50749976097E+02  0.12441196737E+03  0.16200009944E+03  0.90487212908E+02 0.  0.
         23    2    1    2    0    0  0.37082455658E+02  0.44704044296E+02  0.61660895368E+02  0.12485610200E+03  0.91724697300E+02 0.  0.
        -13    1    4    4    0    0  0.15501165279E+02  0.61383261006E+02  0.69085307356E+01  0.63686094665E+02  0.00000000000E+00 0.  1.
         13    1    4    4    0    0  0.21581290380E+02 -0.16679216710E+02  0.54752364632E+02  0.61170007335E+02  0.00000000000E+00 0. -1.
        -13    1    3    3    0    0  0.30976327829E+02  0.12265555940E+02  0.50430788110E+02  0.60442047763E+02  0.00000000000E+00 0.  1.
         13    1    3    3    0    0 -0.29493485694E+02 -0.63015532038E+02  0.73981179261E+02  0.10155805168E+03  0.00000000000E+00 0. -1.
          3    1    1    2  501    0 -0.38565297794E+02  0.60459318010E+01 -0.30675061787E+02  0.49646700806E+02  0.00000000000E+00 0. -1.
<scales pt_clust_5="13000.00000" pt_clust_6="13000.00000" pt_clust_7="13000.00000" pt_clust_8="13000.00000" pt_clust_9="39.03634"></scales>
<clustering>
<clus scale="   39.036">  2  9  1 -1</clus>
<clus scale="   90.487">  7  8 -1 -1</clus>
<clus scale="   91.725">  5  6 -1 -1</clus>
<clus scale="  103.470">  1  7  2 -1</clus>
<clus scale="   39.036">  2  5  1 -1</clus>
</clustering>
</event>
<event>
 9    1  0.1601012E-005  0.1530035E+03  0.7546771E-02  0.1221832E+00
         21   -1    0    0  501  502  0.00000000000E+00  0.00000000000E+00  0.23314890446E+03  0.23314890446E+03  0.00000000000E+00 0. -1.
          1   -1    0    0  502    0 -0.00000000000E+00 -0.00000000000E+00 -0.52191882368E+03  0.52191882368E+03  0.00000000000E+00 0. -1.
         23    2    1    2    0    0 -0.78291816059E+01 -0.65320510605E-01 -0.12818076676E+03  0.15642132256E+03  0.89308570895E+02 0.  0.
         23    2    1    2    0    0  0.18829860202E+02 -0.12147893208E+03 -0.34490045719E+03  0.37759284348E+03  0.92240639094E+02 0.  0.
        -11    1    3    3    0    0 -0.35689916590E+02  0.96550791999E+00 -0.12298367832E+03  0.12806126457E+03  0.00000000000E+00 0.  1.
         11    1    3    3    0    0  0.27860734984E+02 -0.10308284306E+01 -0.51970884403E+01  0.28360057993E+02  0.00000000000E+00 0. -1.
        -11    1    4    4    0    0 -0.32326290447E+02 -0.49439554995E+02 -0.19329877992E+03  0.20212292540E+03  0.00000000000E+00 0. -1.
         11    1    4    4    0    0  0.51156150649E+02 -0.72039377086E+02 -0.15160167727E+03  0.17546991808E+03  0.00000000000E+00 0.  1.
          1    1    1    2  501    0 -0.11000678597E+02  0.12154425259E+03  0.18431130472E+03  0.22105356210E+03  0.00000000000E+00 0. -1.
<scales pt_clust_5="13000.00000" pt_clust_6="13000.00000" pt_clust_7="13000.00000" pt_clust_8="13000.00000" pt_clust_9="122.07265"></scales>
<clustering>
<clus scale="   89.309">  5  6 -1 -1</clus>
<clus scale="   89.651">  2  5  1 -1</clus>
<clus scale="   92.241">  7  8 -1 -1</clus>
<clus scale="  122.073">  1  9  2 -1</clus>
<clus scale="  122.073">  1  5  2 -1</clus>
</clustering>
</event>
<event>
 9    1  0.1601012E-005  0.1094499E+03  0.7546771E-02  0.1262828E+00
         21   -1    0    0  501  502  0.00000000000E+00  0.00000000000E+00  0.14361556884E+03  0.14361556884E+03  0.00000000000E+00 0. -1.
          1   -1    0    0  502    0 -0.00000000000E+00 -0.00000000000E+00 -0.18496245366E+03  0.18496245366E+03  0.00000000000E+00 0. -1.
         23    2    1    2    0    0 -0.22627068293E+02  0.19576878217E+02 -0.16588760030E+02  0.97211031590E+02  0.90992083849E+02 0.  0.
         23    2    1    2    0    0  0.10460216514E+03 -0.14306168668E+01 -0.47103158509E+02  0.14448486481E+03  0.87826584815E+02 0.  0.
        -11    1    3    3    0    0 -0.23609372122E+02 -0.34440479556E+02 -0.76164767364E+01  0.42444785333E+02  0.00000000000E+00 0.  1.
         11    1    3    3    0    0  0.98230382923E+00  0.54017357774E+02 -0.89722832934E+01  0.54766246258E+02  0.00000000000E+00 0. -1.
        -11    1    4    4    0    0  0.11058947219E+03  0.20295857900E+02 -0.30520968549E+02  0.11650529056E+03  0.00000000000E+00 0. -1.
         11    1    4    4    0    0 -0.59873070459E+01 -0.21726474766E+02 -0.16582189960E+02  0.27979574252E+02  0.00000000000E+00 0.  1.
          1    1    1    2  501    0 -0.81975096847E+02 -0.18146261351E+02  0.22345033720E+02  0.86882126102E+02  0.00000000000E+00 0. -1.
<scales pt_clust_5="13000.00000" pt_clust_6="13000.00000" pt_clust_7="13000.00000" pt_clust_8="13000.00000" pt_clust_9="83.95953"></scales>
<clustering>
<clus scale="   83.960">  1  9  2 -1</clus>
<clus scale="   87.827">  7  8 -1 -1</clus>
<clus scale="   90.992">  5  6 -1 -1</clus>
<clus scale="  106.833">  1  7  2 -1</clus>
<clus scale="   83.960">  1  5  2 -1</clus>
</clustering>
</event>
<event>
 9    1  0.1601012E-005  0.1569215E+03  0.7546771E-02  0.1193270E+00
         -3   -1    0    0    0  501 -0.00000000000E+00  0.00000000000E+00  0.83223622396E+03  0.83223622396E+03  0.00000000000E+00 0.  1.
         21   -1    0    0  501  502  0.00000000000E+00 -0.00000000000E+00 -0.15695108764E+03  0.15695108764E+03  0.00000000000E+00 0.  1.
         23    2    1    2    0    0 -0.16245279634E+02  0.11222006323E+03  0.43189327595E+03  0.45714468089E+03  0.97939806791E+02 0.  0.
         23    2    1    2    0    0  0.37932346623E+01 -0.13575719125E+03  0.36889837968E+03  0.40374245064E+03  0.92073602691E+02 0.  0.
        -11    1    3    3    0    0 -0.45208021496E+02  0.14013206353E+02  0.14489809318E+03  0.15243225567E+03  0.00000000000E+00 0.  1.
         11    1    3    3    0    0  0.28962741863E+02  0.98206856878E+02  0.28699518277E+03  0.30471242522E+03  0.00000000000E+00 0. -1.
        -13    1    4    4    0    0 -0.13936674762E+02 -0.10977304866E+03  0.34993144626E+03  0.36701004100E+03  0.00000000000E+00 0.  1.
         13    1    4    4    0    0  0.17729909425E+02 -0.25984142592E+02  0.18966933422E+02  0.36732409639E+02  0.00000000000E+00 0. -1.
         -3    1    1    2    0  502  0.12452044972E+02  0.23537128021E+02 -0.12550651930E+03  0.12830018007E+03  0.00000000000E+00 0.  1.
<scales pt_clust_5="13000.00000" pt_clust_6="13000.00000" pt_clust_7="13000.00000" pt_clust_8="13000.00000" pt_clust_9="26.62799"></scales>
<clustering>
<clus scale="   26.628">  2  9  1 -1</clus>
<clus scale="   92.074">  7  8 -1 -1</clus>
<clus scale="   97.940">  5  6 -1 -1</clus>
<clus scale="  153.329">  2  7  1 -1</clus>
<clus scale="   26.628">  2  5  1 -1</clus>
</clustering>
</event>
<event>
 9    1  0.1601012E-005  0.1330176E+03  0.7546771E-02  0.1224077E+00
         21   -1    0    0  501  502  0.00000000000E+00  0.00000000000E+00  0.14110370536E+03  0.14110370536E+03  0.00000000000E+00 0.  1.
         -1   -1    0    0    0  501 -0.00000000000E+00 -0.00000000000E+00 -0.31824957186E+03  0.31824957186E+03  0.00000000000E+00 0.  1.
         23    2    1    2    0    0 -0.78858588395E+02  0.28899485703E+02 -0.10843102050E+03  0.16211693882E+03  0.86433549102E+02 0.  0.
         23    2    1    2    0    0  0.10840533448E+03 -0.27798782249E+02 -0.15168067134E+03  0.20915938381E+03  0.90642886864E+02 0.  0.
        -13    1    3    3    0    0 -0.11614272946E+02 -0.26568276278E+02 -0.10084283104E+02  0.30699469152E+02  0.00000000000E+00 0.  1.
         13    1    3    3    0    0 -0.67244315448E+02  0.55467761981E+02 -0.98346737393E+02  0.13141746967E+03  0.00000000000E+00 0. -1.
        -13    1    4    4    0    0  0.30593070635E+02  0.14535580368E+01 -0.11372159100E+03  0.11777371974E+03  0.00000000000E+00 0.  1.
         13    1    4    4    0    0  0.77812263849E+02 -0.29252340286E+02 -0.37959080342E+02  0.91385664073E+02  0.00000000000E+00 0. -1.
         -1    1    1    2    0  502 -0.29546746089E+02 -0.11007034532E+01  0.82965825340E+02  0.88076954573E+02  0.00000000000E+00 0.  1.
<scales pt_clust_5="13000.00000" pt_clust_6="13000.00000" pt_clust_7="13000.00000" pt_clust_8="13000.00000" pt_clust_9="29.56724"></scales>
<clustering>
<clus scale="   29.567">  1  9  2 -1</clus>
<clus scale="   86.434">  5  6 -1 -1</clus>
<clus scale="   90.643">  7  8 -1 -1</clus>
<clus scale="  130.186">  2  5  1 -1</clus>
<clus scale="   29.567">  1  5  2 -1</clus>
</clustering>
</event>
<event>
 9    1  0.1601012E-005  0.1033255E+03  0.7546771E-02  0.1284687E+00
         21   -1    0    0  501  502  0.00000000000E+00  0.00000000000E+00  0.18622154608E+03  0.18622154608E+03  0.00000000000E+00 0. -1.
          2   -1    0    0  502    0 -0.00000000000E+00 -0.00000000000E+00 -0.19512903790E+03  0.19512903790E+03  0.00000000000E+00 0. -1.
         23    2    1    2    0    0  0.51619018600E+02 -0.17617218669E+02 -0.12043737772E+03  0.16077324480E+03  0.91476690012E+02 0.  0.
         23    2    1    2    0    0 -0.40844210878E+02 -0.45434372450E+01 -0.23743378601E+02  0.83078076481E+02  0.68185969085E+02 0.  0.
        -11    1    3    3    0    0 -0.26305424485E+02 -0.10203614904E+02 -0.30870311471E+02  0.41821827372E+02  0.00000000000E+00 0.  1.
         11    1    3    3    0    0  0.77924443085E+02 -0.74136037653E+01 -0.89567066252E+02  0.11895141743E+03  0.00000000000E+00 0. -1.
        -13    1    4    4    0    0 -0.10295242707E+02  0.27612322237E+02  0.54641384208E+01  0.29971472610E+02  0.00000000000E+00 0. -1.
         13    1    4    4    0    0 -0.30548968171E+02 -0.32155759482E+02 -0.29207517021E+02  0.53106603871E+02  0.00000000000E+00 0.  1.
          2    1    1    2  501    0 -0.10774807721E+02  0.22160655914E+02  0.13527326451E+03  0.13749926270E+03  0.00000000000E+00 0. -1.
<scales pt_clust_5="13000.00000" pt_clust_6="13000.00000" pt_clust_7="13000.00000" pt_clust_8="13000.00000" pt_clust_9="24.64125"></scales>
<clustering>
<clus scale="   24.641">  1  9  2 -1</clus>
<clus scale="   68.186">  7  8 -1 -1</clus>
<clus scale="   83.412">  1  7  2 -1</clus>
<clus scale="   91.477">  5  6 -1 -1</clus>
<clus scale="   24.641">  1  5  2 -1</clus>
</clustering>
</event>
<event>
 9    1  0.1601012E-005  0.1386593E+03  0.7546771E-02  0.1217390E+00
          1   -1    0    0  502    0 -0.00000000000E+00  0.00000000000E+00  0.51317759978E+03  0.51317759978E+03  0.00000000000E+00 0. -1.
         21   -1    0    0  501  502  0.00000000000E+00 -0.00000000000E+00 -0.14915613727E+03  0.14915613727E+03  0.00000000000E+00 0. -1.
         23    2    1    2    0    0 -0.90165318217E+02 -0.87994426270E+02  0.37356523786E+03  0.40400281471E+03  0.88286373220E+02 0.  0.
         23    2    1    2    0    0 -0.16466472663E+02  0.59159063395E+02  0.57736017484E+02  0.12899265459E+03  0.97645879178E+02 0.  0.
        -11    1    4    4    0    0  0.21242768110E+02  0.55005358634E+02 -0.11128839004E+01  0.58975276057E+02  0.00000000000E+00 0.  1.
         11    1    4    4    0    0 -0.37709240773E+02  0.41537047611E+01  0.58848901385E+02  0.70017378537E+02  0.00000000000E+00 0. -1.
        -13    1    3    3    0    0 -0.63557631627E+02 -0.24590475456E+02  0.93992848260E+02  0.11609874911E+03  0.00000000000E+00 0.  1.
         13    1    3    3    0    0 -0.26607686590E+02 -0.63403950814E+02  0.27957238960E+03  0.28790406560E+03  0.00000000000E+00 0. -1.
          1    1    1    2  501    0  0.10663179088E+03  0.28835362876E+02 -0.67279792835E+02  0.12933826774E+03  0.00000000000E+00 0. -1.
<scales pt_clust_5="13000.00000" pt_clust_6="13000.00000" pt_clust_7="13000.00000" pt_clust_8="13000.00000" pt_clust_9="110.46183"></scales>
<clustering>
<clus scale="   88.286">  7  8 -1 -1</clus>
<clus scale="   97.646">  5  6 -1 -1</clus>
<clus scale="  110.462">  2  9  1 -1</clus>
<clus scale="  132.235">  1  7  2 -1</clus>
<clus scale="  110.462">  2  5  1 -1</clus>
</clustering>
</event>
<event>
 9    1  0.1601012E-005  0.1117548E+03  0.7546771E-02  0.1258373E+00
         21   -1    0    0  501  502  0.00000000000E+00  0.00000000000E+00  0.34236800185E+03  0.34236800185E+03  0.00000000000E+00 0. -1.
         -1   -1    0    0    0  501 -0.00000000000E+00 -0.00000000000E+00 -0.66491835508E+02  0.66491835508E+02  0.00000000000E+00 0.  1.
         23    2    1    2    0    0  0.97273955426E+01 -0.42972928569E+02  0.55209852695E+02  0.11437021467E+03  0.89950671784E+02 0.  0.
         23    2    1    2    0    0 -0.22950650493E+02  0.87279702779E+02  0.94679561705E+02  0.16028602223E+03  0.92643999493E+02 0.  0.
        -11    1    4    4    0    0 -0.23931480787E+01  0.26504676632E+02 -0.16936389477E+02  0.31544671968E+02  0.00000000000E+00 0.  1.
         11    1    4    4    0    0 -0.20557502414E+02  0.60775026147E+02  0.11161595118E+03  0.12874135026E+03  0.00000000000E+00 0. -1.
        -13    1    3    3    0    0  0.47741926860E+02 -0.84544498532E+01  0.31448318319E+02  0.57790708836E+02  0.00000000000E+00 0. -1.
         13    1    3    3    0    0 -0.38014531317E+02 -0.34518478716E+02  0.23761534375E+02  0.56579505830E+02  0.00000000000E+00 0.  1.
         -1    1    1    2    0  502  0.13223254950E+02 -0.44306774210E+02  0.12598675195E+03  0.13420360047E+03  0.00000000000E+00 0.  1.
<scales pt_clust_5="13000.00000" pt_clust_6="13000.00000" pt_clust_7="13000.00000" pt_clust_8="13000.00000" pt_clust_9="46.23791"></scales>
<clustering>
<clus scale="   46.238">  1  9  2 -1</clus>
<clus scale="   89.951">  7  8 -1 -1</clus>
<clus scale="   92.644">  5  6 -1 -1</clus>
<clus scale="  109.532">  2  7  1 -1</clus>
<clus scale="   46.238">  1  5  2 -1</clus>
</clustering>
</event>
<event>
 9    1  0.1601012E-005  0.1175305E+03  0.7546771E-02  0.1248971E+00
         21   -1    0    0  501  502  0.00000000000E+00  0.00000000000E+00  0.16786169698E+03  0.16786169698E+03  0.00000000000E+00 0. -1.
          1   -1    0    0  502    0 -0.00000000000E+00 -0.00000000000E+00 -0.59385371999E+03  0.59385371999E+03  0.00000000000E+00 0. -1.
         23    2    1    2    0    0 -0.68952217130E+02 -0.79150549134E+01 -0.31591519186E+03  0.33580169257E+03  0.90240301124E+02 0.  0.
         23    2    1    2    0    0  0.68559837371E+02 -0.16314610536E+02 -0.25383180414E+03  0.28013058782E+03  0.95267747043E+02 0.  0.
        -11    1    3    3    0    0 -0.71505326469E+02  0.27528299696E+02 -0.24097752742E+03  0.25286555266E+03  0.00000000000E+00 0. -1.
         11    1    3    3    0    0  0.25531093393E+01 -0.35443354609E+02 -0.74937664437E+02  0.82936139919E+02  0.00000000000E+00 0.  1.
        -11    1    4    4    0    0  0.66085246273E+02 -0.50222523950E+02 -0.15851113161E+03  0.17892831115E+03  0.00000000000E+00 0.  1.
         11    1    4    4    0    0  0.24745910983E+01  0.33907913414E+02 -0.95320672524E+02  0.10120227667E+03  0.00000000000E+00 0. -1.
          1    1    1    2  501    0  0.39237975846E+00  0.24229665449E+02  0.14375497299E+03  0.14578313657E+03  0.00000000000E+00 0. -1.
<scales pt_clust_5="13000.00000" pt_clust_6="13000.00000" pt_clust_7="13000.00000" pt_clust_8="13000.00000" pt_clust_9="24.23284"></scales>
<clustering>
<clus scale="   24.233">  1  9  2 -1</clus>
<clus scale="   90.240">  5  6 -1 -1</clus>
<clus scale="   95.268">  7  8 -1 -1</clus>
<clus scale="  113.494">  2  5  1 -1</clus>
<clus scale="   24.233">  1  5  2 -1</clus>
</clustering>
</event>
<event>
 9    1  0.1601012E-005  0.1913440E+03  0.7546771E-02  0.1157415E+00
         21   -1    0    0  501  502  0.00000000000E+00  0.00000000000E+00  0.20756955687E+03  0.20756955687E+03  0.00000000000E+00 0.  1.
          2   -1    0    0  502    0 -0.00000000000E+00 -0.00000000000E+00 -0.21780225695E+03  0.21780225695E+03  0.00000000000E+00 0. -1.
         23    2    1    2    0    0  0.96270098788E+02  0.13442818786E+03 -0.35173040169E+02  0.19211164034E+03  0.91273599618E+02 0.  0.
         23    2    1    2    0    0 -0.12354946938E+03 -0.11889803368E+03  0.30217321887E+01  0.19497473081E+03  0.92762066552E+02 0.  0.
        -13    1    4    4    0    0 -0.14390347664E+02 -0.69545027125E+02  0.20478978169E+02  0.73911984485E+02  0.00000000000E+00 0.  1.
         13    1    4    4    0    0 -0.10915912172E+03 -0.49353006557E+02 -0.17457245980E+02  0.12106274633E+03  0.00000000000E+00 0. -1.
        -13    1    3    3    0    0  0.90309292039E+02  0.82992672732E+02  0.10454670475E+02  0.12309692153E+03  0.00000000000E+00 0.  1.
         13    1    3    3    0    0  0.59608067490E+01  0.51435515124E+02 -0.45627710644E+02  0.69014718805E+02  0.00000000000E+00 0. -1.
          2    1    1    2  501    0  0.27279370595E+02 -0.15530154174E+02  0.21918607903E+02  0.38285442679E+02  0.00000000000E+00 0. -1.
<scales pt_clust_5="13000.00000" pt_clust_6="13000.00000" pt_clust_7="13000.00000" pt_clust_8="13000.00000" pt_clust_9="31.39028"></scales>
<clustering>
<clus scale="   31.390">  1  9  2 -1</clus>
<clus scale="   91.274">  7  8 -1 -1</clus>
<clus scale="   92.762">  5  6 -1 -1</clus>
<clus scale="  190.627">  2  7  1 -1</clus>
<clus scale="   31.390">  1  5  2 -1</clus>
</clustering>
</event>
<event>
 9    1  0.1601012E-005  0.1197154E+03  0.7546771E-02  0.1243992E+00
         -1   -1    0    0    0  501 -0.00000000000E+00  0.00000000000E+00  0.15231829022E+03  0.15231829022E+03  0.00000000000E+00 0.  1.
         21   -1    0    0  501  502  0.00000000000E+00 -0.00000000000E+00 -0.18197449034E+03  0.18197449034E+03  0.00000000000E+00 0. -1.
         23    2    1    2    0    0  0.76759982160E+02  0.36503573374E+02  0.33740304834E+02  0.12944727690E+03  0.91616502860E+02 0.  0.
         23    2    1    2    0    0 -0.49986594672E+02 -0.50967152876E+02  0.19325652285E+02  0.11670377286E+03  0.90277236581E+02 0.  0.
        -11    1    4    4    0    0 -0.18494820624E+02  0.90414752220E+01  0.40727447309E+02  0.45634763377E+02  0.00000000000E+00 0.  1.
         11    1    4    4    0    0 -0.31491774048E+02 -0.60008628098E+02 -0.21401795025E+02  0.71069009485E+02  0.00000000000E+00 0. -1.
        -13    1    3    3    0    0  0.26894091896E+02  0.47506119259E+02 -0.17281719122E+02  0.57260644091E+02  0.00000000000E+00 0.  1.
         13    1    3    3    0    0  0.49865890264E+02 -0.11002545885E+02  0.51022023956E+02  0.72186632809E+02  0.00000000000E+00 0. -1.
         -1    1    1    2    0  502 -0.26773387488E+02  0.14463579502E+02 -0.82722157243E+02  0.88141730800E+02  0.00000000000E+00 0.  1.
<scales pt_clust_5="13000.00000" pt_clust_6="13000.00000" pt_clust_7="13000.00000" pt_clust_8="13000.00000" pt_clust_9="30.43040"></scales>
<clustering>
<clus scale="   30.430">  2  9  1 -1</clus>
<clus scale="   90.277">  5  6 -1 -1</clus>
<clus scale="   91.617">  7  8 -1 -1</clus>
<clus scale="  118.694">  2  5  1 -1</clus>
<clus scale="   30.430">  2  5  1 -1</clus>
</clustering>
</event>
<event>
 9    1  0.1601012E-005  0.1087959E+03  0.7546771E-02  0.1263261E+00
         21   -1    0    0  501  502  0.00000000000E+00  0.00000000000E+00  0.79652495215E+02  0.79652495215E+02  0.00000000000E+00 0.  1.
          1   -1    0    0  502    0 -0.00000000000E+00 -0.00000000000E+00 -0.27147279485E+03  0.27147279485E+03  0.00000000000E+00 0. -1.
         23    2    1    2    0    0 -0.73329259115E+01 -0.50730542700E+02 -0.12625296844E+03  0.16340022393E+03  0.90180160650E+02 0.  0.
         23    2    1    2    0    0  0.46422923869E+02  0.72138075088E+02 -0.25620757885E+02  0.12787492744E+03  0.91304896333E+02 0.  0.
        -11    1    3    3    0    0  0.22732319690E+02  0.63759962716E+01 -0.23872832050E+01  0.23729955922E+02  0.00000000000E+00 0.  1.
         11    1    3    3    0    0 -0.30065245602E+02 -0.57106538971E+02 -0.12386568523E+03  0.13967026801E+03  0.00000000000E+00 0. -1.
        -11    1    4    4    0    0  0.18330313354E+02  0.88480917273E+02 -0.75155979054E+01  0.90671700773E+02  0.00000000000E+00 0.  1.
         11    1    4    4    0    0  0.28092610515E+02 -0.16342842186E+02 -0.18105159980E+02  0.37203226663E+02  0.00000000000E+00 0. -1.
          1    1    1    2  501    0 -0.39089997958E+02 -0.21407532388E+02 -0.39946573313E+02  0.59850138702E+02  0.00000000000E+00 0. -1.
<scales pt_clust_5="13000.00000" pt_clust_6="13000.00000" pt_clust_7="13000.00000" pt_clust_8="13000.00000" pt_clust_9="44.56806"></scales>
<clustering>
<clus scale="   44.568">  1  9  2 -1</clus>
<clus scale="   90.180">  5  6 -1 -1</clus>
<clus scale="   91.305">  7  8 -1 -1</clus>
<clus scale="  107.854">  2  5  1 -1</clus>
<clus scale="   44.568">  1  5  2 -1</clus>
</clustering>
</event>
<event>
 9    1  0.1601012E-005  0.1281894E+03  0.7546771E-02  0.1230718E+00
         21   -1    0    0  501  502  0.00000000000E+00  0.00000000000E+00  0.54503345681E+03  0.54503345681E+03  0.00000000000E+00 0. -1.
         -1   -1    0    0    0  501 -0.00000000000E+00 -0.00000000000E+00 -0.83110789598E+02  0.83110789598E+02  0.00000000000E+00 0.  1.
         23    2    1    2    0    0  0.84943363313E+02 -0.10749606007E+02 -0.74003339909E+01  0.12452751555E+03  0.90118855886E+02 0.  0.
         23    2    1    2    0    0 -0.10499804667E+03  0.30446544813E+02  0.30427909431E+03  0.33619614991E+03  0.92143920493E+02 0.  0.
        -11    1    3    3    0    0  0.43375937655E+02  0.25349171414E+02  0.29490710834E+02  0.58255939477E+02  0.00000000000E+00 0. -1.
         11    1    3    3    0    0  0.41567425657E+02 -0.36098777422E+02 -0.36891044825E+02  0.66271576075E+02  0.00000000000E+00 0.  1.
        -13    1    4    4    0    0 -0.28416180959E+02  0.20505801245E+02  0.17437688384E+02  0.39141285124E+02  0.00000000000E+00 0.  1.
         13    1    4    4    0    0 -0.76581865707E+02  0.99407435676E+01  0.28684140593E+03  0.29705486479E+03  0.00000000000E+00 0. -1.
         -1    1    1    2    0  502  0.20054683353E+02 -0.19696938805E+02  0.16504390689E+03  0.16742058094E+03  0.00000000000E+00 0.  1.
<scales pt_clust_5="13000.00000" pt_clust_6="13000.00000" pt_clust_7="13000.00000" pt_clust_8="13000.00000" pt_clust_9="28.10978"></scales>
<clustering>
<clus scale="   28.110">  1  9  2 -1</clus>
<clus scale="   90.119">  5  6 -1 -1</clus>
<clus scale="   92.144">  7  8 -1 -1</clus>
<clus scale="  126.742">  2  5  1 -1</clus>
<clus scale="   28.110">  1  5  2 -1</clus>
</clustering>
</event>
<event>
 9    1  0.1601012E-005  0.1061532E+03  0.7546771E-02  0.1268141E+00
         21   -1    0    0  501  502  0.00000000000E+00  0.00000000000E+00  0.10236991322E+03  0.10236991322E+03  0.00000000000E+00 0. -1.
         -2   -1    0    0    0  501 -0.00000000000E+00 -0.00000000000E+00 -0.21019130075E+03  0.21019130075E+03  0.00000000000E+00 0.  1.
         23    2    1    2    0    0  0.10046472341E+02  0.42323606639E+02 -0.99547472641E+02  0.14199638498E+03  0.91438803319E+02 0.  0.
         23    2    1    2    0    0 -0.67513228005E+01 -0.70226354939E+02 -0.44904655853E+02  0.12439955463E+03  0.92095058426E+02 0.  0.
        -13    1    3    3    0    0 -0.38950105718E+02  0.32405050188E+02 -0.57825175374E+02  0.76882695844E+02  0.00000000000E+00 0. -1.
         13    1    3    3    0    0  0.48996578059E+02  0.99185564511E+01 -0.41722297266E+02  0.65113689135E+02  0.00000000000E+00 0.  1.
        -13    1    4    4    0    0  0.22528242918E+02 -0.79473030256E+02 -0.44200472173E+02  0.93686530554E+02  0.00000000000E+00 0.  1.
         13    1    4    4    0    0 -0.29279565718E+02  0.92466753162E+01 -0.70418367951E+00  0.30713024073E+02  0.00000000000E+00 0. -1.
         -2    1    1    2    0  502 -0.32951495401E+01  0.27902748301E+02  0.36630740964E+02  0.46165274360E+02  0.00000000000E+00 0.  1.
<scales pt_clust_5="13000.00000" pt_clust_6="13000.00000" pt_clust_7="13000.00000" pt_clust_8="13000.00000" pt_clust_9="28.09664"></scales>
<clustering>
<clus scale="   28.097">  1  9  2 -1</clus>
<clus scale="   91.439">  5  6 -1 -1</clus>
<clus scale="   92.095">  7  8 -1 -1</clus>
<clus scale="  105.584">  2  5  1 -1</clus>
<clus scale="   28.097">  1  5  2 -1</clus>
</clustering>
</event>
<event>
 9    1  0.1601012E-005  0.1150443E+03  0.7546771E-02  0.1260254E+00
         21   -1    0    0  501  502  0.00000000000E+00  0.00000000000E+00  0.26951488648E+03  0.26951488648E+03  0.00000000000E+00 0. -1.
         -1   -1    0    0    0  501 -0.00000000000E+00 -0.00000000000E+00 -0.66544607474E+02  0.66544607474E+02  0.00000000000E+00 0.  1.
         23    2    1    2    0    0 -0.13715863553E+02 -0.11683438700E+02  0.55721059749E+02  0.12501108915E+03  0.11044595175E+03 0.  0.
         23    2    1    2    0    0  0.52828700405E+02 -0.10017060467E+01  0.80504713980E+02  0.13265480883E+03  0.91238228459E+02 0.  0.
        -13    1    3    3    0    0  0.10513101920E+02  0.46456886309E+02  0.33446515954E+02  0.58201692647E+02  0.00000000000E+00 0.  1.
         13    1    3    3    0    0 -0.24228965474E+02 -0.58140325009E+02  0.22274543795E+02  0.66809396505E+02  0.00000000000E+00 0. -1.
        -13    1    4    4    0    0 -0.24694532382E+02 -0.10671541843E+02  0.15676456750E+02  0.31136040710E+02  0.00000000000E+00 0.  1.
         13    1    4    4    0    0  0.77523232787E+02  0.96698357958E+01  0.64828257231E+02  0.10151876813E+03  0.00000000000E+00 0. -1.
         -1    1    1    2    0  502 -0.39112836852E+02  0.12685144747E+02  0.66744505272E+02  0.78393595962E+02  0.00000000000E+00 0.  1.
<scales pt_clust_5="13000.00000" pt_clust_6="13000.00000" pt_clust_7="13000.00000" pt_clust_8="13000.00000" pt_clust_9="41.11845"></scales>
<clustering>
<clus scale="   41.118">  1  9  2 -1</clus>
<clus scale="   91.238">  7  8 -1 -1</clus>
<clus scale="   96.754">  1  7  2 -1</clus>
<clus scale="  110.446">  5  6 -1 -1</clus>
<clus scale="   41.118">  1  5  2 -1</clus>
</clustering>
</event>
<event>
 9    1  0.1601012E-005  0.1115509E+03  0.7546771E-02  0.1259919E+00
         21   -1    0    0  501  502  0.00000000000E+00  0.00000000000E+00  0.47625906600E+03  0.47625906600E+03  0.00000000000E+00 0.  1.
          2   -1    0    0  502    0 -0.00000000000E+00 -0.00000000000E+00 -0.11441103648E+03  0.11441103648E+03  0.00000000000E+00 0. -1.
         23    2    1    2    0    0 -0.12359720131E+02 -0.50934333719E+02 -0.69207457962E+02  0.13104152059E+03  0.98158743109E+02 0.  0.
         23    2    1    2    0    0 -0.14402797312E+02  0.61719423656E+02  0.22422844352E+03  0.25079856340E+03  0.92762043396E+02 0.  0.
        -11    1    3    3    0    0  0.22012917819E+02 -0.41097988598E+02  0.67332145161E+01  0.47105725718E+02  0.00000000000E+00 0.  1.
         11    1    3    3    0    0 -0.34372637950E+02 -0.98363451217E+01 -0.75940672478E+02  0.83935794876E+02  0.00000000000E+00 0. -1.
        -13    1    4    4    0    0 -0.45166558153E+02  0.31513056003E+02  0.61951725594E+02  0.82892140629E+02  0.00000000000E+00 0.  1.
         13    1    4    4    0    0  0.30763760841E+02  0.30206367653E+02  0.16227671793E+03  0.16790642277E+03  0.00000000000E+00 0. -1.
          2    1    1    2  501    0  0.26762517443E+02 -0.10785089936E+02  0.20682704397E+03  0.20883001849E+03  0.00000000000E+00 0. -1.
<scales pt_clust_5="13000.00000" pt_clust_6="13000.00000" pt_clust_7="13000.00000" pt_clust_8="13000.00000" pt_clust_9="28.85395"></scales>
<clustering>
<clus scale="   28.854">  1  9  2 -1</clus>
<clus scale="   92.762">  7  8 -1 -1</clus>
<clus scale="   98.159">  5  6 -1 -1</clus>
<clus scale="  106.833">  1  7  2 -1</clus>
<clus scale="   28.854">  1  5  2 -1</clus>
</clustering>
</event>
<event>
 9    1  0.1601012E-005  0.1118983E+03  0.7546771E-02  0.1257593E+00
         -3   -1    0    0    0  501 -0.00000000000E+00  0.00000000000E+00  0.49071502835E+03  0.49071502835E+03  0.00000000000E+00 0.  1.
         21   -1    0    0  501  502  0.00000000000E+00 -0.00000000000E+00 -0.17449976088E+03  0.17449976088E+03  0.00000000000E+00 0.  1.
         23    2    1    2    0    0 -0.28738703573E+01  0.77570386881E+02  0.27806202356E+03  0.30210942826E+03  0.89029172997E+02 0.  0.
         23    2    1    2    0    0  0.13461970064E+02 -0.55649532724E+02  0.18590767140E+03  0.21335890009E+03  0.87648518691E+02 0.  0.
        -11    1    3    3    0    0  0.27730683243E+02  0.66042369090E+02  0.11263828209E+03  0.13348396121E+03  0.00000000000E+00 0.  1.
         11    1    3    3    0    0 -0.30604553600E+02  0.11528017791E+02  0.16542374147E+03  0.16862546705E+03  0.00000000000E+00 0. -1.
        -11    1    4    4    0    0  0.40545334585E+01 -0.74094665288E+02  0.97317396214E+02  0.12238110259E+03  0.00000000000E+00 0. -1.
         11    1    4    4    0    0  0.94074366057E+01  0.18445132564E+02  0.88590275189E+02  0.90977797494E+02  0.00000000000E+00 0.  1.
         -3    1    1    2    0  502 -0.10588099707E+02 -0.21920854156E+02 -0.14775442749E+03  0.14974646088E+03  0.00000000000E+00 0.  1.
<scales pt_clust_5="13000.00000" pt_clust_6="13000.00000" pt_clust_7="13000.00000" pt_clust_8="13000.00000" pt_clust_9="24.34403"></scales>
<clustering>
<clus scale="   24.344">  2  9  1 -1</clus>
<clus scale="   87.649">  7  8 -1 -1</clus>
<clus scale="   89.029">  5  6 -1 -1</clus>
<clus scale="  110.803">  2  7  1 -1</clus>
<clus scale="   24.344">  2  5  1 -1</clus>
</clustering>
</event>
<event>
 9    1  0.1601012E-005  0.1151117E+03  0.7546771E-02  0.1251773E+00
         21   -1    0    0  501  502  0.00000000000E+00  0.00000000000E+00  0.90333005120E+03  0.90333005120E+03  0.00000000000E+00 0. -1.
          3   -1    0    0  502    0 -0.00000000000E+00 -0.00000000000E+00 -0.43341172538E+02  0.43341172538E+02  0.00000000000E+00 0. -1.
         23    2    1    2    0    0  0.50408715209E+00  0.90094150289E+02  0.86486632882E+02  0.15364379691E+03  0.89494517390E+02 0.  0.
         23    2    1    2    0    0  0.18798057627E+02 -0.28473460930E+02  0.28618141544E+03  0.30144704293E+03  0.88353903129E+02 0.  0.
        -13    1    4    4    0    0  0.12276210093E+02 -0.58650875825E+02  0.14433151484E+03  0.15627609140E+03  0.00000000000E+00 0.  1.
         13    1    4    4    0    0  0.65218475337E+01  0.30177414895E+02  0.14184990061E+03  0.14517095152E+03  0.00000000000E+00 0. -1.
        -13    1    3    3    0    0 -0.14298673725E+02  0.19411845794E+02  0.77147104558E+02  0.80826651354E+02  0.00000000000E+00 0.  1.
         13    1    3    3    0    0  0.14802760877E+02  0.70682304495E+02  0.93395283245E+01  0.72817145561E+02  0.00000000000E+00 0. -1.
          3    1    1    2  501    0 -0.19302144779E+02 -0.61620689358E+02  0.48732083033E+03  0.49158038389E+03  0.00000000000E+00 0. -1.
<scales pt_clust_5="13000.00000" pt_clust_6="13000.00000" pt_clust_7="13000.00000" pt_clust_8="13000.00000" pt_clust_9="64.57308"></scales>
<clustering>
<clus scale="   64.573">  1  9  2 -1</clus>
<clus scale="   88.354">  5  6 -1 -1</clus>
<clus scale="   89.495">  7  8 -1 -1</clus>
<clus scale="  114.227">  1  5  2 -1</clus>
<clus scale="   64.573">  1  5  2 -1</clus>
</clustering>
</event>
<event>
 9    1  0.1601012E-005  0.1543200E+03  0.7546771E-02  0.1196793E+00
         21   -1    0    0  501  502  0.00000000000E+00  0.00000000000E+00  0.84598619865E+03  0.84598619865E+03  0.00000000000E+00 0.  1.
          2   -1    0    0  502    0 -0.00000000000E+00 -0.00000000000E+00 -0.10713531986E+03  0.10713531986E+03  0.00000000000E+00 0. -1.
         23    2    1    2    0    0 -0.89364497065E+02  0.83867645280E+02 -0.34488953806E+02  0.15215908024E+03  0.83325281298E+02 0.  0.
         23    2    1    2    0    0  0.74489378988E+02 -0.12037521783E+03  0.61194351514E+03  0.63482140396E+03  0.92111283564E+02 0.  0.
        -13    1    4    4    0    0 -0.10304786621E+01 -0.85311726977E+02  0.29053505337E+03  0.30280318671E+03  0.00000000000E+00 0. -1.
         13    1    4    4    0    0  0.75519857650E+02 -0.35063490854E+02  0.32140846177E+03  0.33201821725E+03  0.00000000000E+00 0.  1.
        -13    1    3    3    0    0 -0.63707846289E+02  0.36248125823E+01 -0.11557057783E+02  0.64849013328E+02  0.00000000000E+00 0.  1.
         13    1    3    3    0    0 -0.25656650776E+02  0.80242832698E+02 -0.22931896023E+02  0.87310066909E+02  0.00000000000E+00 0. -1.
          2    1    1    2  501    0  0.14875118077E+02  0.36507572551E+02  0.16139631746E+03  0.16614103431E+03  0.00000000000E+00 0. -1.
<scales pt_clust_5="13000.00000" pt_clust_6="13000.00000" pt_clust_7="13000.00000" pt_clust_8="13000.00000" pt_clust_9="39.42172"></scales>
<clustering>
<clus scale="   39.422">  1  9  2 -1</clus>
<clus scale="   83.325">  7  8 -1 -1</clus>
<clus scale="   92.111">  5  6 -1 -1</clus>
<clus scale="  149.242">  2  7  1 -1</clus>
<clus scale="   39.422">  1  5  2 -1</clus>
</clustering>
</event>
<event>
 9    1  0.1601012E-005  0.1088256E+03  0.7546771E-02  0.1262928E+00
         -1   -1    0    0    0  501 -0.00000000000E+00  0.00000000000E+00  0.12275900263E+03  0.12275900263E+03  0.00000000000E+00 0.  1.
         21   -1    0    0  501  502  0.00000000000E+00 -0.00000000000E+00 -0.20272718543E+03  0.20272718543E+03  0.00000000000E+00 0. -1.
         23    2    1    2    0    0 -0.16652876376E+02 -0.48667397893E+02  0.37896154385E+02  0.11136344746E+03  0.91213294004E+02 0.  0.
         23    2    1    2    0    0  0.37473833518E+02  0.64322988624E+02 -0.29076364785E+02  0.12159213042E+03  0.91637744011E+02 0.  0.
        -11    1    3    3    0    0  0.37265016535E+02 -0.29242363265E+02  0.15652969160E+02  0.49888001666E+02  0.00000000000E+00 0.  1.
         11    1    3    3    0    0 -0.53917892911E+02 -0.19425034628E+02  0.22243185225E+02  0.61475445791E+02  0.00000000000E+00 0. -1.
        -13    1    4    4    0    0  0.64699533051E+02  0.63662898419E+02 -0.24015834846E+02  0.93892249603E+02  0.00000000000E+00 0.  1.
         13    1    4    4    0    0 -0.27225699533E+02  0.66009020455E+00 -0.50605299388E+01  0.27699880819E+02  0.00000000000E+00 0. -1.
         -1    1    1    2    0  502 -0.20820957141E+02 -0.15655590731E+02 -0.88787972397E+02  0.92530610177E+02  0.00000000000E+00 0.  1.
<scales pt_clust_5="13000.00000" pt_clust_6="13000.00000" pt_clust_7="13000.00000" pt_clust_8="13000.00000" pt_clust_9="26.05014"></scales>
<clustering>
<clus scale="   26.050">  2  9  1 -1</clus>
<clus scale="   91.213">  5  6 -1 -1</clus>
<clus scale="   91.638">  7  8 -1 -1</clus>
<clus scale="  108.468">  1  5  2 -1</clus>
<clus scale="   26.050">  2  5  1 -1</clus>
</clustering>
</event>
<event>
 9    1  0.1601012E-005  0.1052409E+03  0.7546771E-02  0.1275617E+00
         -1   -1    0    0    0  501 -0.00000000000E+00  0.00000000000E+00  0.53432492359E+02  0.53432492359E+02  0.00000000000E+00 0.  1.
         21   -1    0    0  501  502  0.00000000000E+00 -0.00000000000E+00 -0.36233882620E+03  0.36233882620E+03  0.00000000000E+00 0.  1.
         23    2    1    2    0    0 -0.26223571050E+02  0.33421793616E+02 -0.30800496405E+02  0.11252255957E+03  0.99538755597E+02 0.  0.
         23    2    1    2    0    0  0.10659709986E+02 -0.48838185654E+01 -0.19432039616E+03  0.21337857506E+03  0.87364288052E+02 0.  0.
        -11    1    4    4    0    0  0.36183738495E+02 -0.28078463101E+02 -0.15218824090E+03  0.15893056248E+03  0.00000000000E+00 0.  1.
         11    1    4    4    0    0 -0.25524028509E+02  0.23194644536E+02 -0.42132155266E+02  0.54448012579E+02  0.00000000000E+00 0. -1.
        -13    1    3    3    0    0  0.21808091426E+02  0.49213806203E+02 -0.10119723523E+01  0.53838793269E+02  0.00000000000E+00 0.  1.
         13    1    3    3    0    0 -0.48031662476E+02 -0.15792012588E+02 -0.29788524053E+02  0.58683766299E+02  0.00000000000E+00 0. -1.
         -1    1    1    2    0  502  0.15563861064E+02 -0.28537975050E+02 -0.83785441272E+02  0.89870183934E+02  0.00000000000E+00 0.  1.
<scales pt_clust_5="13000.00000" pt_clust_6="13000.00000" pt_clust_7="13000.00000" pt_clust_8="13000.00000" pt_clust_9="32.50615"></scales>
<clustering>
<clus scale="   32.506">  2  9  1 -1</clus>
<clus scale="   87.364">  5  6 -1 -1</clus>
<clus scale="   93.809">  2  5  1 -1</clus>
<clus scale="   99.539">  7  8 -1 -1</clus>
<clus scale="   32.506">  2  5  1 -1</clus>
</clustering>
</event>
<event>
 9    1  0.1601012E-005  0.1297988E+03  0.7546771E-02  0.1227771E+00
          2   -1    0    0  502    0 -0.00000000000E+00  0.00000000000E+00  0.11136205022E+04  0.11136205022E+04  0.00000000000E+00 0. -1.
         21   -1    0    0  501  502  0.00000000000E+00 -0.00000000000E+00 -0.21358827977E+02  0.21358827977E+02  0.00000000000E+00 0. -1.
         23    2    1    2    0    0 -0.87049717311E+02  0.59111596300E+02  0.64488514464E+03  0.65969416589E+03  0.90816896185E+02 0.  0.
         23    2    1    2    0    0  0.55150257493E+02 -0.56425282996E+02  0.40305005688E+03  0.42060767350E+03  0.90752978975E+02 0.  0.
        -11    1    4    4    0    0  0.33345249858E+02 -0.73232092870E+02  0.36425448475E+03  0.37303642554E+03  0.00000000000E+00 0. -1.
         11    1    4    4    0    0  0.21805007635E+02  0.16806809874E+02  0.38795572129E+02  0.47571247965E+02  0.00000000000E+00 0.  1.
        -13    1    3    3    0    0  0.15024973703E+02  0.28493109281E+02  0.13472698633E+03  0.13852425043E+03  0.00000000000E+00 0.  1.
         13    1    3    3    0    0 -0.10207469101E+03  0.30618487019E+02  0.51015815831E+03  0.52116991546E+03  0.00000000000E+00 0. -1.
          2    1    1    2  501    0  0.31899459818E+02 -0.26863133046E+01  0.44326472672E+02  0.54677490756E+02  0.00000000000E+00 0. -1.
<scales pt_clust_5="13000.00000" pt_clust_6="13000.00000" pt_clust_7="13000.00000" pt_clust_8="13000.00000" pt_clust_9="32.01237"></scales>
<clustering>
<clus scale="   32.012">  2  9  1 -1</clus>
<clus scale="   90.753">  5  6 -1 -1</clus>
<clus scale="   90.817">  7  8 -1 -1</clus>
<clus scale="  129.754">  2  5  1 -1</clus>
<clus scale="   32.012">  2  5  1 -1</clus>
</clustering>
</event>
<event>
 9    1  0.1601012E-005  0.1030909E+03  0.7546771E-02  0.1274023E+00
         -3   -1    0    0    0  501 -0.00000000000E+00  0.00000000000E+00  0.13362734501E+03  0.13362734501E+03  0.00000000000E+00 0.  1.
         21   -1    0    0  501  502  0.00000000000E+00 -0.00000000000E+00 -0.16844430727E+03  0.16844430727E+03  0.00000000000E+00 0. -1.
         23    2    1    2    0    0  0.75762472116E+01 -0.51992121300E+02  0.79905924542E+02  0.13222626071E+03  0.91314002463E+02 0.  0.
         23    2    1    2    0    0  0.86128267574E+01  0.27791594583E+02 -0.85320428563E+02  0.12846597446E+03  0.91528015112E+02 0.  0.
        -13    1    3    3    0    0  0.35171712459E+02 -0.63607487630E+02  0.42084660117E+02  0.83988573372E+02  0.00000000000E+00 0.  1.
         13    1    3    3    0    0 -0.27595465248E+02  0.11615366330E+02  0.37821264425E+02  0.48237687340E+02  0.00000000000E+00 0. -1.
        -13    1    4    4    0    0 -0.15837628587E+02  0.20377450334E+02 -0.96998913782E+02  0.10037360328E+03  0.00000000000E+00 0. -1.
         13    1    4    4    0    0  0.24450455344E+02  0.74141442485E+01  0.11678485219E+02  0.28092371179E+02  0.00000000000E+00 0.  1.
         -3    1    1    2    0  502 -0.16189073969E+02  0.24200526717E+02 -0.29402458237E+02  0.41379417103E+02  0.00000000000E+00 0.  1.
<scales pt_clust_5="13000.00000" pt_clust_6="13000.00000" pt_clust_7="13000.00000" pt_clust_8="13000.00000" pt_clust_9="29.11617"></scales>
<clustering>
<clus scale="   29.116">  2  9  1 -1</clus>
<clus scale="   91.314">  5  6 -1 -1</clus>
<clus scale="   91.528">  7  8 -1 -1</clus>
<clus scale="  102.901">  1  5  2 -1</clus>
<clus scale="   29.116">  2  5  1 -1</clus>
</clustering>
</event>
<event>
 9    1  0.1601012E-005  0.1302054E+03  0.7546771E-02  0.1227630E+00
          1   -1    0    0  502    0 -0.00000000000E+00  0.00000000000E+00  0.10943833713E+04  0.10943833713E+04  0.00000000000E+00 0. -1.
         21   -1    0    0  501  502  0.00000000000E+00 -0.00000000000E+00 -0.24491074115E+02  0.24491074115E+02  0.00000000000E+00 0.  1.
         23    2    1    2    0    0 -0.10367683211E+03  0.67132418085E+01  0.61410222595E+03  0.62972457564E+03  0.92938388827E+02 0.  0.
         23    2    1    2    0    0  0.78332128466E+02  0.57907218284E+00  0.44450858066E+03  0.46046531164E+03  0.91127203794E+02 0.  0.
        -11    1    3    3    0    0 -0.30569284203E+02 -0.41357547135E+02  0.20286142222E+03  0.20927896327E+03  0.00000000000E+00 0.  1.
         11    1    3    3    0    0 -0.73107547906E+02  0.48070788944E+02  0.41124080373E+03  0.42044561238E+03  0.00000000000E+00 0. -1.
        -11    1    4    4    0    0 -0.74461196143E+01  0.26636522976E+02  0.67542851125E+02  0.72986202748E+02  0.00000000000E+00 0.  1.
         11    1    4    4    0    0  0.85778248080E+02 -0.26057450793E+02  0.37696572953E+03  0.38747910889E+03  0.00000000000E+00 0. -1.
          1    1    1    2  501    0  0.25344703644E+02 -0.72923139913E+01  0.11281490592E+02  0.28684558148E+02  0.00000000000E+00 0. -1.
<scales pt_clust_5="13000.00000" pt_clust_6="13000.00000" pt_clust_7="13000.00000" pt_clust_8="13000.00000" pt_clust_9="26.37294"></scales>
<clustering>
<clus scale="   26.373">  2  9  1 -1</clus>
<clus scale="   91.127">  7  8 -1 -1</clus>
<clus scale="   92.938">  5  6 -1 -1</clus>
<clus scale="  128.919">  2  7  1 -1</clus>
<clus scale="   26.373">  2  5  1 -1</clus>
</clustering>
</event>
<event>
 9    1  0.1601012E-005  0.9711062E+02  0.7546771E-02  0.1288310E+00
         21   -1    0    0  501  502  0.00000000000E+00  0.00000000000E+00  0.33197818169E+02  0.33197818169E+02  0.00000000000E+00 0.  1.
          2   -1    0    0  502    0 -0.00000000000E+00 -0.00000000000E+00 -0.72767609116E+03  0.72767609116E+03  0.00000000000E+00 0. -1.
         23    2    1    2    0    0  0.24354680888E+02  0.68126582404E+01 -0.45187740459E+03  0.46203897380E+03  0.92990654053E+02 0.  0.
         23    2    1    2    0    0 -0.29431340326E+01 -0.57426357901E+02 -0.20866025350E+03  0.23424262738E+03  0.89577109079E+02 0.  0.
        -13    1    4    4    0    0 -0.43864034356E+02 -0.34343322222E+02 -0.14330500430E+03  0.15375253347E+03  0.00000000000E+00 0.  1.
         13    1    4    4    0    0  0.40920900323E+02 -0.23083035678E+02 -0.65355249204E+02  0.80490093911E+02  0.00000000000E+00 0. -1.
        -13    1    3    3    0    0 -0.17330309543E+01  0.47341102977E+02 -0.19437718847E+03  0.20006667595E+03  0.00000000000E+00 0.  1.
         13    1    3    3    0    0  0.26087711842E+02 -0.40528444737E+02 -0.25750021612E+03  0.26197229786E+03  0.00000000000E+00 0. -1.
          2    1    1    2  501    0 -0.21411546855E+02  0.50613699660E+02 -0.33940614903E+02  0.64592308149E+02  0.00000000000E+00 0. -1.
<scales pt_clust_5="13000.00000" pt_clust_6="13000.00000" pt_clust_7="13000.00000" pt_clust_8="13000.00000" pt_clust_9="54.95635"></scales>
<clustering>
<clus scale="   54.956">  1  9  2 -1</clus>
<clus scale="   89.577">  5  6 -1 -1</clus>
<clus scale="   92.991">  7  8 -1 -1</clus>
<clus scale="   93.847">  1  5  2 -1</clus>
<clus scale="   54.956">  1  5  2 -1</clus>
</clustering>
</event>
<event>
 9    1  0.1601012E-005  0.9828601E+02  0.7546771E-02  0.1285829E+00
         21   -1    0    0  501  502  0.00000000000E+00  0.00000000000E+00  0.33362472653E+02  0.33362472653E+02  0.00000000000E+00 0.  1.
         -1   -1    0    0    0  501 -0.00000000000E+00 -0.00000000000E+00 -0.64035885307E+03  0.64035885307E+03  0.00000000000E+00 0.  1.
         23    2    1    2    0    0 -0.51609550327E+02  0.22629225300E+02 -0.28206814655E+03  0.30199004197E+03  0.91977815957E+02 0.  0.
         23    2    1    2    0    0  0.65141916216E+01  0.38099271801E+02 -0.12410554723E+03  0.15713563328E+03  0.88291739064E+02 0.  0.
        -11    1    4    4    0    0 -0.35369518693E+02  0.27400206086E+02 -0.30844564375E+02  0.54342996767E+02  0.00000000000E+00 0. -1.
         11    1    4    4    0    0  0.41883710314E+02  0.10699065715E+02 -0.93260982859E+02  0.10279263651E+03  0.00000000000E+00 0.  1.
        -13    1    3    3    0    0 -0.60335026998E+02  0.50461879349E+02 -0.20955063415E+03  0.22382623846E+03  0.00000000000E+00 0. -1.
         13    1    3    3    0    0  0.87254766708E+01 -0.27832654049E+02 -0.72517512396E+02  0.78163803507E+02  0.00000000000E+00 0.  1.
         -1    1    1    2    0  502  0.45095358706E+02 -0.60728497102E+02 -0.20082268664E+03  0.21459565048E+03  0.00000000000E+00 0.  1.
<scales pt_clust_5="13000.00000" pt_clust_6="13000.00000" pt_clust_7="13000.00000" pt_clust_8="13000.00000" pt_clust_9="75.64091"></scales>
<clustering>
<clus scale="   75.641">  1  9  2 -1</clus>
<clus scale="   88.292">  5  6 -1 -1</clus>
<clus scale="   91.978">  7  8 -1 -1</clus>
<clus scale="   94.845">  1  5  2 -1</clus>
<clus scale="   75.641">  1  5  2 -1</clus>
</clustering>
</event>
<event>
 9    1  0.1601012E-005  0.1219851E+03  0.7546771E-02  0.1244376E+00
         21   -1    0    0  501  502  0.00000000000E+00  0.00000000000E+00  0.21498895185E+03  0.21498895185E+03  0.00000000000E+00 0. -1.
          1   -1    0    0  502    0 -0.00000000000E+00 -0.00000000000E+00 -0.22027245670E+03  0.22027245670E+03  0.00000000000E+00 0. -1.
         23    2    1    2    0    0 -0.28938635175E+02 -0.63692865113E+01 -0.13420760521E+03  0.18075032795E+03  0.11739245010E+03 0.  0.
         23    2    1    2    0    0  0.30052301434E+02  0.37686782918E+02 -0.51655693856E+01  0.11680826520E+03  0.10627348345E+03 0.  0.
        -11    1    4    4    0    0 -0.23920014700E+02  0.53175578880E+02 -0.14004257853E+02  0.59966061489E+02  0.00000000000E+00 0. -1.
         11    1    4    4    0    0  0.53972316133E+02 -0.15488795962E+02  0.88386884677E+01  0.56842203713E+02  0.00000000000E+00 0.  1.
        -13    1    3    3    0    0 -0.62912564157E+01  0.52903782348E+02 -0.37756141585E+02  0.65298670135E+02  0.00000000000E+00 0.  1.
         13    1    3    3    0    0 -0.22647378759E+02 -0.59273068860E+02 -0.96451463628E+02  0.11545165782E+03  0.00000000000E+00 0. -1.
          1    1    1    2  501    0 -0.11136662589E+01 -0.31317496407E+02  0.13408966975E+03  0.13770281539E+03  0.00000000000E+00 0. -1.
<scales pt_clust_5="13000.00000" pt_clust_6="13000.00000" pt_clust_7="13000.00000" pt_clust_8="13000.00000" pt_clust_9="31.33729"></scales>
<clustering>
<clus scale="   31.337">  1  9  2 -1</clus>
<clus scale="  106.273">  5  6 -1 -1</clus>
<clus scale="  111.326">  1  5  2 -1</clus>
<clus scale="  117.392">  7  8 -1 -1</clus>
<clus scale="   31.337">  1  5  2 -1</clus>
</clustering>
</event>
<event>
 9    1  0.1601012E-005  0.9789992E+02  0.7546771E-02  0.1289075E+00
         -2   -1    0    0    0  501 -0.00000000000E+00  0.00000000000E+00  0.11978663771E+03  0.11978663771E+03  0.00000000000E+00 0.  1.
         21   -1    0    0  501  502  0.00000000000E+00 -0.00000000000E+00 -0.34756944962E+03  0.34756944962E+03  0.00000000000E+00 0.  1.
         23    2    1    2    0    0  0.18516342966E+02  0.21005186074E+02  0.78774739330E+02  0.11899811982E+03  0.84681876255E+02 0.  0.
         23    2    1    2    0    0 -0.39329127192E+02 -0.39630736398E+02 -0.12806667218E+03  0.16769508526E+03  0.92753402005E+02 0.  0.
        -11    1    4    4    0    0 -0.62664544308E+02 -0.52127494511E+02 -0.10168592152E+03  0.13032324211E+03  0.00000000000E+00 0. -1.
         11    1    4    4    0    0  0.23335417116E+02  0.12496758112E+02 -0.26380750658E+02  0.37371843152E+02  0.00000000000E+00 0.  1.
        -13    1    3    3    0    0  0.47777374343E+02  0.23033433338E+02  0.71054843170E+02  0.88667960890E+02  0.00000000000E+00 0.  1.
         13    1    3    3    0    0 -0.29261031377E+02 -0.20282472647E+01  0.77198961598E+01  0.30330158933E+02  0.00000000000E+00 0. -1.
         -2    1    1    2    0  502  0.20812784226E+02  0.18625550325E+02 -0.17849087907E+03  0.18066288225E+03  0.00000000000E+00 0.  1.
<scales pt_clust_5="13000.00000" pt_clust_6="13000.00000" pt_clust_7="13000.00000" pt_clust_8="13000.00000" pt_clust_9="27.92997"></scales>
<clustering>
<clus scale="   27.930">  2  9  1 -1</clus>
<clus scale="   84.682">  7  8 -1 -1</clus>
<clus scale="   90.290">  1  7  2 -1</clus>
<clus scale="   92.753">  5  6 -1 -1</clus>
<clus scale="   27.930">  2  5  1 -1</clus>
</clustering>
</event>
<event>
 9    1  0.1857172E-005  0.1100881E+03  0.7546771E-02  0.1260679E+00
         21   -1    0    0  501  502  0.00000000000E+00  0.00000000000E+00  0.16154262987E+03  0.16154262987E+03  0.00000000000E+00 0.  1.
          1   -1    0    0  502    0 -0.00000000000E+00 -0.00000000000E+00 -0.29908007585E+03  0.29908007585E+03  0.00000000000E+00 0. -1.
         23    2    1    2    0    0 -0.80685079457E+00  0.55407233041E+02 -0.16078162991E+03  0.19236972752E+03  0.89915332774E+02 0.  0.
         23    2    1    2    0    0 -0.80888682686E+01 -0.12157371521E+03  0.87780533948E+02  0.17539783480E+03  0.90627701577E+02 0.  0.
        -11    1    4    4    0    0  0.76317839567E+01 -0.93816486841E+02  0.10344504586E+03  0.13985941099E+03  0.00000000000E+00 0.  1.
         11    1    4    4    0    0 -0.15720652225E+02 -0.27757228373E+02 -0.15664511917E+02  0.35538423811E+02  0.00000000000E+00 0. -1.
        -13    1    3    3    0    0  0.39318805093E+02  0.22328145702E+02 -0.11314879896E+03  0.12184894431E+03  0.00000000000E+00 0. -1.
         13    1    3    3    0    0 -0.40125655887E+02  0.33079087339E+02 -0.47632830948E+02  0.70520783204E+02  0.00000000000E+00 0.  1.
          1    1    1    2  501    0  0.88957190632E+01  0.66166482173E+02 -0.64536350022E+02  0.92855143396E+02  0.00000000000E+00 0. -1.
<scales pt_clust_5="13000.00000" pt_clust_6="13000.00000" pt_clust_7="13000.00000" pt_clust_8="13000.00000" pt_clust_9="66.76183"></scales>
<clustering>
<clus scale="   66.762">  1  9  2 -1</clus>
<clus scale="   89.915">  7  8 -1 -1</clus>
<clus scale="   90.628">  5  6 -1 -1</clus>
<clus scale="  109.502">  2  7  1 -1</clus>
<clus scale="   66.762">  1  5  2 -1</clus>
</clustering>
</event>
<event>
 9    1  0.1601012E-005  0.1051831E+03  0.7546771E-02  0.1269801E+00
         21   -1    0    0  501  502  0.00000000000E+00  0.00000000000E+00  0.40174986440E+03  0.40174986440E+03  0.00000000000E+00 0. -1.
         -2   -1    0    0    0  501 -0.00000000000E+00 -0.00000000000E+00 -0.63848120745E+02  0.63848120745E+02  0.00000000000E+00 0.  1.
         23    2    1    2    0    0  0.44056311619E+02 -0.23318514459E+01  0.16908350731E+02  0.10291171524E+03  0.91425011264E+02 0.  0.
         23    2    1    2    0    0 -0.74944248263E+02  0.79004427542E+01  0.16270496585E+03  0.20131619838E+03  0.91521846974E+02 0.  0.
        -13    1    3    3    0    0  0.50309801592E+02 -0.31959321397E+02 -0.12279397908E+02  0.60854399786E+02  0.00000000000E+00 0.  1.
         13    1    3    3    0    0 -0.62534899728E+01  0.29627469951E+02  0.29187748639E+02  0.42057315454E+02  0.00000000000E+00 0. -1.
        -13    1    4    4    0    0 -0.27663454752E+02 -0.39836880483E+02  0.47112914897E+02  0.67615608594E+02  0.00000000000E+00 0.  1.
         13    1    4    4    0    0 -0.47280793510E+02  0.47737323238E+02  0.11559205095E+03  0.13370058978E+03  0.00000000000E+00 0. -1.
         -2    1    1    2    0  502  0.30887936644E+02 -0.55685913083E+01  0.15828842708E+03  0.16137007153E+03  0.00000000000E+00 0.  1.
<scales pt_clust_5="13000.00000" pt_clust_6="13000.00000" pt_clust_7="13000.00000" pt_clust_8="13000.00000" pt_clust_9="31.38589"></scales>
<clustering>
<clus scale="   31.386">  1  9  2 -1</clus>
<clus scale="   91.425">  5  6 -1 -1</clus>
<clus scale="   91.522">  7  8 -1 -1</clus>
<clus scale="  105.099">  2  5  1 -1</clus>
<clus scale="   31.386">  1  5  2 -1</clus>
</clustering>
</event>
<event>
 9    1  0.1601012E-005  0.1053584E+03  0.7546771E-02  0.1273400E+00
         -2   -1    0    0    0  501 -0.00000000000E+00  0.00000000000E+00  0.16367194805E+03  0.16367194805E+03  0.00000000000E+00 0.  1.
         21   -1    0    0  501  502  0.00000000000E+00 -0.00000000000E+00 -0.10677801256E+03  0.10677801256E+03  0.00000000000E+00 0.  1.
         23    2    1    2    0    0  0.32608220018E+02 -0.25922467772E+02  0.82504241259E+02  0.12958266953E+03  0.90826472296E+02 0.  0.
         23    2    1    2    0    0 -0.27811310289E+02 -0.82601417284E+01 -0.25224519493E+02  0.10634758704E+03  0.99155604809E+02 0.  0.
        -11    1    4    4    0    0  0.30210512399E+02 -0.18190317005E+01 -0.35948710177E+02  0.46992485560E+02  0.00000000000E+00 0. -1.
         11    1    4    4    0    0 -0.58021822688E+02 -0.64411100278E+01  0.10724190684E+02  0.59355101484E+02  0.00000000000E+00 0.  1.
        -11    1    3    3    0    0 -0.24549409576E+02  0.10788549335E+02  0.43917589392E+02  0.51456981696E+02  0.00000000000E+00 0. -1.
         11    1    3    3    0    0  0.57157629594E+02 -0.36711017106E+02  0.38586651867E+02  0.78125687838E+02  0.00000000000E+00 0.  1.
         -2    1    1    2    0  502 -0.47969097290E+01  0.34182609500E+02 -0.38578628212E+00  0.34519704029E+02  0.00000000000E+00 0.  1.
<scales pt_clust_5="13000.00000" pt_clust_6="13000.00000" pt_clust_7="13000.00000" pt_clust_8="13000.00000" pt_clust_9="34.51755"></scales>
<clustering>
<clus scale="   34.518">  2  9  1 -1</clus>
<clus scale="   90.826">  7  8 -1 -1</clus>
<clus scale="   97.560">  1  7  2 -1</clus>
<clus scale="   99.156">  5  6 -1 -1</clus>
<clus scale="   34.518">  2  5  1 -1</clus>
</clustering>
</event>
<event>
 9    1  0.1601012E-005  0.1286892E+03  0.7546771E-02  0.1229751E+00
          2   -1    0    0  502    0 -0.00000000000E+00  0.00000000000E+00  0.73161448074E+03  0.73161448074E+03  0.00000000000E+00 0. -1.
         21   -1    0    0  501  502  0.00000000000E+00 -0.00000000000E+00 -0.36835214611E+02  0.36835214611E+02  0.00000000000E+00 0. -1.
         23    2    1    2    0    0  0.48645776131E+02 -0.63065517589E+02  0.34599193076E+03  0.36657380291E+03  0.91226453344E+02 0.  0.
         23    2    1    2    0    0 -0.81840314687E+02  0.68836527697E+02  0.33917859849E+03  0.36684005690E+03  0.89962219930E+02 0.  0.
        -11    1    3    3    0    0 -0.39571894481E+01  0.20970590782E+02  0.76623934855E+02  0.79540256592E+02  0.00000000000E+00 0.  1.
         11    1    3    3    0    0  0.52602965579E+02 -0.84036108371E+02  0.26936799590E+03  0.28703354632E+03  0.00000000000E+00 0. -1.
        -13    1    4    4    0    0 -0.35579535349E+01  0.22058595340E+02  0.86462763665E+01  0.23958271155E+02  0.00000000000E+00 0.  1.
         13    1    4    4    0    0 -0.78282361152E+02  0.46777932357E+02  0.33053232213E+03  0.34288178574E+03  0.00000000000E+00 0. -1.
          2    1    1    2  501    0  0.33194538556E+02 -0.57710101079E+01  0.96087368777E+01  0.35035835540E+02  0.00000000000E+00 0. -1.
<scales pt_clust_5="13000.00000" pt_clust_6="13000.00000" pt_clust_7="13000.00000" pt_clust_8="13000.00000" pt_clust_9="33.69246"></scales>
<clustering>
<clus scale="   33.692">  2  9  1 -1</clus>
<clus scale="   89.962">  7  8 -1 -1</clus>
<clus scale="   91.226">  5  6 -1 -1</clus>
<clus scale="  127.796">  2  7  1 -1</clus>
<clus scale="   33.692">  2  5  1 -1</clus>
</clustering>
</event>
<event>
 9    1  0.1601012E-005  0.1595905E+03  0.7546771E-02  0.1189791E+00
         21   -1    0    0  501  502  0.00000000000E+00  0.00000000000E+00  0.53547524212E+02  0.53547524212E+02  0.00000000000E+00 0.  1.
          1   -1    0    0  502    0 -0.00000000000E+00 -0.00000000000E+00 -0.71718096044E+03  0.71718096044E+03  0.00000000000E+00 0. -1.
         23    2    1    2    0    0 -0.98955927670E+02  0.75670715723E+02 -0.41747313011E+03  0.44482136588E+03  0.89799222414E+02 0.  0.
         23    2    1    2    0    0  0.13253917702E+03 -0.53135122834E+02 -0.21661677406E+03  0.27582211233E+03  0.93621771614E+02 0.  0.
        -11    1    4    4    0    0  0.49071874884E+02  0.26160642338E+02 -0.71963898709E+02  0.90946307399E+02  0.00000000000E+00 0. -1.
         11    1    4    4    0    0  0.83467302136E+02 -0.79295765172E+02 -0.14465287535E+03  0.18487580493E+03  0.00000000000E+00 0.  1.
        -11    1    3    3    0    0  0.11175670599E+02  0.22901178735E+02 -0.13017022196E+03  0.13264104299E+03  0.00000000000E+00 0.  1.
         11    1    3    3    0    0 -0.11013159827E+03  0.52769536987E+02 -0.28730290814E+03  0.31218032289E+03  0.00000000000E+00 0. -1.
          1    1    1    2  501    0 -0.33583249351E+02 -0.22535592889E+02 -0.29543532064E+02  0.50085006446E+02  0.00000000000E+00 0. -1.
<scales pt_clust_5="13000.00000" pt_clust_6="13000.00000" pt_clust_7="13000.00000" pt_clust_8="13000.00000" pt_clust_9="40.44363"></scales>
<clustering>
<clus scale="   40.444">  1  9  2 -1</clus>
<clus scale="   89.799">  7  8 -1 -1</clus>
<clus scale="   93.622">  5  6 -1 -1</clus>
<clus scale="  157.379">  2  7  1 -1</clus>
<clus scale="   40.444">  1  5  2 -1</clus>
</clustering>
</event>
<event>
 9    1  0.1601012E-005  0.9341154E+02  0.7546771E-02  0.1295144E+00
         21   -1    0    0  501  502  0.00000000000E+00  0.00000000000E+00  0.15207693828E+03  0.15207693828E+03  0.00000000000E+00 0. -1.
         -1   -1    0    0    0  501 -0.00000000000E+00 -0.00000000000E+00 -0.91094827147E+02  0.91094827147E+02  0.00000000000E+00 0.  1.
         23    2    1    2    0    0 -0.35371165981E+02  0.21171193565E+01 -0.12058096622E+02  0.97020150251E+02  0.89509274845E+02 0.  0.
         23    2    1    2    0    0  0.84363062122E+01  0.18155270472E+01  0.30307950426E+02  0.95486062825E+02  0.90136279787E+02 0.  0.
        -13    1    3    3    0    0  0.18339398064E+02 -0.20150865056E+02 -0.25527294121E+02  0.37336759755E+02  0.00000000000E+00 0.  1.
         13    1    3    3    0    0 -0.53710564045E+02  0.22267984412E+02  0.13469197499E+02  0.59683390496E+02  0.00000000000E+00 0. -1.
        -13    1    4    4    0    0  0.46447615888E+02  0.16948164251E+02  0.19676358163E+02  0.53214475133E+02  0.00000000000E+00 0.  1.
         13    1    4    4    0    0 -0.38011309675E+02 -0.15132637204E+02  0.10631592264E+02  0.42271587692E+02  0.00000000000E+00 0. -1.
         -1    1    1    2    0  502  0.26934859769E+02 -0.39326464036E+01  0.42732257328E+02  0.50665552349E+02  0.00000000000E+00 0.  1.
<scales pt_clust_5="13000.00000" pt_clust_6="13000.00000" pt_clust_7="13000.00000" pt_clust_8="13000.00000" pt_clust_9="27.22044"></scales>
<clustering>
<clus scale="   27.220">  1  9  2 -1</clus>
<clus scale="   89.509">  5  6 -1 -1</clus>
<clus scale="   90.136">  7  8 -1 -1</clus>
<clus scale="   92.807">  2  5  1 -1</clus>
<clus scale="   27.220">  1  5  2 -1</clus>
</clustering>
</event>
<event>
 9    1  0.1601012E-005  0.1056679E+03  0.7546771E-02  0.1269101E+00
          1   -1    0    0  502    0 -0.00000000000E+00  0.00000000000E+00  0.92747623683E+03  0.92747623683E+03  0.00000000000E+00 0. -1.
         21   -1    0    0  501  502  0.00000000000E+00 -0.00000000000E+00 -0.19611493155E+02  0.19611493155E+02  0.00000000000E+00 0.  1.
         23    2    1    2    0    0  0.49191745711E+02 -0.34523681830E+02  0.60773576808E+03  0.61737678694E+03  0.90551757578E+02 0.  0.
         23    2    1    2    0    0 -0.20629153797E+02  0.38554829574E+02  0.26836042094E+03  0.28680042133E+03  0.91242146384E+02 0.  0.
        -11    1    3    3    0    0 -0.18416376303E+02 -0.36667586252E+02  0.22653109841E+03  0.23021731765E+03  0.00000000000E+00 0. -1.
         11    1    3    3    0    0  0.67608122014E+02  0.21439044220E+01  0.38120466966E+03  0.38715946929E+03  0.00000000000E+00 0.  1.
        -11    1    4    4    0    0  0.19184582727E+02  0.54485480171E+02  0.16833766085E+03  0.17797270528E+03  0.00000000000E+00 0.  1.
         11    1    4    4    0    0 -0.39813736523E+02 -0.15930650596E+02  0.10002276009E+03  0.10882771605E+03  0.00000000000E+00 0. -1.
          1    1    1    2  501    0 -0.28562591915E+02 -0.40311477447E+01  0.31768554664E+02  0.42910521722E+02  0.00000000000E+00 0. -1.
<scales pt_clust_5="13000.00000" pt_clust_6="13000.00000" pt_clust_7="13000.00000" pt_clust_8="13000.00000" pt_clust_9="28.84565"></scales>
<clustering>
<clus scale="   28.846">  2  9  1 -1</clus>
<clus scale="   90.552">  5  6 -1 -1</clus>
<clus scale="   91.242">  7  8 -1 -1</clus>
<clus scale="  105.072">  1  5  2 -1</clus>
<clus scale="   28.846">  2  5  1 -1</clus>
</clustering>
</event>
<event>
 9    1  0.1601012E-005  0.1044593E+03  0.7546771E-02  0.1272328E+00
         21   -1    0    0  501  502  0.00000000000E+00  0.00000000000E+00  0.50799296247E+03  0.50799296247E+03  0.00000000000E+00 0.  1.
          2   -1    0    0  502    0 -0.00000000000E+00 -0.00000000000E+00 -0.38858391167E+02  0.38858391167E+02  0.00000000000E+00 0. -1.
         23    2    1    2    0    0 -0.24926647653E+02  0.25223472465E+02  0.11477754745E+03  0.15098922305E+03  0.91467473737E+02 0.  0.
         23    2    1    2    0    0  0.72898342522E+02 -0.22365312040E+02  0.17790247854E+03  0.21298058654E+03  0.88865419879E+02 0.  0.
        -11    1    4    4    0    0  0.86550496113E+02 -0.38521443727E+02  0.13240381752E+03  0.16280559234E+03  0.00000000000E+00 0.  1.
         11    1    4    4    0    0 -0.13652153591E+02  0.16156131687E+02  0.45498661018E+02  0.50174994203E+02  0.00000000000E+00 0. -1.
        -13    1    3    3    0    0 -0.29434649820E+02 -0.28017534799E+02  0.28972043165E+02  0.49907515981E+02  0.00000000000E+00 0. -1.
         13    1    3    3    0    0  0.45080021671E+01  0.53241007264E+02  0.85805504289E+02  0.10108170707E+03  0.00000000000E+00 0.  1.
          2    1    1    2  501    0 -0.47971694869E+02 -0.28581604251E+01  0.17645454531E+03  0.18288154404E+03  0.00000000000E+00 0. -1.
<scales pt_clust_5="13000.00000" pt_clust_6="13000.00000" pt_clust_7="13000.00000" pt_clust_8="13000.00000" pt_clust_9="48.05676"></scales>
<clustering>
<clus scale="   48.057">  1  9  2 -1</clus>
<clus scale="   88.865">  5  6 -1 -1</clus>
<clus scale="   91.467">  7  8 -1 -1</clus>
<clus scale="  102.189">  1  5  2 -1</clus>
<clus scale="   48.057">  1  5  2 -1</clus>
</clustering>
</event>
<event>
 9    1  0.1601012E-005  0.1208113E+03  0.7546771E-02  0.1246556E+00
         -1   -1    0    0    0  501 -0.00000000000E+00  0.00000000000E+00  0.52654492790E+03  0.52654492790E+03  0.00000000000E+00 0.  1.
         21   -1    0    0  501  502  0.00000000000E+00 -0.00000000000E+00 -0.42895653536E+02  0.42895653536E+02  0.00000000000E+00 0.  1.
         23    2    1    2    0    0  0.46885033568E+02  0.48392362753E+02  0.30318491823E+03  0.32358695230E+03  0.90815163476E+02 0.  0.
         23    2    1    2    0    0 -0.23123755615E+02 -0.48526449237E+02  0.18752937397E+03  0.22106389767E+03  0.10398296207E+03 0.  0.
        -11    1    4    4    0    0 -0.34992954707E+02  0.20664594696E+02  0.36956862872E+02  0.54930338306E+02  0.00000000000E+00 0. -1.
         11    1    4    4    0    0  0.11869199092E+02 -0.69191043934E+02  0.15057251110E+03  0.16613355936E+03  0.00000000000E+00 0.  1.
        -11    1    3    3    0    0 -0.11561400389E+02  0.52043033693E+02  0.16820551193E+03  0.17645179959E+03  0.00000000000E+00 0.  1.
         11    1    3    3    0    0  0.58446433957E+02 -0.36506709405E+01  0.13497940629E+03  0.14713515271E+03  0.00000000000E+00 0. -1.
         -1    1    1    2    0  502 -0.23761277953E+02  0.13408648474E+00 -0.70650178300E+01  0.24789731465E+02  0.00000000000E+00 0.  1.
<scales pt_clust_5="13000.00000" pt_clust_6="13000.00000" pt_clust_7="13000.00000" pt_clust_8="13000.00000" pt_clust_9="23.76166"></scales>
<clustering>
<clus scale="   23.762">  2  9  1 -1</clus>
<clus scale="   90.815">  7  8 -1 -1</clus>
<clus scale="  103.983">  5  6 -1 -1</clus>
<clus scale="  109.683">  1  7  2 -1</clus>
<clus scale="   23.762">  2  5  1 -1</clus>
</clustering>
</event>
<event>
 9    1  0.1601012E-005  0.1179824E+03  0.7546771E-02  0.1247960E+00
          1   -1    0    0  502    0 -0.00000000000E+00  0.00000000000E+00  0.78123161024E+03  0.78123161024E+03  0.00000000000E+00 0. -1.
         21   -1    0    0  501  502  0.00000000000E+00 -0.00000000000E+00 -0.58855021420E+02  0.58855021420E+02  0.00000000000E+00 0. -1.
         23    2    1    2    0    0 -0.74384541398E+02 -0.18518652852E+02  0.45324075903E+03  0.46884150967E+03  0.92245189790E+02 0.  0.
         23    2    1    2    0    0  0.71138269416E+02 -0.25666405795E+01  0.30736195431E+03  0.32746882159E+03  0.87733785605E+02 0.  0.
        -13    1    4    4    0    0  0.84493575610E+02 -0.23150935239E+02  0.25532250308E+03  0.26993464154E+03  0.00000000000E+00 0.  1.
         13    1    4    4    0    0 -0.13355306194E+02  0.20584294660E+02  0.52039451231E+02  0.57534180055E+02  0.00000000000E+00 0. -1.
        -13    1    3    3    0    0 -0.61926758432E+02 -0.36236408631E+02  0.43393648792E+03  0.43982823496E+03  0.00000000000E+00 0. -1.
         13    1    3    3    0    0 -0.12457782966E+02  0.17717755778E+02  0.19304271114E+02  0.29013274712E+02  0.00000000000E+00 0.  1.
          1    1    1    2  501    0  0.32462719820E+01  0.21085293432E+02 -0.38226124521E+02  0.43776300401E+02  0.00000000000E+00 0. -1.
<scales pt_clust_5="13000.00000" pt_clust_6="13000.00000" pt_clust_7="13000.00000" pt_clust_8="13000.00000" pt_clust_9="21.33373"></scales>
<clustering>
<clus scale="   21.334">  2  9  1 -1</clus>
<clus scale="   87.734">  5  6 -1 -1</clus>
<clus scale="   92.245">  7  8 -1 -1</clus>
<clus scale="  114.490">  2  5  1 -1</clus>
<clus scale="   21.334">  2  5  1 -1</clus>
</clustering>
</event>
<event>
 9    1  0.1601012E-005  0.1460173E+03  0.7546771E-02  0.1206688E+00
         -4   -1    0    0    0  501 -0.00000000000E+00  0.00000000000E+00  0.10927270896E+04  0.10927270896E+04  0.00000000000E+00 0.  1.
         21   -1    0    0  501  502  0.00000000000E+00 -0.00000000000E+00 -0.10460271873E+03  0.10460271873E+03  0.00000000000E+00 0.  1.
         23    2    1    2    0    0 -0.13290314941E+03  0.35646282454E+02  0.88544869990E+03  0.90076611540E+03  0.91794825151E+02 0.  0.
         23    2    1    2    0    0  0.26483483490E+02 -0.71229272497E+02  0.13766134613E+03  0.17902522292E+03  0.85582708922E+02 0.  0.
        -11    1    4    4    0    0 -0.27452245521E+02 -0.21997398931E+02  0.19782247435E+02  0.40358997231E+02  0.00000000000E+00 0.  1.
         11    1    4    4    0    0  0.53935729012E+02 -0.49231873565E+02  0.11787909869E+03  0.13866622569E+03  0.00000000000E+00 0. -1.
        -13    1    3    3    0    0 -0.34414011539E+02 -0.29078673193E+02  0.18075494641E+03  0.18628538342E+03  0.00000000000E+00 0. -1.
         13    1    3    3    0    0 -0.98489137868E+02  0.64724955648E+02  0.70469375349E+03  0.71448073198E+03  0.00000000000E+00 0.  1.
         -4    1    1    2    0  502  0.10641966592E+03  0.35582990042E+02 -0.34985675133E+02  0.11753847004E+03  0.00000000000E+00 0.  1.
<scales pt_clust_5="13000.00000" pt_clust_6="13000.00000" pt_clust_7="13000.00000" pt_clust_8="13000.00000" pt_clust_9="112.21094"></scales>
<clustering>
<clus scale="   85.583">  5  6 -1 -1</clus>
<clus scale="   91.795">  7  8 -1 -1</clus>
<clus scale="  112.211">  2  9  1 -1</clus>
<clus scale="  142.194">  2  5  1 -1</clus>
<clus scale="  112.211">  2  5  1 -1</clus>
</clustering>
</event>
<event>
 9    1  0.1601012E-005  0.1107914E+03  0.7546771E-02  0.1259478E+00
         21   -1    0    0  501  502  0.00000000000E+00  0.00000000000E+00  0.14444465807E+03  0.14444465807E+03  0.00000000000E+00 0.  1.
         -1   -1    0    0    0  501 -0.00000000000E+00 -0.00000000000E+00 -0.42195151918E+03  0.42195151918E+03  0.00000000000E+00 0.  1.
         23    2    1    2    0    0 -0.60941067319E+02  0.16389061581E+02 -0.21165511007E+03  0.23871662439E+03  0.90583255143E+02 0.  0.
         23    2    1    2    0    0  0.64181468572E+02  0.19317288010E+02 -0.17736087107E+03  0.21054831257E+03  0.91549411864E+02 0.  0.
        -11    1    4    4    0    0  0.14457172015E+02  0.34324805108E+02 -0.14418402427E+03  0.14891687253E+03  0.00000000000E+00 0. -1.
         11    1    4    4    0    0  0.49724296557E+02 -0.15007517098E+02 -0.33176846801E+02  0.61631440038E+02  0.00000000000E+00 0.  1.
        -13    1    3    3    0    0 -0.28750001026E+02  0.45444873966E+02 -0.17106827643E+03  0.17932137165E+03  0.00000000000E+00 0.  1.
         13    1    3    3    0    0 -0.32191066293E+02 -0.29055812386E+02 -0.40586833640E+02  0.59395252735E+02  0.00000000000E+00 0. -1.
         -1    1    1    2    0  502 -0.32404012528E+01 -0.35706349590E+02  0.11150912004E+03  0.11713124029E+03  0.00000000000E+00 0.  1.
<scales pt_clust_5="13000.00000" pt_clust_6="13000.00000" pt_clust_7="13000.00000" pt_clust_8="13000.00000" pt_clust_9="35.85308"></scales>
<clustering>
<clus scale="   35.853">  1  9  2 -1</clus>
<clus scale="   90.583">  7  8 -1 -1</clus>
<clus scale="   91.549">  5  6 -1 -1</clus>
<clus scale="  109.994">  2  7  1 -1</clus>
<clus scale="   35.853">  1  5  2 -1</clus>
</clustering>
</event>
<event>
 9    1  0.1601012E-005  0.1882708E+03  0.7546771E-02  0.1160049E+00
         21   -1    0    0  501  502  0.00000000000E+00  0.00000000000E+00  0.87745273652E+02  0.87745273652E+02  0.00000000000E+00 0.  1.
          2   -1    0    0  502    0 -0.00000000000E+00 -0.00000000000E+00 -0.48813296782E+03  0.48813296782E+03  0.00000000000E+00 0. -1.
         23    2    1    2    0    0  0.88378186313E+02  0.12659392531E+03 -0.20460588493E+03  0.27166178971E+03  0.89999078327E+02 0.  0.
         23    2    1    2    0    0 -0.11144945813E+03 -0.14344776658E+03 -0.15866134446E+03  0.25737347519E+03  0.89830062074E+02 0.  0.
        -11    1    4    4    0    0 -0.11095468232E+03 -0.96028150022E+02 -0.84451895360E+02  0.16930584678E+03  0.00000000000E+00 0.  1.
         11    1    4    4    0    0 -0.49477580838E+00 -0.47419616558E+02 -0.74209449100E+02  0.88067628407E+02  0.00000000000E+00 0. -1.
        -13    1    3    3    0    0  0.32916306405E+02  0.11673314795E+03 -0.12529709127E+03  0.17438311885E+03  0.00000000000E+00 0.  1.
         13    1    3    3    0    0  0.55461879908E+02  0.98607773561E+01 -0.79308793658E+02  0.97278670861E+02  0.00000000000E+00 0. -1.
          2    1    1    2  501    0  0.23071271813E+02  0.16853841269E+02 -0.37120464780E+02  0.46842976571E+02  0.00000000000E+00 0. -1.
<scales pt_clust_5="13000.00000" pt_clust_6="13000.00000" pt_clust_7="13000.00000" pt_clust_8="13000.00000" pt_clust_9="28.57160"></scales>
<clustering>
<clus scale="   28.572">  1  9  2 -1</clus>
<clus scale="   89.830">  5  6 -1 -1</clus>
<clus scale="   89.999">  7  8 -1 -1</clus>
<clus scale="  188.190">  1  5  2 -1</clus>
<clus scale="   28.572">  1  5  2 -1</clus>
</clustering>
</event>
<event>
 9    1  0.1601012E-005  0.1664283E+03  0.7546771E-02  0.1182448E+00
         21   -1    0    0  501  502  0.00000000000E+00  0.00000000000E+00  0.73022340944E+03  0.73022340944E+03  0.00000000000E+00 0. -1.
          1   -1    0    0  502    0 -0.00000000000E+00 -0.00000000000E+00 -0.94510596157E+02  0.94510596157E+02  0.00000000000E+00 0. -1.
         23    2    1    2    0    0 -0.74167585354E+02 -0.91689152518E+02  0.93273890037E+02  0.17570042705E+03  0.90900440579E+02 0.  0.
         23    2    1    2    0    0  0.81313582041E+02  0.14729882957E+03  0.12143024756E+03  0.22430801250E+03  0.85205255892E+02 0.  0.
        -13    1    4    4    0    0  0.45453198532E+02  0.86075913249E+02  0.18170714593E+02  0.99021366216E+02  0.00000000000E+00 0.  1.
         13    1    4    4    0    0  0.35860383509E+02  0.61222916318E+02  0.10325953296E+03  0.12528664628E+03  0.00000000000E+00 0. -1.
        -13    1    3    3    0    0 -0.43765120708E+02 -0.94816838538E+02  0.99798896076E+02  0.14444873942E+03  0.00000000000E+00 0. -1.
         13    1    3    3    0    0 -0.30402464646E+02  0.31276860195E+01 -0.65250060393E+01  0.31251687637E+02  0.00000000000E+00 0.  1.
          1    1    1    2  501    0 -0.71459966873E+01 -0.55609677049E+02  0.42100867569E+03  0.42472556605E+03  0.00000000000E+00 0. -1.
<scales pt_clust_5="13000.00000" pt_clust_6="13000.00000" pt_clust_7="13000.00000" pt_clust_8="13000.00000" pt_clust_9="56.06694"></scales>
<clustering>
<clus scale="   56.067">  1  9  2 -1</clus>
<clus scale="   85.205">  5  6 -1 -1</clus>
<clus scale="   90.900">  7  8 -1 -1</clus>
<clus scale="  163.387">  1  5  2 -1</clus>
<clus scale="   56.067">  1  5  2 -1</clus>
</clustering>
</event>
<event>
 9    1  0.1601012E-005  0.9859773E+02  0.7546771E-02  0.1283899E+00
         21   -1    0    0  501  502  0.00000000000E+00  0.00000000000E+00  0.36926882123E+03  0.36926882123E+03  0.00000000000E+00 0.  1.
         -4   -1    0    0    0  501 -0.00000000000E+00 -0.00000000000E+00 -0.16480782646E+03  0.16480782646E+03  0.00000000000E+00 0.  1.
         23    2    1    2    0    0  0.39823120187E+02  0.24965704908E+02 -0.10187925948E+03  0.14432729091E+03  0.90784448374E+02 0.  0.
         23    2    1    2    0    0  0.53293132727E+02 -0.53655672057E+02  0.75392098135E+02  0.13908862674E+03  0.89121201108E+02 0.  0.
        -11    1    3    3    0    0  0.27145902684E+02  0.53263276653E+02 -0.31842456122E+02  0.67733438450E+02  0.00000000000E+00 0. -1.
         11    1    3    3    0    0  0.12677217503E+02 -0.28297571745E+02 -0.70036803357E+02  0.76593852460E+02  0.00000000000E+00 0.  1.
        -13    1    4    4    0    0  0.76629431542E+02 -0.27358273796E+02  0.47559127263E+02  0.94246567627E+02  0.00000000000E+00 0. -1.
         13    1    4    4    0    0 -0.23336298815E+02 -0.26297398261E+02  0.27832970872E+02  0.44842059110E+02  0.00000000000E+00 0.  1.
         -4    1    1    2    0  502 -0.93116252914E+02  0.28689967149E+02  0.23094815612E+03  0.25066073005E+03  0.00000000000E+00 0.  1.
<scales pt_clust_5="13000.00000" pt_clust_6="13000.00000" pt_clust_7="13000.00000" pt_clust_8="13000.00000" pt_clust_9="97.43588"></scales>
<clustering>
<clus scale="   89.121">  7  8 -1 -1</clus>
<clus scale="   90.784">  5  6 -1 -1</clus>
<clus scale="   97.436">  1  9  2 -1</clus>
<clus scale="   97.436">  1  7  2 -1</clus>
<clus scale="   97.436">  1  5  2 -1</clus>
</clustering>
</event>
<event>
 9    1  0.3453640E-005  0.9619479E+02  0.7546771E-02  0.1288884E+00
          1   -1    0    0  502    0 -0.00000000000E+00  0.00000000000E+00  0.10733658136E+03  0.10733658136E+03  0.00000000000E+00 0. -1.
         21   -1    0    0  501  502  0.00000000000E+00 -0.00000000000E+00 -0.45161173653E+03  0.45161173653E+03  0.00000000000E+00 0. -1.
         23    2    1    2    0    0  0.16163530531E+02 -0.18030659341E+02  0.52472317792E+02  0.10905569618E+03  0.92484789775E+02 0.  0.
         23    2    1    2    0    0  0.35644466620E+01  0.27855316372E+02 -0.41183876427E+03  0.42318187400E+03  0.93183189443E+02 0.  0.
        -11    1    4    4    0    0 -0.16548583443E+02  0.58071425046E+02 -0.23304515888E+03  0.24074092319E+03  0.00000000000E+00 0.  1.
         11    1    4    4    0    0  0.20113030105E+02 -0.30216108675E+02 -0.17879360539E+03  0.18244095080E+03  0.00000000000E+00 0. -1.
        -11    1    3    3    0    0  0.51506854564E+02  0.31672360921E+01  0.16016018776E+02  0.54032400548E+02  0.00000000000E+00 0.  1.
         11    1    3    3    0    0 -0.35343324033E+02 -0.21197895433E+02  0.36456299016E+02  0.55023295634E+02  0.00000000000E+00 0. -1.
          1    1    1    2  501    0 -0.19727977193E+02 -0.98246570307E+01  0.15091291304E+02  0.26710747708E+02  0.00000000000E+00 0. -1.
<scales pt_clust_5="13000.00000" pt_clust_6="13000.00000" pt_clust_7="13000.00000" pt_clust_8="13000.00000" pt_clust_9="22.03900"></scales>
<clustering>
<clus scale="   22.039">  2  9  1 -1</clus>
<clus scale="   92.485">  7  8 -1 -1</clus>
<clus scale="   93.183">  5  6 -1 -1</clus>
<clus scale="   95.518">  1  7  2 -1</clus>
<clus scale="   22.039">  2  5  1 -1</clus>
</clustering>
</event>
<event>
 9    1  0.1601012E-005  0.9860202E+02  0.7546771E-02  0.1284868E+00
          2   -1    0    0  502    0 -0.00000000000E+00  0.00000000000E+00  0.50832811845E+03  0.50832811845E+03  0.00000000000E+00 0. -1.
         21   -1    0    0  501  502  0.00000000000E+00 -0.00000000000E+00 -0.53518814185E+02  0.53518814185E+02  0.00000000000E+00 0. -1.
         23    2    1    2    0    0 -0.42964624578E+02 -0.27423715880E+02  0.30911832693E+03  0.32626425748E+03  0.91083513897E+02 0.  0.
         23    2    1    2    0    0 -0.55942600119E+00  0.29548619221E+02  0.16393606420E+03  0.18834136497E+03  0.87886305845E+02 0.  0.
        -11    1    4    4    0    0  0.30092739230E+02 -0.10493736139E+02  0.24902967009E+02  0.40445632871E+02  0.00000000000E+00 0.  1.
         11    1    4    4    0    0 -0.30652165231E+02  0.40042355360E+02  0.13903309720E+03  0.14789573209E+03  0.00000000000E+00 0. -1.
        -13    1    3    3    0    0 -0.63922475250E+02  0.65263379225E+01  0.20090888250E+03  0.21093376922E+03  0.00000000000E+00 0. -1.
         13    1    3    3    0    0  0.20957850671E+02 -0.33950053802E+02  0.10820944443E+03  0.11533048826E+03  0.00000000000E+00 0.  1.
          2    1    1    2  501    0  0.43524050580E+02 -0.21249033410E+01 -0.18245086876E+02  0.47241310187E+02  0.00000000000E+00 0. -1.
<scales pt_clust_5="13000.00000" pt_clust_6="13000.00000" pt_clust_7="13000.00000" pt_clust_8="13000.00000" pt_clust_9="43.57589"></scales>
<clustering>
<clus scale="   43.576">  2  9  1 -1</clus>
<clus scale="   87.886">  5  6 -1 -1</clus>
<clus scale="   91.084">  7  8 -1 -1</clus>
<clus scale="   95.656">  2  5  1 -1</clus>
<clus scale="   43.576">  2  5  1 -1</clus>
</clustering>
</event>
<event>
 9    1  0.1601012E-005  0.9839427E+02  0.7546771E-02  0.1285241E+00
         21   -1    0    0  501  502  0.00000000000E+00  0.00000000000E+00  0.12615393893E+03  0.12615393893E+03  0.00000000000E+00 0.  1.
          4   -1    0    0  502    0 -0.00000000000E+00 -0.00000000000E+00 -0.13411599975E+03  0.13411599975E+03  0.00000000000E+00 0. -1.
         23    2    1    2    0    0  0.32479550201E+02 -0.18759757480E+01 -0.37065285571E+02  0.10441440812E+03  0.92033106880E+02 0.  0.
         23    2    1    2    0    0 -0.15256869074E+02  0.15528738209E+02 -0.22318839728E+02  0.99933733522E+02  0.94945809410E+02 0.  0.
        -11    1    3    3    0    0  0.59509146681E+01  0.43409430430E+02 -0.25416181929E+02  0.50653473123E+02  0.00000000000E+00 0.  1.
         11    1    3    3    0    0  0.26528635533E+02 -0.45285406177E+02 -0.11649103642E+02  0.53760934995E+02  0.00000000000E+00 0. -1.
        -13    1    4    4    0    0  0.28069617225E+02 -0.18175407810E+02 -0.29476237500E+02  0.44576871103E+02  0.00000000000E+00 0. -1.
         13    1    4    4    0    0 -0.43326486299E+02  0.33704146019E+02  0.71573977723E+01  0.55356862418E+02  0.00000000000E+00 0.  1.
          4    1    1    2  501    0 -0.17222681127E+02 -0.13652762461E+02  0.51422064483E+02  0.55921797035E+02  0.00000000000E+00 0. -1.
<scales pt_clust_5="13000.00000" pt_clust_6="13000.00000" pt_clust_7="13000.00000" pt_clust_8="13000.00000" pt_clust_9="21.97769"></scales>
<clustering>
<clus scale="   21.978">  1  9  2 -1</clus>
<clus scale="   92.033">  5  6 -1 -1</clus>
<clus scale="   94.946">  7  8 -1 -1</clus>
<clus scale="   95.587">  2  5  1 -1</clus>
<clus scale="   21.978">  1  5  2 -1</clus>
</clustering>
</event>
<event>
 9    1  0.1601012E-005  0.1753126E+03  0.7546771E-02  0.1181690E+00
         21   -1    0    0  501  502  0.00000000000E+00  0.00000000000E+00  0.20618456177E+03  0.20618456177E+03  0.00000000000E+00 0. -1.
          1   -1    0    0  502    0 -0.00000000000E+00 -0.00000000000E+00 -0.76817165827E+03  0.76817165827E+03  0.00000000000E+00 0. -1.
         23    2    1    2    0    0  0.96656926312E+02 -0.53982085781E+02 -0.11782776743E+03  0.18465718592E+03  0.89209116946E+02 0.  0.
         23    2    1    2    0    0 -0.15871513732E+03 -0.80968862000E+02 -0.56399755809E+03  0.59884783293E+03  0.93696478311E+02 0.  0.
        -13    1    4    4    0    0 -0.93182942088E+02  0.41224852164E+01 -0.28596148871E+03  0.30078901011E+03  0.00000000000E+00 0. -1.
         13    1    4    4    0    0 -0.65532195232E+02 -0.85091347216E+02 -0.27803606938E+03  0.29805882282E+03  0.00000000000E+00 0.  1.
        -13    1    3    3    0    0  0.75474159296E+02 -0.60849188729E+02 -0.12767264606E+03  0.16030994056E+03  0.00000000000E+00 0.  1.
         13    1    3    3    0    0  0.21182767016E+02  0.68671029481E+01  0.98448786335E+01  0.24347245360E+02  0.00000000000E+00 0. -1.
          1    1    1    2  501    0  0.62058211009E+02  0.13495094778E+03  0.11983822901E+03  0.19085120119E+03  0.00000000000E+00 0. -1.
<scales pt_clust_5="13000.00000" pt_clust_6="13000.00000" pt_clust_7="13000.00000" pt_clust_8="13000.00000" pt_clust_9="148.17383"></scales>
<clustering>
<clus scale="   89.209">  7  8 -1 -1</clus>
<clus scale="   93.696">  5  6 -1 -1</clus>
<clus scale="  142.179">  2  7  1 -1</clus>
<clus scale="  148.174">  1  9  2 -1</clus>
<clus scale="  148.174">  1  5  2 -1</clus>
</clustering>
</event>
<event>
 9    1  0.1601012E-005  0.1437182E+03  0.7546771E-02  0.1209108E+00
         21   -1    0    0  501  502  0.00000000000E+00  0.00000000000E+00  0.30103681110E+03  0.30103681110E+03  0.00000000000E+00 0.  1.
         -1   -1    0    0    0  501 -0.00000000000E+00 -0.00000000000E+00 -0.18059959694E+03  0.18059959694E+03  0.00000000000E+00 0.  1.
         23    2    1    2    0    0  0.18118748371E+02 -0.12877742039E+03  0.19080158836E+01  0.15870834379E+03  0.90954850438E+02 0.  0.
         23    2    1    2    0    0 -0.12767538333E+03  0.39081045397E+02  0.44783687328E+02  0.16328315725E+03  0.82628561484E+02 0.  0.
        -13    1    3    3    0    0 -0.30401334613E+02 -0.87654616537E+02 -0.12154365314E+02  0.93569768316E+02  0.00000000000E+00 0.  1.
         13    1    3    3    0    0  0.48520082984E+02 -0.41122803857E+02  0.14062381198E+02  0.65138575474E+02  0.00000000000E+00 0. -1.
        -13    1    4    4    0    0 -0.31638264295E+02 -0.25586086454E+02  0.17730770530E+02  0.44384770037E+02  0.00000000000E+00 0. -1.
         13    1    4    4    0    0 -0.96037119030E+02  0.64667131851E+02  0.27052916797E+02  0.11889838721E+03  0.00000000000E+00 0.  1.
         -1    1    1    2    0  502  0.10955663495E+03  0.89696374996E+02  0.73745510946E+02  0.15964490701E+03  0.00000000000E+00 0.  1.
<scales pt_clust_5="13000.00000" pt_clust_6="13000.00000" pt_clust_7="13000.00000" pt_clust_8="13000.00000" pt_clust_9="141.59130"></scales>
<clustering>
<clus scale="   82.629">  7  8 -1 -1</clus>
<clus scale="   90.955">  5  6 -1 -1</clus>
<clus scale="  141.591">  1  9  2 -1</clus>
<clus scale="  141.591">  1  7  2 -1</clus>
<clus scale="  141.591">  1  5  2 -1</clus>
</clustering>
</event>
<event>
 9    1  0.1601012E-005  0.9964540E+02  0.7546771E-02  0.1281369E+00
          1   -1    0    0  502    0 -0.00000000000E+00  0.00000000000E+00  0.23962700555E+03  0.23962700555E+03  0.00000000000E+00 0. -1.
         21   -1    0    0  501  502  0.00000000000E+00 -0.00000000000E+00 -0.10313466909E+03  0.10313466909E+03  0.00000000000E+00 0.  1.
         23    2    1    2    0    0 -0.26528526270E+02 -0.21430658191E+02  0.15224513476E+03  0.18074456131E+03  0.91252285273E+02 0.  0.
         23    2    1    2    0    0  0.55254178682E+02  0.46083165443E+02 -0.33180750849E+02  0.12034406748E+03  0.90581730780E+02 0.  0.
        -11    1    4    4    0    0  0.74168899198E+02  0.12345415561E+02 -0.11678661339E+02  0.76090906318E+02  0.00000000000E+00 0.  1.
         11    1    4    4    0    0 -0.18914720516E+02  0.33737749882E+02 -0.21502089511E+02  0.44253161159E+02  0.00000000000E+00 0. -1.
        -13    1    3    3    0    0 -0.40361581160E+02  0.25614752808E+02  0.84978850014E+02  0.97501680728E+02  0.00000000000E+00 0. -1.
         13    1    3    3    0    0  0.13833054890E+02 -0.47045410999E+02  0.67266284745E+02  0.83242880579E+02  0.00000000000E+00 0.  1.
          1    1    1    2  501    0 -0.28725652412E+02 -0.24652507251E+02  0.17427952553E+02  0.41673045850E+02  0.00000000000E+00 0. -1.
<scales pt_clust_5="13000.00000" pt_clust_6="13000.00000" pt_clust_7="13000.00000" pt_clust_8="13000.00000" pt_clust_9="37.85381"></scales>
<clustering>
<clus scale="   37.854">  2  9  1 -1</clus>
<clus scale="   90.582">  5  6 -1 -1</clus>
<clus scale="   91.252">  7  8 -1 -1</clus>
<clus scale="   99.032">  2  5  1 -1</clus>
<clus scale="   37.854">  2  5  1 -1</clus>
</clustering>
</event>
<event>
 9    1  0.1601012E-005  0.9397279E+02  0.7546771E-02  0.1297034E+00
         21   -1    0    0  501  502  0.00000000000E+00  0.00000000000E+00  0.21587011879E+03  0.21587011879E+03  0.00000000000E+00 0.  1.
         -1   -1    0    0    0  501 -0.00000000000E+00 -0.00000000000E+00 -0.20234134399E+03  0.20234134399E+03  0.00000000000E+00 0.  1.
         23    2    1    2    0    0 -0.93178349214E+01  0.17680557019E+02 -0.94912075237E+02  0.13413606116E+03  0.92653962325E+02 0.  0.
         23    2    1    2    0    0 -0.14296110483E+02 -0.13202725513E+02 -0.64341197275E+02  0.10962969297E+03  0.86603632589E+02 0.  0.
        -11    1    3    3    0    0 -0.41543924480E+02 -0.18753831523E+02 -0.53226638487E+02  0.70076236362E+02  0.00000000000E+00 0.  1.
         11    1    3    3    0    0  0.32226089558E+02  0.36434388542E+02 -0.41685436749E+02  0.64059824802E+02  0.00000000000E+00 0. -1.
        -11    1    4    4    0    0 -0.20414564515E+02  0.11833151084E+02  0.13808738371E+02  0.27339699419E+02  0.00000000000E+00 0. -1.
         11    1    4    4    0    0  0.61184540322E+01 -0.25035876597E+02 -0.78149935646E+02  0.82289993549E+02  0.00000000000E+00 0.  1.
         -1    1    1    2    0  502  0.23613945404E+02 -0.44778315062E+01  0.17278204731E+03  0.17444570865E+03  0.00000000000E+00 0.  1.
<scales pt_clust_5="13000.00000" pt_clust_6="13000.00000" pt_clust_7="13000.00000" pt_clust_8="13000.00000" pt_clust_9="24.03475"></scales>
<clustering>
<clus scale="   24.035">  1  9  2 -1</clus>
<clus scale="   86.604">  7  8 -1 -1</clus>
<clus scale="   88.013">  1  7  2 -1</clus>
<clus scale="   92.654">  5  6 -1 -1</clus>
<clus scale="   24.035">  1  5  2 -1</clus>
</clustering>
</event>
<event>
 9    1  0.1601012E-005  0.1006778E+03  0.7546771E-02  0.1281237E+00
         -1   -1    0    0    0  501 -0.00000000000E+00  0.00000000000E+00  0.10289963940E+03  0.10289963940E+03  0.00000000000E+00 0.  1.
         21   -1    0    0  501  502  0.00000000000E+00 -0.00000000000E+00 -0.22587192604E+03  0.22587192604E+03  0.00000000000E+00 0. -1.
         23    2    1    2    0    0 -0.15046835681E+02  0.45353286433E+02  0.36852982997E+01  0.10307774583E+03  0.91258492246E+02 0.  0.
         23    2    1    2    0    0 -0.17020372046E+02 -0.14800704173E+02 -0.77800744955E+01  0.98833153598E+02  0.95909899293E+02 0.  0.
        -13    1    3    3    0    0 -0.57866076757E+01 -0.24801063621E+02 -0.15432083024E+02  0.29777957814E+02  0.00000000000E+00 0. -1.
         13    1    3    3    0    0 -0.92602280048E+01  0.70154350054E+02  0.19117381323E+02  0.73299788013E+02  0.00000000000E+00 0.  1.
        -13    1    4    4    0    0  0.23951851788E+02 -0.42456083909E+02  0.28572561938E+00  0.48747224578E+02  0.00000000000E+00 0.  1.
         13    1    4    4    0    0 -0.40972223834E+02  0.27655379736E+02 -0.80658001148E+01  0.50085929020E+02  0.00000000000E+00 0. -1.
         -1    1    1    2    0  502  0.32067207727E+02 -0.30552582260E+02 -0.11887751044E+03  0.12686066602E+03  0.00000000000E+00 0.  1.
<scales pt_clust_5="13000.00000" pt_clust_6="13000.00000" pt_clust_7="13000.00000" pt_clust_8="13000.00000" pt_clust_9="44.29183"></scales>
<clustering>
<clus scale="   44.292">  2  9  1 -1</clus>
<clus scale="   91.258">  5  6 -1 -1</clus>
<clus scale="   95.910">  7  8 -1 -1</clus>
<clus scale="   96.257">  1  5  2 -1</clus>
<clus scale="   44.292">  2  5  1 -1</clus>
</clustering>
</event>
<event>
 9    1  0.1601012E-005  0.1008753E+03  0.7546771E-02  0.1280648E+00
         21   -1    0    0  501  502  0.00000000000E+00  0.00000000000E+00  0.22486777295E+03  0.22486777295E+03  0.00000000000E+00 0.  1.
         -1   -1    0    0    0  501 -0.00000000000E+00 -0.00000000000E+00 -0.16406176710E+03  0.16406176710E+03  0.00000000000E+00 0.  1.
         23    2    1    2    0    0 -0.17789563772E+02 -0.27165529971E+02 -0.11123224716E+03  0.14618501595E+03  0.89123574222E+02 0.  0.
         23    2    1    2    0    0  0.53856319658E+02  0.53112937860E+02  0.92979757147E+02  0.15205646190E+03  0.93565191347E+02 0.  0.
        -13    1    4    4    0    0 -0.34661920527E+01  0.61295083629E+02  0.57698752191E+02  0.84251099512E+02  0.00000000000E+00 0.  1.
         13    1    4    4    0    0  0.57322511711E+02 -0.81821457694E+01  0.35281004956E+02  0.67805362391E+02  0.00000000000E+00 0. -1.
        -13    1    3    3    0    0 -0.20197361947E+02  0.30201292720E+02 -0.32551451767E+02  0.48781641257E+02  0.00000000000E+00 0. -1.
         13    1    3    3    0    0  0.24077981748E+01 -0.57366822692E+02 -0.78680795393E+02  0.97403374692E+02  0.00000000000E+00 0.  1.
         -1    1    1    2    0  502 -0.36066755886E+02 -0.25947407889E+02  0.79058495866E+02  0.90688062197E+02  0.00000000000E+00 0.  1.
<scales pt_clust_5="13000.00000" pt_clust_6="13000.00000" pt_clust_7="13000.00000" pt_clust_8="13000.00000" pt_clust_9="44.43061"></scales>
<clustering>
<clus scale="   44.431">  1  9  2 -1</clus>
<clus scale="   89.124">  7  8 -1 -1</clus>
<clus scale="   93.565">  5  6 -1 -1</clus>
<clus scale="   96.770">  2  7  1 -1</clus>
<clus scale="   44.431">  1  5  2 -1</clus>
</clustering>
</event>
<event>
 9    1  0.1601012E-005  0.1191571E+03  0.7546771E-02  0.1244692E+00
         21   -1    0    0  501  502  0.00000000000E+00  0.00000000000E+00  0.40944415898E+03  0.40944415898E+03  0.00000000000E+00 0. -1.
          1   -1    0    0  502    0 -0.00000000000E+00 -0.00000000000E+00 -0.10101882174E+03  0.10101882174E+03  0.00000000000E+00 0. -1.
         23    2    1    2    0    0 -0.28135913752E+02  0.78625973363E+02 -0.97380533496E+01  0.12460269854E+03  0.91963739971E+02 0.  0.
         23    2    1    2    0    0  0.43893806371E+02 -0.49298289300E+02  0.64159646400E+02  0.12968392438E+03  0.91348084005E+02 0.  0.
        -11    1    3    3    0    0  0.27488009770E+02  0.57925178991E+02 -0.11904162349E+02  0.65212162390E+02  0.00000000000E+00 0. -1.
         11    1    3    3    0    0 -0.55623923522E+02  0.20700794372E+02  0.21661089994E+01  0.59390536147E+02  0.00000000000E+00 0.  1.
        -13    1    4    4    0    0  0.48092824248E+02  0.10610380603E+02  0.44820911126E+02  0.66591395802E+02  0.00000000000E+00 0. -1.
         13    1    4    4    0    0 -0.41990178763E+01 -0.59908669903E+02  0.19338735274E+02  0.63092528580E+02  0.00000000000E+00 0.  1.
          1    1    1    2  501    0 -0.15757892619E+02 -0.29327684064E+02  0.25400374420E+03  0.25617635780E+03  0.00000000000E+00 0. -1.
<scales pt_clust_5="13000.00000" pt_clust_6="13000.00000" pt_clust_7="13000.00000" pt_clust_8="13000.00000" pt_clust_9="33.29301"></scales>
<clustering>
<clus scale="   33.293">  1  9  2 -1</clus>
<clus scale="   91.348">  7  8 -1 -1</clus>
<clus scale="   91.964">  5  6 -1 -1</clus>
<clus scale="  118.683">  1  7  2 -1</clus>
<clus scale="   33.293">  1  5  2 -1</clus>
</clustering>
</event>
<event>
 9    1  0.1601012E-005  0.1236172E+03  0.7546771E-02  0.1237252E+00
         -4   -1    0    0    0  501 -0.00000000000E+00  0.00000000000E+00  0.91980208259E+02  0.91980208259E+02  0.00000000000E+00 0.  1.
         21   -1    0    0  501  502  0.00000000000E+00 -0.00000000000E+00 -0.27312289013E+03  0.27312289013E+03  0.00000000000E+00 0.  1.
         23    2    1    2    0    0  0.10079516385E+03  0.61163686119E+01 -0.30481165751E+02  0.14145234337E+03  0.94247487810E+02 0.  0.
         23    2    1    2    0    0 -0.54231835279E+02  0.14997583105E+02 -0.77336143907E+02  0.13426086333E+03  0.94228874620E+02 0.  0.
        -11    1    3    3    0    0  0.92391512070E+02  0.38449278486E+02 -0.64126143488E+01  0.10027791453E+03  0.00000000000E+00 0.  1.
         11    1    3    3    0    0  0.84036517833E+01 -0.32332909874E+02 -0.24068551403E+02  0.41174428847E+02  0.00000000000E+00 0. -1.
        -13    1    4    4    0    0  0.21720859677E+02 -0.12079180315E+02 -0.35732297798E+02  0.43525848046E+02  0.00000000000E+00 0.  1.
         13    1    4    4    0    0 -0.75952694956E+02  0.27076763420E+02 -0.41603846109E+02  0.90735015289E+02  0.00000000000E+00 0. -1.
         -4    1    1    2    0  502 -0.46563328574E+02 -0.21113951717E+02 -0.73325372217E+02  0.89389891687E+02  0.00000000000E+00 0.  1.
<scales pt_clust_5="13000.00000" pt_clust_6="13000.00000" pt_clust_7="13000.00000" pt_clust_8="13000.00000" pt_clust_9="51.12673"></scales>
<clustering>
<clus scale="   51.127">  2  9  1 -1</clus>
<clus scale="   94.229">  7  8 -1 -1</clus>
<clus scale="   94.247">  5  6 -1 -1</clus>
<clus scale="  123.603">  2  7  1 -1</clus>
<clus scale="   51.127">  2  5  1 -1</clus>
</clustering>
</event>
<event>
 9    1  0.1601012E-005  0.1565849E+03  0.7546771E-02  0.1193131E+00
         -3   -1    0    0    0  501 -0.00000000000E+00  0.00000000000E+00  0.44182915409E+03  0.44182915409E+03  0.00000000000E+00 0.  1.
         21   -1    0    0  501  502  0.00000000000E+00 -0.00000000000E+00 -0.12685570172E+03  0.12685570172E+03  0.00000000000E+00 0.  1.
         23    2    1    2    0    0  0.10303846013E+03  0.63726806872E+02  0.30038950073E+03  0.33602015312E+03  0.89429642589E+02 0.  0.
         23    2    1    2    0    0 -0.13297549422E+03 -0.59270125782E+02  0.56016752645E+02  0.18135422602E+03  0.92498912672E+02 0.  0.
        -13    1    4    4    0    0 -0.28853734032E+02  0.23784608303E+02  0.14525664817E+01  0.37421324256E+02  0.00000000000E+00 0.  1.
         13    1    4    4    0    0 -0.10412176019E+03 -0.83054734085E+02  0.54564186164E+02  0.14393290177E+03  0.00000000000E+00 0. -1.
        -13    1    3    3    0    0  0.47009199669E+01  0.49181339634E+02  0.12514640569E+03  0.13454562674E+03  0.00000000000E+00 0.  1.
         13    1    3    3    0    0  0.98337540159E+02  0.14545467238E+02  0.17524309505E+03  0.20147452639E+03  0.00000000000E+00 0. -1.
         -3    1    1    2    0  502  0.29937034098E+02 -0.44566810901E+01 -0.41432801003E+02  0.51310476668E+02  0.00000000000E+00 0.  1.
<scales pt_clust_5="13000.00000" pt_clust_6="13000.00000" pt_clust_7="13000.00000" pt_clust_8="13000.00000" pt_clust_9="30.26695"></scales>
<clustering>
<clus scale="   30.267">  2  9  1 -1</clus>
<clus scale="   89.430">  7  8 -1 -1</clus>
<clus scale="   92.499">  5  6 -1 -1</clus>
<clus scale="  154.792">  1  7  2 -1</clus>
<clus scale="   30.267">  2  5  1 -1</clus>
</clustering>
</event>
<event>
 9    1  0.1918340E-005  0.9800672E+02  0.7546771E-02  0.1285385E+00
         21   -1    0    0  501  502  0.00000000000E+00  0.00000000000E+00  0.36693328927E+03  0.36693328927E+03  0.00000000000E+00 0.  1.
         -1   -1    0    0    0  501 -0.00000000000E+00 -0.00000000000E+00 -0.51516452705E+03  0.51516452705E+03  0.00000000000E+00 0.  1.
         23    2    1    2    0    0 -0.11855195511E+02 -0.30781191760E+02 -0.33858313048E+03  0.35218384866E+03  0.91142194348E+02 0.  0.
         23    2    1    2    0    0  0.49226017788E+02  0.36383880269E+00 -0.15168719909E+03  0.18449750303E+03  0.92773859734E+02 0.  0.
        -11    1    4    4    0    0  0.21233084444E+02 -0.36755206696E+02 -0.12239808184E+03  0.12954952540E+03  0.00000000000E+00 0.  1.
         11    1    4    4    0    0  0.27992933345E+02  0.37119045498E+02 -0.29289117256E+02  0.54947977630E+02  0.00000000000E+00 0. -1.
        -13    1    3    3    0    0 -0.34572038185E+02  0.18818913975E+02 -0.10057237902E+03  0.10800083689E+03  0.00000000000E+00 0. -1.
         13    1    3    3    0    0  0.22716842675E+02 -0.49600105735E+02 -0.23801075146E+03  0.24418301177E+03  0.00000000000E+00 0.  1.
         -1    1    1    2    0  502 -0.37370822278E+02  0.30417352957E+02  0.34203909179E+03  0.34541646462E+03  0.00000000000E+00 0.  1.
<scales pt_clust_5="13000.00000" pt_clust_6="13000.00000" pt_clust_7="13000.00000" pt_clust_8="13000.00000" pt_clust_9="48.18499"></scales>
<clustering>
<clus scale="   48.185">  1  9  2 -1</clus>
<clus scale="   91.142">  7  8 -1 -1</clus>
<clus scale="   92.774">  5  6 -1 -1</clus>
<clus scale="   96.464">  2  7  1 -1</clus>
<clus scale="   48.185">  1  5  2 -1</clus>
</clustering>
</event>
<event>
 9    1  0.1601012E-005  0.2086949E+03  0.7546771E-02  0.1142751E+00
          2   -1    0    0  502    0 -0.00000000000E+00  0.00000000000E+00  0.16057896766E+04  0.16057896766E+04  0.00000000000E+00 0. -1.
         21   -1    0    0  501  502  0.00000000000E+00 -0.00000000000E+00 -0.51237383993E+02  0.51237383993E+02  0.00000000000E+00 0. -1.
         23    2    1    2    0    0  0.76531171472E+02  0.21062986885E+03  0.81954283885E+03  0.85439695382E+03  0.90120630979E+02 0.  0.
         23    2    1    2    0    0 -0.70378954996E+02 -0.10791060083E+03  0.18652682321E+03  0.24457787463E+03  0.91805151829E+02 0.  0.
        -11    1    4    4    0    0 -0.70338371862E+02 -0.31339705823E+02  0.12285287220E+03  0.14499135121E+03  0.00000000000E+00 0.  1.
         11    1    4    4    0    0 -0.40583134459E-01 -0.76570895012E+02  0.63673951010E+02  0.99586523421E+02  0.00000000000E+00 0. -1.
        -13    1    3    3    0    0  0.82460979801E+02  0.11734162522E+03  0.57447764072E+03  0.59210930569E+03  0.00000000000E+00 0. -1.
         13    1    3    3    0    0 -0.59298083290E+01  0.93288243629E+02  0.24506519813E+03  0.26228764812E+03  0.00000000000E+00 0.  1.
          2    1    1    2  501    0 -0.61522164765E+01 -0.10271926801E+03  0.54848263051E+03  0.55805223211E+03  0.00000000000E+00 0. -1.
<scales pt_clust_5="13000.00000" pt_clust_6="13000.00000" pt_clust_7="13000.00000" pt_clust_8="13000.00000" pt_clust_9="102.90339"></scales>
<clustering>
<clus scale="   90.121">  7  8 -1 -1</clus>
<clus scale="   91.805">  5  6 -1 -1</clus>
<clus scale="  102.903">  2  9  1 -1</clus>
<clus scale="  207.959">  1  7  2 -1</clus>
<clus scale="  102.903">  2  5  1 -1</clus>
</clustering>
</event>
<event>
 9    1  0.1601012E-005  0.1178916E+03  0.7546771E-02  0.1246878E+00
          2   -1    0    0  502    0 -0.00000000000E+00  0.00000000000E+00  0.11045192675E+03  0.11045192675E+03  0.00000000000E+00 0. -1.
         21   -1    0    0  501  502  0.00000000000E+00 -0.00000000000E+00 -0.44375331969E+03  0.44375331969E+03  0.00000000000E+00 0.  1.
         23    2    1    2    0    0  0.46127565918E+02 -0.52493206906E+02  0.41765650049E+02  0.12247613508E+03  0.91502705053E+02 0.  0.
         23    2    1    2    0    0 -0.27740253244E+02  0.89202947607E+02 -0.13559035118E+03  0.18875836364E+03  0.92294577300E+02 0.  0.
        -13    1    3    3    0    0  0.88646083892E+00 -0.25191972420E+02 -0.26219187007E+02  0.36371239387E+02  0.00000000000E+00 0.  1.
         13    1    3    3    0    0  0.45241105079E+02 -0.27301234486E+02  0.67984837056E+02  0.86104895696E+02  0.00000000000E+00 0. -1.
        -13    1    4    4    0    0 -0.49912177603E+02  0.57232249740E+02 -0.40604497644E+02  0.86113187796E+02  0.00000000000E+00 0.  1.
         13    1    4    4    0    0  0.22171924359E+02  0.31970697866E+02 -0.94985853540E+02  0.10264517585E+03  0.00000000000E+00 0. -1.
          2    1    1    2  501    0 -0.18387312674E+02 -0.36709740701E+02 -0.23947669181E+03  0.24297074772E+03  0.00000000000E+00 0. -1.
<scales pt_clust_5="13000.00000" pt_clust_6="13000.00000" pt_clust_7="13000.00000" pt_clust_8="13000.00000" pt_clust_9="41.05726"></scales>
<clustering>
<clus scale="   41.057">  2  9  1 -1</clus>
<clus scale="   91.503">  5  6 -1 -1</clus>
<clus scale="   92.295">  7  8 -1 -1</clus>
<clus scale="  117.273">  1  5  2 -1</clus>
<clus scale="   41.057">  2  5  1 -1</clus>
</clustering>
</event>
<event>
 9    1  0.1601012E-005  0.1448963E+03  0.7546771E-02  0.1206999E+00
         21   -1    0    0  501  502  0.00000000000E+00  0.00000000000E+00  0.43604460105E+02  0.43604460105E+02  0.00000000000E+00 0.  1.
          1   -1    0    0  502    0 -0.00000000000E+00 -0.00000000000E+00 -0.71216560458E+03  0.71216560458E+03  0.00000000000E+00 0. -1.
         23    2    1    2    0    0 -0.73639485737E+02 -0.75835523131E+02 -0.41737325776E+03  0.44000367453E+03  0.90713818567E+02 0.  0.
         23    2    1    2    0    0  0.84997643635E+02  0.95110223634E+02 -0.24810463996E+03  0.29318258531E+03  0.90164083198E+02 0.  0.
        -11    1    3    3    0    0 -0.50948417059E+02 -0.98079387446E+01 -0.29134264446E+03  0.29592646611E+03  0.00000000000E+00 0.  1.
         11    1    3    3    0    0 -0.22691068678E+02 -0.66027584386E+02 -0.12603061330E+03  0.14407720842E+03  0.00000000000E+00 0. -1.
        -13    1    4    4    0    0  0.71815615023E+02  0.11238592003E+03 -0.22424988825E+03  0.26091395126E+03  0.00000000000E+00 0.  1.
         13    1    4    4    0    0  0.13182028611E+02 -0.17275696400E+02 -0.23854751706E+02  0.32268634049E+02  0.00000000000E+00 0. -1.
          1    1    1    2  501    0 -0.11358157897E+02 -0.19274700503E+02 -0.30832467489E+01  0.22583804835E+02  0.00000000000E+00 0. -1.
<scales pt_clust_5="13000.00000" pt_clust_6="13000.00000" pt_clust_7="13000.00000" pt_clust_8="13000.00000" pt_clust_9="22.37235"></scales>
<clustering>
<clus scale="   22.372">  1  9  2 -1</clus>
<clus scale="   90.164">  7  8 -1 -1</clus>
<clus scale="   90.714">  5  6 -1 -1</clus>
<clus scale="  144.553">  1  7  2 -1</clus>
<clus scale="   22.372">  1  5  2 -1</clus>
</clustering>
</event>
<event>
 9    1  0.1601012E-005  0.1204626E+03  0.7546771E-02  0.1246163E+00
          1   -1    0    0  502    0 -0.00000000000E+00  0.00000000000E+00  0.92672136611E+03  0.92672136611E+03  0.00000000000E+00 0. -1.
         21   -1    0    0  501  502  0.00000000000E+00 -0.00000000000E+00 -0.56509122216E+02  0.56509122216E+02  0.00000000000E+00 0. -1.
         23    2    1    2    0    0  0.14927188317E+02  0.43827715504E+02  0.35418792178E+03  0.36858180946E+03  0.90883313847E+02 0.  0.
         23    2    1    2    0    0 -0.41349189298E+02 -0.74610309301E+02  0.54746729322E+03  0.56332275318E+03  0.10166431719E+03 0.  0.
        -11    1    4    4    0    0  0.33089275411E+02 -0.26006523171E+02  0.22076002787E+03  0.22473591012E+03  0.00000000000E+00 0. -1.
         11    1    4    4    0    0 -0.74438464709E+02 -0.48603786129E+02  0.32670726535E+03  0.33858684305E+03  0.00000000000E+00 0.  1.
        -13    1    3    3    0    0  0.49962916358E+02  0.43834448255E+02  0.24866048984E+03  0.25739034767E+03  0.00000000000E+00 0. -1.
         13    1    3    3    0    0 -0.35035728041E+02 -0.67327508575E-02  0.10552743194E+03  0.11119146180E+03  0.00000000000E+00 0.  1.
          1    1    1    2  501    0  0.26422000981E+02  0.30782593797E+02 -0.31442971099E+02  0.51325925693E+02  0.00000000000E+00 0. -1.
<scales pt_clust_5="13000.00000" pt_clust_6="13000.00000" pt_clust_7="13000.00000" pt_clust_8="13000.00000" pt_clust_9="40.56711"></scales>
<clustering>
<clus scale="   40.567">  2  9  1 -1</clus>
<clus scale="   90.883">  7  8 -1 -1</clus>
<clus scale="  101.664">  5  6 -1 -1</clus>
<clus scale="  111.514">  1  7  2 -1</clus>
<clus scale="   40.567">  2  5  1 -1</clus>
</clustering>
</event>
<event>
 9    1  0.1601012E-005  0.1510220E+03  0.7546771E-02  0.1199250E+00
         21   -1    0    0  501  502  0.00000000000E+00  0.00000000000E+00  0.53526430374E+02  0.53526430374E+02  0.00000000000E+00 0. -1.
          2   -1    0    0  502    0 -0.00000000000E+00 -0.00000000000E+00 -0.61377508369E+03  0.61377508369E+03  0.00000000000E+00 0. -1.
         23    2    1    2    0    0 -0.66132212927E+02 -0.82102495050E+02 -0.28277681243E+03  0.31507309225E+03  0.90520928673E+02 0.  0.
         23    2    1    2    0    0  0.95753216744E+02  0.11233355467E+03 -0.23789194001E+03  0.29428112347E+03  0.90671376336E+02 0.  0.
        -13    1    3    3    0    0  0.56902354053E+01 -0.62986037117E+02 -0.15237396536E+03  0.16497710438E+03  0.00000000000E+00 0. -1.
         13    1    3    3    0    0 -0.71822448332E+02 -0.19116457934E+02 -0.13040284707E+03  0.15009598786E+03  0.00000000000E+00 0.  1.
        -13    1    4    4    0    0  0.20123862497E+01  0.20800862920E+02 -0.10722364498E+03  0.10924118106E+03  0.00000000000E+00 0.  1.
         13    1    4    4    0    0  0.93740830494E+02  0.91532691748E+02 -0.13066829503E+03  0.18503994241E+03  0.00000000000E+00 0. -1.
          2    1    1    2  501    0 -0.29621003817E+02 -0.30231059617E+02 -0.39579900871E+02  0.57947298346E+02  0.00000000000E+00 0. -1.
<scales pt_clust_5="13000.00000" pt_clust_6="13000.00000" pt_clust_7="13000.00000" pt_clust_8="13000.00000" pt_clust_9="42.32400"></scales>
<clustering>
<clus scale="   42.324">  1  9  2 -1</clus>
<clus scale="   90.521">  5  6 -1 -1</clus>
<clus scale="   90.671">  7  8 -1 -1</clus>
<clus scale="  150.932">  2  5  1 -1</clus>
<clus scale="   42.324">  1  5  2 -1</clus>
</clustering>
</event>
<event>
 9    1  0.1601012E-005  0.1060727E+03  0.7546771E-02  0.1268322E+00
         21   -1    0    0  501  502  0.00000000000E+00  0.00000000000E+00  0.29883199806E+02  0.29883199806E+02  0.00000000000E+00 0. -1.
          1   -1    0    0  502    0 -0.00000000000E+00 -0.00000000000E+00 -0.49502771099E+03  0.49502771099E+03  0.00000000000E+00 0. -1.
         23    2    1    2    0    0  0.49755887130E+02  0.20910259845E+02 -0.22998741707E+03  0.25286171172E+03  0.90177302980E+02 0.  0.
         23    2    1    2    0    0 -0.59947026650E+02 -0.14124565058E+01 -0.22112930748E+03  0.24595700757E+03  0.89448520993E+02 0.  0.
        -11    1    4    4    0    0  0.21191604833E+02  0.12897604399E+01 -0.20447878401E+02  0.29476487723E+02  0.00000000000E+00 0.  1.
         11    1    4    4    0    0 -0.81138631483E+02 -0.27022169456E+01 -0.20068142908E+03  0.21648051985E+03  0.00000000000E+00 0. -1.
        -13    1    3    3    0    0  0.35800700777E+02  0.48473593986E+02 -0.20327820861E+03  0.21202219126E+03  0.00000000000E+00 0. -1.
         13    1    3    3    0    0  0.13955186352E+02 -0.27563334141E+02 -0.26709208462E+02  0.40839520464E+02  0.00000000000E+00 0.  1.
          1    1    1    2  501    0  0.10191139520E+02 -0.19497803339E+02 -0.14027786630E+02  0.26092191505E+02  0.00000000000E+00 0. -1.
<scales pt_clust_5="13000.00000" pt_clust_6="13000.00000" pt_clust_7="13000.00000" pt_clust_8="13000.00000" pt_clust_9="22.00054"></scales>
<clustering>
<clus scale="   22.001">  1  9  2 -1</clus>
<clus scale="   89.449">  5  6 -1 -1</clus>
<clus scale="   90.177">  7  8 -1 -1</clus>
<clus scale="  105.454">  1  5  2 -1</clus>
<clus scale="   22.001">  1  5  2 -1</clus>
</clustering>
</event>
<event>
 9    1  0.1601012E-005  0.1299692E+03  0.7546771E-02  0.1228126E+00
         21   -1    0    0  501  502  0.00000000000E+00  0.00000000000E+00  0.46094561201E+03  0.46094561201E+03  0.00000000000E+00 0.  1.
          1   -1    0    0  502    0 -0.00000000000E+00 -0.00000000000E+00 -0.58571031498E+02  0.58571031498E+02  0.00000000000E+00 0. -1.
         23    2    1    2    0    0  0.10279451773E+03 -0.21270577767E+02  0.12824347410E+03  0.18970147882E+03  0.92309869804E+02 0.  0.
         23    2    1    2    0    0 -0.53074718611E+02  0.56383804253E+02  0.19103715408E+03  0.22681224234E+03  0.94617862465E+02 0.  0.
        -11    1    4    4    0    0 -0.47039149756E+02  0.77090243892E+02  0.18248893139E+03  0.20361187930E+03  0.00000000000E+00 0.  1.
         11    1    4    4    0    0 -0.60355688549E+01 -0.20706439639E+02  0.85482226956E+01  0.23200363040E+02  0.00000000000E+00 0. -1.
        -13    1    3    3    0    0  0.79150611838E+02 -0.60910039196E+01  0.13862632017E+03  0.15974722636E+03  0.00000000000E+00 0.  1.
         13    1    3    3    0    0  0.23643905892E+02 -0.15179573848E+02 -0.10382846075E+02  0.29954252463E+02  0.00000000000E+00 0. -1.
          1    1    1    2  501    0 -0.49719799119E+02 -0.35113226486E+02  0.83093952328E+02  0.10300292235E+03  0.00000000000E+00 0. -1.
<scales pt_clust_5="13000.00000" pt_clust_6="13000.00000" pt_clust_7="13000.00000" pt_clust_8="13000.00000" pt_clust_9="60.86869"></scales>
<clustering>
<clus scale="   60.869">  1  9  2 -1</clus>
<clus scale="   92.310">  7  8 -1 -1</clus>
<clus scale="   94.618">  5  6 -1 -1</clus>
<clus scale="  128.299">  2  7  1 -1</clus>
<clus scale="   60.869">  1  5  2 -1</clus>
</clustering>
</event>
<event>
 9    1  0.1601012E-005  0.9666887E+02  0.7546771E-02  0.1287831E+00
         21   -1    0    0  501  502  0.00000000000E+00  0.00000000000E+00  0.99093322043E+02  0.99093322043E+02  0.00000000000E+00 0.  1.
          1   -1    0    0  502    0 -0.00000000000E+00 -0.00000000000E+00 -0.16605574750E+03  0.16605574750E+03  0.00000000000E+00 0. -1.
         23    2    1    2    0    0 -0.32865399757E+02 -0.89867196257E+01 -0.63176097897E+02  0.11607983946E+03  0.91227266503E+02 0.  0.
         23    2    1    2    0    0  0.43063348369E+01  0.38578209941E+02 -0.24885799274E+02  0.10284732840E+03  0.91931752689E+02 0.  0.
        -11    1    3    3    0    0 -0.22012462472E+02  0.26246678359E+02  0.86623061469E+01  0.35333725769E+02  0.00000000000E+00 0.  1.
         11    1    3    3    0    0 -0.10852937286E+02 -0.35233397984E+02 -0.71838404044E+02  0.80746113695E+02  0.00000000000E+00 0. -1.
        -11    1    4    4    0    0  0.34876580831E+02  0.20235646176E+02 -0.46191723814E+02  0.61315027648E+02  0.00000000000E+00 0. -1.
         11    1    4    4    0    0 -0.30570245994E+02  0.18342563764E+02  0.21305924540E+02  0.41532300756E+02  0.00000000000E+00 0.  1.
          1    1    1    2  501    0  0.28559064921E+02 -0.29591490315E+02  0.21099471712E+02  0.46221901678E+02  0.00000000000E+00 0. -1.
<scales pt_clust_5="13000.00000" pt_clust_6="13000.00000" pt_clust_7="13000.00000" pt_clust_8="13000.00000" pt_clust_9="41.12513"></scales>
<clustering>
<clus scale="   41.125">  1  9  2 -1</clus>
<clus scale="   91.227">  5  6 -1 -1</clus>
<clus scale="   91.932">  7  8 -1 -1</clus>
<clus scale="   95.999">  2  5  1 -1</clus>
<clus scale="   41.125">  1  5  2 -1</clus>
</clustering>
</event>
<event>
 9    1  0.1601012E-005  0.1111671E+03  0.7546771E-02  0.1265302E+00
         21   -1    0    0  501  502  0.00000000000E+00  0.00000000000E+00  0.42805822474E+03  0.42805822474E+03  0.00000000000E+00 0.  1.
          2   -1    0    0  502    0 -0.00000000000E+00 -0.00000000000E+00 -0.56212191161E+02  0.56212191161E+02  0.00000000000E+00 0. -1.
         23    2    1    2    0    0 -0.27155979338E+02  0.51930300221E+02  0.84377163603E+01  0.98527089796E+02  0.78753978130E+02 0.  0.
         23    2    1    2    0    0  0.37403897277E+02 -0.33082144959E+02  0.29656456570E+03  0.31554104769E+03  0.95509849212E+02 0.  0.
        -11    1    4    4    0    0  0.62476228378E+02 -0.32995195965E+02  0.26967058720E+03  0.27877264513E+03  0.00000000000E+00 0.  1.
         11    1    4    4    0    0 -0.25072331101E+02 -0.86948994485E-01  0.26893978499E+02  0.36768402556E+02  0.00000000000E+00 0. -1.
        -13    1    3    3    0    0 -0.43840558549E+02  0.63163176981E+02  0.45710141781E+00  0.76888168413E+02  0.00000000000E+00 0. -1.
         13    1    3    3    0    0  0.16684579211E+02 -0.11232876760E+02  0.79806149425E+01  0.21638921383E+02  0.00000000000E+00 0.  1.
          2    1    1    2  501    0 -0.10247917938E+02 -0.18848155262E+02  0.66843751514E+02  0.70202278419E+02  0.00000000000E+00 0. -1.
<scales pt_clust_5="13000.00000" pt_clust_6="13000.00000" pt_clust_7="13000.00000" pt_clust_8="13000.00000" pt_clust_9="21.45397"></scales>
<clustering>
<clus scale="   21.454">  1  9  2 -1</clus>
<clus scale="   78.754">  7  8 -1 -1</clus>
<clus scale="   95.510">  5  6 -1 -1</clus>
<clus scale="   97.150">  2  7  1 -1</clus>
<clus scale="   21.454">  1  5  2 -1</clus>
</clustering>
</event>
<event>
 9    1  0.1601012E-005  0.1013319E+03  0.7546771E-02  0.1281357E+00
         21   -1    0    0  501  502  0.00000000000E+00  0.00000000000E+00  0.71895868683E+02  0.71895868683E+02  0.00000000000E+00 0.  1.
         -4   -1    0    0    0  501 -0.00000000000E+00 -0.00000000000E+00 -0.18899635963E+03  0.18899635963E+03  0.00000000000E+00 0.  1.
         23    2    1    2    0    0  0.25329093030E+02  0.38538505830E+02 -0.96081568401E+02  0.13596191411E+03  0.84422715641E+02 0.  0.
         23    2    1    2    0    0 -0.34038493612E+01 -0.36261081468E+02 -0.25422112878E+02  0.10245163416E+03  0.92323351861E+02 0.  0.
        -11    1    3    3    0    0 -0.10528748682E+02  0.39483006489E+02 -0.90974047668E+02  0.99729833547E+02  0.00000000000E+00 0.  1.
         11    1    3    3    0    0  0.35857841712E+02 -0.94450065879E+00 -0.51075207328E+01  0.36232080561E+02  0.00000000000E+00 0. -1.
        -13    1    4    4    0    0 -0.23457403575E+02  0.20592782055E+02  0.96920683312E+01  0.32684073243E+02  0.00000000000E+00 0. -1.
         13    1    4    4    0    0  0.20053554214E+02 -0.56853863522E+02 -0.35114181209E+02  0.69767560915E+02  0.00000000000E+00 0.  1.
         -4    1    1    2    0  502 -0.21925243669E+02 -0.22774243623E+01  0.44031903286E+01  0.22478680049E+02  0.00000000000E+00 0.  1.
<scales pt_clust_5="13000.00000" pt_clust_6="13000.00000" pt_clust_7="13000.00000" pt_clust_8="13000.00000" pt_clust_9="22.04321"></scales>
<clustering>
<clus scale="   22.043">  1  9  2 -1</clus>
<clus scale="   84.423">  5  6 -1 -1</clus>
<clus scale="   92.323">  7  8 -1 -1</clus>
<clus scale="   94.190">  2  5  1 -1</clus>
<clus scale="   22.043">  1  5  2 -1</clus>
</clustering>
</event>
<event>
 9    1  0.1601012E-005  0.1038683E+03  0.7546771E-02  0.1272679E+00
         21   -1    0    0  501  502  0.00000000000E+00  0.00000000000E+00  0.17256167652E+03  0.17256167652E+03  0.00000000000E+00 0.  1.
         -4   -1    0    0    0  501 -0.00000000000E+00 -0.00000000000E+00 -0.19016361312E+03  0.19016361312E+03  0.00000000000E+00 0.  1.
         23    2    1    2    0    0 -0.39008574736E+02  0.27151569512E+02 -0.10211529654E+03  0.14456349004E+03  0.90621146723E+02 0.  0.
         23    2    1    2    0    0  0.65273407280E+02  0.97550699053E+01 -0.10230056312E+02  0.11314629416E+03  0.91332637885E+02 0.  0.
        -11    1    4    4    0    0  0.72798693064E+01  0.44327787484E+02 -0.77403060942E+01  0.45583566982E+02  0.00000000000E+00 0.  1.
         11    1    4    4    0    0  0.57993537973E+02 -0.34572717579E+02 -0.24897502175E+01  0.67562727177E+02  0.00000000000E+00 0. -1.
        -11    1    3    3    0    0 -0.56632067353E+02  0.14731679023E+02 -0.10745208898E+03  0.12235262501E+03  0.00000000000E+00 0.  1.
         11    1    3    3    0    0  0.17623492617E+02  0.12419890489E+02  0.53367924384E+01  0.22210865029E+02  0.00000000000E+00 0. -1.
         -4    1    1    2    0  502 -0.26264832544E+02 -0.36906639418E+02  0.94743416256E+02  0.10501550545E+03  0.00000000000E+00 0.  1.
<scales pt_clust_5="13000.00000" pt_clust_6="13000.00000" pt_clust_7="13000.00000" pt_clust_8="13000.00000" pt_clust_9="45.29836"></scales>
<clustering>
<clus scale="   45.298">  1  9  2 -1</clus>
<clus scale="   90.621">  7  8 -1 -1</clus>
<clus scale="   91.333">  5  6 -1 -1</clus>
<clus scale="  103.243">  2  7  1 -1</clus>
<clus scale="   45.298">  1  5  2 -1</clus>
</clustering>
</event>
<event>
 9    1  0.1601012E-005  0.2091924E+03  0.7546771E-02  0.1142354E+00
          1   -1    0    0  502    0 -0.00000000000E+00  0.00000000000E+00  0.29449092571E+03  0.29449092571E+03  0.00000000000E+00 0. -1.
         21   -1    0    0  501  502  0.00000000000E+00 -0.00000000000E+00 -0.41909603082E+03  0.41909603082E+03  0.00000000000E+00 0. -1.
         23    2    1    2    0    0 -0.14989454329E+03 -0.10701748458E+03  0.13190493337E+03  0.24458271207E+03  0.92199107838E+02 0.  0.
         23    2    1    2    0    0  0.17672510838E+03  0.86277665453E+02 -0.63788312478E+01  0.21658467282E+03  0.90513156632E+02 0.  0.
        -11    1    3    3    0    0 -0.17689943952E+02  0.14848915776E+02  0.30160604710E+02  0.37987978272E+02  0.00000000000E+00 0.  1.
         11    1    3    3    0    0 -0.13220459934E+03 -0.12186640035E+03  0.10174432866E+03  0.20659473380E+03  0.00000000000E+00 0. -1.
        -11    1    4    4    0    0  0.12494195750E+03  0.99417014541E+02 -0.21380464209E+02  0.16109425742E+03  0.00000000000E+00 0.  1.
         11    1    4    4    0    0  0.51783150874E+02 -0.13139349088E+02  0.15001632961E+02  0.55490415392E+02  0.00000000000E+00 0. -1.
          1    1    1    2  501    0 -0.26830565091E+02  0.20739819126E+02 -0.25013120723E+03  0.25241957165E+03  0.00000000000E+00 0. -1.
<scales pt_clust_5="13000.00000" pt_clust_6="13000.00000" pt_clust_7="13000.00000" pt_clust_8="13000.00000" pt_clust_9="33.91193"></scales>
<clustering>
<clus scale="   33.912">  2  9  1 -1</clus>
<clus scale="   90.513">  7  8 -1 -1</clus>
<clus scale="   92.199">  5  6 -1 -1</clus>
<clus scale="  208.455">  2  7  1 -1</clus>
<clus scale="   33.912">  2  5  1 -1</clus>
</clustering>
</event>
<event>
 9    1  0.1601012E-005  0.1082922E+03  0.7546771E-02  0.1269912E+00
         21   -1    0    0  501  502  0.00000000000E+00  0.00000000000E+00  0.28955467272E+03  0.28955467272E+03  0.00000000000E+00 0.  1.
         -3   -1    0    0    0  501 -0.00000000000E+00 -0.00000000000E+00 -0.13175481671E+03  0.13175481671E+03  0.00000000000E+00 0.  1.
         23    2    1    2    0    0 -0.94006873872E+01 -0.68823460718E+02 -0.68397463871E+02  0.13331940442E+03  0.90943987501E+02 0.  0.
         23    2    1    2    0    0 -0.52682715202E+02  0.12467199550E+02  0.13488525092E+03  0.16402125430E+03  0.76013429086E+02 0.  0.
        -11    1    3    3    0    0 -0.13291623131E+02  0.17784656383E+02 -0.32782434537E+02  0.39593550767E+02  0.00000000000E+00 0. -1.
         11    1    3    3    0    0  0.38909357438E+01 -0.86608117101E+02 -0.35615029334E+02  0.93725853654E+02  0.00000000000E+00 0.  1.
        -13    1    4    4    0    0 -0.53999121316E+02 -0.17782320629E+02  0.57213921897E+02  0.80656982888E+02  0.00000000000E+00 0.  1.
         13    1    4    4    0    0  0.13164061144E+01  0.30249520179E+02  0.77671329021E+02  0.83364271412E+02  0.00000000000E+00 0. -1.
         -3    1    1    2    0  502  0.62083402589E+02  0.56356261168E+02  0.91312068961E+02  0.12396883071E+03  0.00000000000E+00 0.  1.
<scales pt_clust_5="13000.00000" pt_clust_6="13000.00000" pt_clust_7="13000.00000" pt_clust_8="13000.00000" pt_clust_9="83.84734"></scales>
<clustering>
<clus scale="   76.013">  7  8 -1 -1</clus>
<clus scale="   83.847">  1  9  2 -1</clus>
<clus scale="   90.944">  5  6 -1 -1</clus>
<clus scale="   96.096">  1  7  2 -1</clus>
<clus scale="   83.847">  1  5  2 -1</clus>
</clustering>
</event>
<event>
 9    1  0.1601012E-005  0.1119000E+03  0.7546771E-02  0.1257399E+00
         -3   -1    0    0    0  501 -0.00000000000E+00  0.00000000000E+00  0.46725816602E+03  0.46725816602E+03  0.00000000000E+00 0.  1.
         21   -1    0    0  501  502  0.00000000000E+00 -0.00000000000E+00 -0.26620257533E+03  0.26620257533E+03  0.00000000000E+00 0.  1.
         23    2    1    2    0    0 -0.35936106778E+02  0.37334248071E+02  0.23067513352E+03  0.25325404429E+03  0.90781847723E+02 0.  0.
         23    2    1    2    0    0  0.39638559004E+02 -0.79680376496E+02  0.20547007313E+03  0.24130498029E+03  0.89944231625E+02 0.  0.
        -13    1    3    3    0    0  0.10775489522E+01  0.58758228100E+02  0.10274537094E+03  0.11836512041E+03  0.00000000000E+00 0. -1.
         13    1    3    3    0    0 -0.37013655730E+02 -0.21423980029E+02  0.12792976258E+03  0.13488892388E+03  0.00000000000E+00 0.  1.
        -13    1    4    4    0    0 -0.11107784353E+02 -0.69591725653E+02  0.86515991728E+02  0.11158587714E+03  0.00000000000E+00 0.  1.
         13    1    4    4    0    0  0.50746343357E+02 -0.10088650843E+02  0.11895408140E+03  0.12971910315E+03  0.00000000000E+00 0. -1.
         -3    1    1    2    0  502 -0.37024522264E+01  0.42346128425E+02 -0.23508961596E+03  0.23890171677E+03  0.00000000000E+00 0.  1.
<scales pt_clust_5="13000.00000" pt_clust_6="13000.00000" pt_clust_7="13000.00000" pt_clust_8="13000.00000" pt_clust_9="42.50768"></scales>
<clustering>
<clus scale="   42.508">  2  9  1 -1</clus>
<clus scale="   89.944">  7  8 -1 -1</clus>
<clus scale="   90.782">  5  6 -1 -1</clus>
<clus scale="  111.222">  2  7  1 -1</clus>
<clus scale="   42.508">  2  5  1 -1</clus>
</clustering>
</event>
<event>
 9    1  0.1601012E-005  0.1243106E+03  0.7546771E-02  0.1236228E+00
         21   -1    0    0  501  502  0.00000000000E+00  0.00000000000E+00  0.39898594837E+02  0.39898594837E+02  0.00000000000E+00 0. -1.
          1   -1    0    0  502    0 -0.00000000000E+00 -0.00000000000E+00 -0.66134101627E+03  0.66134101627E+03  0.00000000000E+00 0. -1.
         23    2    1    2    0    0 -0.66751044990E+02  0.28717411201E+02 -0.37009949120E+03  0.38818230332E+03  0.91823066330E+02 0.  0.
         23    2    1    2    0    0  0.96671060132E+02 -0.49687386703E+02 -0.23106265305E+03  0.27126930926E+03  0.91558496306E+02 0.  0.
        -11    1    3    3    0    0 -0.44757010311E+02 -0.28589229616E+02 -0.21288899771E+03  0.21941344391E+03  0.00000000000E+00 0. -1.
         11    1    3    3    0    0 -0.21994034680E+02  0.57306640817E+02 -0.15721049349E+03  0.16876885941E+03  0.00000000000E+00 0.  1.
        -13    1    4    4    0    0  0.46420813861E+02 -0.73154949636E+02 -0.13888048949E+03  0.16368973388E+03  0.00000000000E+00 0. -1.
         13    1    4    4    0    0  0.50250246271E+02  0.23467562933E+02 -0.92182163560E+02  0.10757957538E+03  0.00000000000E+00 0.  1.
          1    1    1    2  501    0 -0.29920015142E+02  0.20969975501E+02 -0.20280277183E+02  0.41787998531E+02  0.00000000000E+00 0. -1.
<scales pt_clust_5="13000.00000" pt_clust_6="13000.00000" pt_clust_7="13000.00000" pt_clust_8="13000.00000" pt_clust_9="36.53693"></scales>
<clustering>
<clus scale="   36.537">  1  9  2 -1</clus>
<clus scale="   91.558">  7  8 -1 -1</clus>
<clus scale="   91.823">  5  6 -1 -1</clus>
<clus scale="  124.115">  1  7  2 -1</clus>
<clus scale="   36.537">  1  5  2 -1</clus>
</clustering>
</event>
<event>
 9    1  0.1601012E-005  0.1618401E+03  0.7546771E-02  0.1186899E+00
         21   -1    0    0  501  502  0.00000000000E+00  0.00000000000E+00  0.16832897259E+03  0.16832897259E+03  0.00000000000E+00 0.  1.
         -3   -1    0    0    0  501 -0.00000000000E+00 -0.00000000000E+00 -0.52879202168E+03  0.52879202168E+03  0.00000000000E+00 0.  1.
         23    2    1    2    0    0 -0.94744362926E+02  0.89304496454E+02 -0.25039267263E+03  0.29484732161E+03  0.85361965552E+02 0.  0.
         23    2    1    2    0    0  0.65329031224E+02 -0.13520299551E+03 -0.21959455309E+03  0.27993202309E+03  0.87134594103E+02 0.  0.
        -11    1    3    3    0    0 -0.41136859962E+02  0.36379808969E+02 -0.19152651360E+03  0.19924391373E+03  0.00000000000E+00 0.  1.
         11    1    3    3    0    0 -0.53607502964E+02  0.52924687485E+02 -0.58866159029E+02  0.95603407880E+02  0.00000000000E+00 0. -1.
        -11    1    4    4    0    0 -0.17327049445E+00 -0.52363607168E+02 -0.23900424447E+02  0.57560469656E+02  0.00000000000E+00 0.  1.
         11    1    4    4    0    0  0.65502301719E+02 -0.82839388339E+02 -0.19569412865E+03  0.22237155344E+03  0.00000000000E+00 0. -1.
         -3    1    1    2    0  502  0.29415331702E+02  0.45898499052E+02  0.10952417662E+03  0.12234164957E+03  0.00000000000E+00 0.  1.
<scales pt_clust_5="13000.00000" pt_clust_6="13000.00000" pt_clust_7="13000.00000" pt_clust_8="13000.00000" pt_clust_9="54.51545"></scales>
<clustering>
<clus scale="   54.515">  1  9  2 -1</clus>
<clus scale="   85.362">  5  6 -1 -1</clus>
<clus scale="   87.135">  7  8 -1 -1</clus>
<clus scale="  160.893">  2  5  1 -1</clus>
<clus scale="   54.515">  1  5  2 -1</clus>
</clustering>
</event>
<event>
 9    1  0.1601012E-005  0.1700004E+03  0.7546771E-02  0.1190537E+00
          3   -1    0    0  502    0 -0.00000000000E+00  0.00000000000E+00  0.55377223071E+02  0.55377223071E+02  0.00000000000E+00 0. -1.
         21   -1    0    0  501  502  0.00000000000E+00 -0.00000000000E+00 -0.10754253538E+04  0.10754253538E+04  0.00000000000E+00 0. -1.
         23    2    1    2    0    0  0.87112148531E+02 -0.22072947613E+02 -0.21263068363E+03  0.24822268052E+03  0.91252123623E+02 0.  0.
         23    2    1    2    0    0 -0.87218816594E+02  0.15703540845E+03 -0.33589068268E+03  0.39211851482E+03  0.93097462232E+02 0.  0.
        -11    1    4    4    0    0  0.18634375665E+02  0.31691528012E+02 -0.44553198973E+02  0.57763140868E+02  0.00000000000E+00 0.  1.
         11    1    4    4    0    0 -0.10585319226E+03  0.12534388044E+03 -0.29133748371E+03  0.33435537395E+03  0.00000000000E+00 0. -1.
        -11    1    3    3    0    0  0.80458008473E+02 -0.51393997589E+02 -0.13841005150E+03  0.16814332122E+03  0.00000000000E+00 0.  1.
         11    1    3    3    0    0  0.66541400578E+01  0.29321049976E+02 -0.74220632137E+02  0.80079359303E+02  0.00000000000E+00 0. -1.
          3    1    1    2  501    0  0.10666806280E+00 -0.13496246084E+03 -0.47152676441E+03  0.49046138153E+03  0.00000000000E+00 0. -1.
<scales pt_clust_5="13000.00000" pt_clust_6="13000.00000" pt_clust_7="13000.00000" pt_clust_8="13000.00000" pt_clust_9="142.24269"></scales>
<clustering>
<clus scale="   91.252">  7  8 -1 -1</clus>
<clus scale="   93.097">  5  6 -1 -1</clus>
<clus scale="  128.073">  1  7  2 -1</clus>
<clus scale="  142.243">  2  9  1 -1</clus>
<clus scale="  142.243">  2  5  1 -1</clus>
</clustering>
</event>
<event>
 9    1  0.1601012E-005  0.1197748E+03  0.7546771E-02  0.1244293E+00
         21   -1    0    0  501  502  0.00000000000E+00  0.00000000000E+00  0.21931301831E+03  0.21931301831E+03  0.00000000000E+00 0.  1.
         -4   -1    0    0    0  501 -0.00000000000E+00 -0.00000000000E+00 -0.97484267573E+02  0.97484267573E+02  0.00000000000E+00 0.  1.
         23    2    1    2    0    0  0.59021465267E+02 -0.95348115071E+01  0.53679902220E+02  0.12136617181E+03  0.90960264763E+02 0.  0.
         23    2    1    2    0    0 -0.96748464376E+02  0.30689126476E+02  0.70889819547E+02  0.15209124298E+03  0.88341903039E+02 0.  0.
        -13    1    4    4    0    0 -0.27948812350E+02 -0.20181028311E+02  0.55230650416E+02  0.65106334261E+02  0.00000000000E+00 0. -1.
         13    1    4    4    0    0 -0.68799652025E+02  0.50870154786E+02  0.15659169131E+02  0.86984908718E+02  0.00000000000E+00 0.  1.
        -13    1    3    3    0    0  0.41130201619E+01  0.34607302505E+02  0.32867102377E+02  0.47904370784E+02  0.00000000000E+00 0. -1.
         13    1    3    3    0    0  0.54908445105E+02 -0.44142114012E+02  0.20812799843E+02  0.73461801030E+02  0.00000000000E+00 0.  1.
         -4    1    1    2    0  502  0.37726999109E+02 -0.21154314969E+02 -0.27409710334E+01  0.43339871086E+02  0.00000000000E+00 0.  1.
<scales pt_clust_5="13000.00000" pt_clust_6="13000.00000" pt_clust_7="13000.00000" pt_clust_8="13000.00000" pt_clust_9="43.25313"></scales>
<clustering>
<clus scale="   43.253">  1  9  2 -1</clus>
<clus scale="   88.342">  5  6 -1 -1</clus>
<clus scale="   90.960">  7  8 -1 -1</clus>
<clus scale="  117.799">  1  5  2 -1</clus>
<clus scale="   43.253">  1  5  2 -1</clus>
</clustering>
</event>
<event>
 9    1  0.1601012E-005  0.1617817E+03  0.7546771E-02  0.1187067E+00
          1   -1    0    0  502    0 -0.00000000000E+00  0.00000000000E+00  0.63903199129E+03  0.63903199129E+03  0.00000000000E+00 0. -1.
         21   -1    0    0  501  502  0.00000000000E+00 -0.00000000000E+00 -0.49158682337E+02  0.49158682337E+02  0.00000000000E+00 0. -1.
         23    2    1    2    0    0  0.12618183789E+03 -0.52407327176E+02  0.30981916071E+03  0.35134530718E+03  0.93740217518E+02 0.  0.
         23    2    1    2    0    0 -0.12512448541E+03  0.26813642904E+02  0.26171765116E+03  0.30534327454E+03  0.91450960010E+02 0.  0.
        -13    1    4    4    0    0 -0.52478742923E+02  0.73987083238E+01  0.20337978140E+03  0.21017158424E+03  0.00000000000E+00 0. -1.
         13    1    4    4    0    0 -0.72645742483E+02  0.19414934580E+02  0.58337869763E+02  0.95171690298E+02  0.00000000000E+00 0.  1.
        -13    1    3    3    0    0  0.11031897945E+03  0.36069165730E+00  0.21602058372E+03  0.24255988934E+03  0.00000000000E+00 0. -1.
         13    1    3    3    0    0  0.15862858434E+02 -0.52768018834E+02  0.93798576995E+02  0.10878541784E+03  0.00000000000E+00 0.  1.
          1    1    1    2  501    0 -0.10573524819E+01  0.25593684273E+02  0.18336497081E+02  0.31502091901E+02  0.00000000000E+00 0. -1.
<scales pt_clust_5="13000.00000" pt_clust_6="13000.00000" pt_clust_7="13000.00000" pt_clust_8="13000.00000" pt_clust_9="25.61552"></scales>
<clustering>
<clus scale="   25.616">  2  9  1 -1</clus>
<clus scale="   91.451">  5  6 -1 -1</clus>
<clus scale="   93.740">  7  8 -1 -1</clus>
<clus scale="  160.466">  2  5  1 -1</clus>
<clus scale="   25.616">  2  5  1 -1</clus>
</clustering>
</event>
<event>
 9    1  0.1601012E-005  0.1520754E+03  0.7546771E-02  0.1198557E+00
         21   -1    0    0  501  502  0.00000000000E+00  0.00000000000E+00  0.32619991756E+03  0.32619991756E+03  0.00000000000E+00 0. -1.
          2   -1    0    0  502    0 -0.00000000000E+00 -0.00000000000E+00 -0.37806456979E+03  0.37806456979E+03  0.00000000000E+00 0. -1.
         23    2    1    2    0    0 -0.89296233462E+02 -0.70357698594E+02 -0.19715790283E+03  0.24652170273E+03  0.94750663361E+02 0.  0.
         23    2    1    2    0    0  0.29838550407E+02  0.15176901919E+03 -0.90570325003E+02  0.20123811508E+03  0.91485632269E+02 0.  0.
        -11    1    4    4    0    0 -0.28159284497E+02  0.42834743929E+02 -0.49266257495E+02  0.71097993772E+02  0.00000000000E+00 0. -1.
         11    1    4    4    0    0  0.57997834904E+02  0.10893427526E+03 -0.41304067508E+02  0.13014012130E+03  0.00000000000E+00 0.  1.
        -13    1    3    3    0    0 -0.69978914111E+02  0.17911754316E+00 -0.12792846122E+03  0.14581759733E+03  0.00000000000E+00 0.  1.
         13    1    3    3    0    0 -0.19317319351E+02 -0.70536816137E+02 -0.69229441617E+02  0.10070410540E+03  0.00000000000E+00 0. -1.
          2    1    1    2  501    0  0.59457683054E+02 -0.81411320596E+02  0.23586357561E+03  0.25650466954E+03  0.00000000000E+00 0. -1.
<scales pt_clust_5="13000.00000" pt_clust_6="13000.00000" pt_clust_7="13000.00000" pt_clust_8="13000.00000" pt_clust_9="100.81180"></scales>
<clustering>
<clus scale="   91.486">  5  6 -1 -1</clus>
<clus scale="   94.751">  7  8 -1 -1</clus>
<clus scale="  100.812">  1  9  2 -1</clus>
<clus scale="  150.063">  1  5  2 -1</clus>
<clus scale="  100.812">  1  5  2 -1</clus>
</clustering>
</event>
<event>
 9    1  0.1601012E-005  0.1132793E+03  0.7546771E-02  0.1258418E+00
         21   -1    0    0  501  502  0.00000000000E+00  0.00000000000E+00  0.32459909541E+03  0.32459909541E+03  0.00000000000E+00 0. -1.
         -3   -1    0    0    0  501 -0.00000000000E+00 -0.00000000000E+00 -0.27926677615E+03  0.27926677615E+03  0.00000000000E+00 0.  1.
         23    2    1    2    0    0 -0.50432978677E+02  0.10461491167E+02 -0.24300499104E+03  0.26787437824E+03  0.10026130215E+03 0.  0.
         23    2    1    2    0    0  0.80074044109E+02 -0.14378490281E+02  0.27927011492E+03  0.30474809923E+03  0.90890117024E+02 0.  0.
        -13    1    3    3    0    0 -0.38247316376E+02  0.48483128504E+02 -0.19943630464E+03  0.20877813718E+03  0.00000000000E+00 0.  1.
         13    1    3    3    0    0 -0.12185662300E+02 -0.38021637337E+02 -0.43568686409E+02  0.59096241056E+02  0.00000000000E+00 0. -1.
        -13    1    4    4    0    0  0.17492772336E+02  0.32371911668E+02  0.46976114961E+02  0.59671543686E+02  0.00000000000E+00 0.  1.
         13    1    4    4    0    0  0.62581271773E+02 -0.46750401949E+02  0.23229399996E+03  0.24507655554E+03  0.00000000000E+00 0. -1.
         -3    1    1    2    0  502 -0.29641065432E+02  0.39169991142E+01  0.90671953942E+01  0.31243394091E+02  0.00000000000E+00 0.  1.
<scales pt_clust_5="13000.00000" pt_clust_6="13000.00000" pt_clust_7="13000.00000" pt_clust_8="13000.00000" pt_clust_9="29.89876"></scales>
<clustering>
<clus scale="   29.899">  1  9  2 -1</clus>
<clus scale="   90.890">  7  8 -1 -1</clus>
<clus scale="  100.261">  5  6 -1 -1</clus>
<clus scale="  105.076">  1  7  2 -1</clus>
<clus scale="   29.899">  1  5  2 -1</clus>
</clustering>
</event>
<event>
 9    1  0.1601012E-005  0.1574892E+03  0.7546771E-02  0.1191671E+00
         21   -1    0    0  501  502  0.00000000000E+00  0.00000000000E+00  0.21650940285E+03  0.21650940285E+03  0.00000000000E+00 0. -1.
          2   -1    0    0  502    0 -0.00000000000E+00 -0.00000000000E+00 -0.55356295519E+03  0.55356295519E+03  0.00000000000E+00 0. -1.
         23    2    1    2    0    0  0.65099020218E+01 -0.11823867755E+03 -0.31966893830E+03  0.35309929740E+03  0.92022388679E+02 0.  0.
         23    2    1    2    0    0 -0.99517914257E+01  0.14703491551E+03 -0.18108987526E+03  0.25071879009E+03  0.91367741869E+02 0.  0.
        -11    1    3    3    0    0 -0.42041117712E+02 -0.68758765688E+02 -0.17661966124E+03  0.19413842529E+03  0.00000000000E+00 0.  1.
         11    1    3    3    0    0  0.48551019734E+02 -0.49479911861E+02 -0.14304927706E+03  0.15896087211E+03  0.00000000000E+00 0. -1.
        -13    1    4    4    0    0 -0.83816398880E+00  0.57584429074E+02 -0.11441403778E+02  0.58716051562E+02  0.00000000000E+00 0.  1.
         13    1    4    4    0    0 -0.91136274369E+01  0.89450486435E+02 -0.16964847148E+03  0.19200273853E+03  0.00000000000E+00 0. -1.
          2    1    1    2  501    0  0.34418894039E+01 -0.28796237959E+02  0.16370526122E+03  0.16625427054E+03  0.00000000000E+00 0. -1.
<scales pt_clust_5="13000.00000" pt_clust_6="13000.00000" pt_clust_7="13000.00000" pt_clust_8="13000.00000" pt_clust_9="29.00121"></scales>
<clustering>
<clus scale="   29.001">  1  9  2 -1</clus>
<clus scale="   91.368">  7  8 -1 -1</clus>
<clus scale="   92.022">  5  6 -1 -1</clus>
<clus scale="  157.108">  1  7  2 -1</clus>
<clus scale="   29.001">  1  5  2 -1</clus>
</clustering>
</event>
<event>
 9    1  0.1601012E-005  0.1098214E+03  0.7546771E-02  0.1264575E+00
          3   -1    0    0  502    0 -0.00000000000E+00  0.00000000000E+00  0.19616543266E+03  0.19616543266E+03  0.00000000000E+00 0. -1.
         21   -1    0    0  501  502  0.00000000000E+00 -0.00000000000E+00 -0.82451732663E+02  0.82451732663E+02  0.00000000000E+00 0.  1.
         23    2    1    2    0    0  0.34208905688E+02  0.26475259102E+02  0.74340048635E+02  0.13104441753E+03  0.98868639934E+02 0.  0.
         23    2    1    2    0    0 -0.54055492883E+02 -0.12393718785E+02  0.54228147301E+02  0.11906252418E+03  0.90330460688E+02 0.  0.
        -11    1    4    4    0    0 -0.67527612899E+02  0.70431982640E+01  0.96185765254E+01  0.68571875868E+02  0.00000000000E+00 0. -1.
         11    1    4    4    0    0  0.13472120016E+02 -0.19436917049E+02  0.44609570776E+02  0.50490648311E+02  0.00000000000E+00 0.  1.
        -13    1    3    3    0    0 -0.11268501750E+02  0.52551469223E+02  0.49364677147E+02  0.72976074155E+02  0.00000000000E+00 0.  1.
         13    1    3    3    0    0  0.45477407439E+02 -0.26076210121E+02  0.24975371488E+02  0.58068343377E+02  0.00000000000E+00 0. -1.
          3    1    1    2  501    0  0.19846587195E+02 -0.14081540317E+02 -0.14854495937E+02  0.28510223614E+02  0.00000000000E+00 0. -1.
<scales pt_clust_5="13000.00000" pt_clust_6="13000.00000" pt_clust_7="13000.00000" pt_clust_8="13000.00000" pt_clust_9="24.33468"></scales>
<clustering>
<clus scale="   24.335">  2  9  1 -1</clus>
<clus scale="   90.330">  5  6 -1 -1</clus>
<clus scale="   98.869">  7  8 -1 -1</clus>
<clus scale="  102.202">  2  5  1 -1</clus>
<clus scale="   24.335">  2  5  1 -1</clus>
</clustering>
</event>
<event>
 9    1  0.1601012E-005  0.9455461E+02  0.7546771E-02  0.1292352E+00
         21   -1    0    0  501  502  0.00000000000E+00  0.00000000000E+00  0.27762187244E+03  0.27762187244E+03  0.00000000000E+00 0. -1.
          1   -1    0    0  502    0 -0.00000000000E+00 -0.00000000000E+00 -0.33340715227E+03  0.33340715227E+03  0.00000000000E+00 0. -1.
         23    2    1    2    0    0  0.35883751219E+01 -0.33802929204E+02 -0.30377466932E+03  0.31835656263E+03  0.88973798335E+02 0.  0.
         23    2    1    2    0    0  0.17270464460E+02  0.63817176314E+01  0.78875474794E+02  0.12008471577E+03  0.88656658945E+02 0.  0.
        -11    1    3    3    0    0  0.16345171517E+02 -0.51530157830E+02 -0.28332693131E+03  0.28843833276E+03  0.00000000000E+00 0. -1.
         11    1    3    3    0    0 -0.12756796395E+02  0.17727228626E+02 -0.20447738012E+02  0.29918229875E+02  0.00000000000E+00 0.  1.
        -13    1    4    4    0    0 -0.29454856700E+02  0.51599158208E+01  0.64643132403E+02  0.71224629739E+02  0.00000000000E+00 0.  1.
         13    1    4    4    0    0  0.46725321160E+02  0.12218018106E+01  0.14232342390E+02  0.48860086032E+02  0.00000000000E+00 0. -1.
          1    1    1    2  501    0 -0.20858839582E+02  0.27421211572E+02  0.16911391470E+03  0.17258774631E+03  0.00000000000E+00 0. -1.
<scales pt_clust_5="13000.00000" pt_clust_6="13000.00000" pt_clust_7="13000.00000" pt_clust_8="13000.00000" pt_clust_9="34.45307"></scales>
<clustering>
<clus scale="   34.453">  1  9  2 -1</clus>
<clus scale="   88.657">  7  8 -1 -1</clus>
<clus scale="   88.974">  5  6 -1 -1</clus>
<clus scale="   94.256">  1  7  2 -1</clus>
<clus scale="   34.453">  1  5  2 -1</clus>
</clustering>
</event>
<event>
 9    1  0.1601012E-005  0.1018696E+03  0.7546771E-02  0.1277712E+00
         -1   -1    0    0    0  501 -0.00000000000E+00  0.00000000000E+00  0.83771374308E+02  0.83771374308E+02  0.00000000000E+00 0.  1.
         21   -1    0    0  501  502  0.00000000000E+00 -0.00000000000E+00 -0.37727008906E+03  0.37727008906E+03  0.00000000000E+00 0.  1.
         23    2    1    2    0    0  0.41042432029E+02  0.27498486836E+02  0.29700172170E+02  0.10924368394E+03  0.92797813820E+02 0.  0.
         23    2    1    2    0    0 -0.10026907019E+02 -0.32180824156E+01 -0.15987984674E+03  0.18379596480E+03  0.90047189655E+02 0.  0.
        -11    1    3    3    0    0  0.56352590840E+01 -0.19368831670E+02 -0.22814076766E+02  0.30453076756E+02  0.00000000000E+00 0. -1.
         11    1    3    3    0    0  0.35407172945E+02  0.46867318506E+02  0.52514248936E+02  0.78790607189E+02  0.00000000000E+00 0.  1.
        -13    1    4    4    0    0 -0.74279016315E+01 -0.46124726193E+02 -0.96500523790E+02  0.10721480859E+03  0.00000000000E+00 0.  1.
         13    1    4    4    0    0 -0.25990053878E+01  0.42906643777E+02 -0.63379322950E+02  0.76581156213E+02  0.00000000000E+00 0. -1.
         -1    1    1    2    0  502 -0.31015525010E+02 -0.24280404420E+02 -0.16331904018E+03  0.16800181462E+03  0.00000000000E+00 0.  1.
<scales pt_clust_5="13000.00000" pt_clust_6="13000.00000" pt_clust_7="13000.00000" pt_clust_8="13000.00000" pt_clust_9="39.38910"></scales>
<clustering>
<clus scale="   39.389">  2  9  1 -1</clus>
<clus scale="   90.047">  7  8 -1 -1</clus>
<clus scale="   92.798">  5  6 -1 -1</clus>
<clus scale="   99.370">  2  7  1 -1</clus>
<clus scale="   39.389">  2  5  1 -1</clus>
</clustering>
</event>
<event>
 9    1  0.1601012E-005  0.1065012E+03  0.7546771E-02  0.1267449E+00
         -1   -1    0    0    0  501 -0.00000000000E+00  0.00000000000E+00  0.11863625446E+03  0.11863625446E+03  0.00000000000E+00 0.  1.
         21   -1    0    0  501  502  0.00000000000E+00 -0.00000000000E+00 -0.16238146261E+03  0.16238146261E+03  0.00000000000E+00 0.  1.
         23    2    1    2    0    0  0.12565408716E+02 -0.57136302226E+02  0.25533283424E+02  0.11084133488E+03  0.90616810948E+02 0.  0.
         23    2    1    2    0    0  0.12149725802E+02  0.51820543728E+02 -0.10451426278E+02  0.10614733587E+03  0.91241657214E+02 0.  0.
        -11    1    3    3    0    0  0.24694871003E+02 -0.78733126924E+02  0.14736617740E+02  0.83820700495E+02  0.00000000000E+00 0.  1.
         11    1    3    3    0    0 -0.12129462287E+02  0.21596824698E+02  0.10796665684E+02  0.27020634380E+02  0.00000000000E+00 0. -1.
        -13    1    4    4    0    0  0.25152337083E+02  0.67197902559E+02 -0.30286779580E+02  0.77881237705E+02  0.00000000000E+00 0. -1.
         13    1    4    4    0    0 -0.13002611281E+02 -0.15377358831E+02  0.19835353302E+02  0.28266098163E+02  0.00000000000E+00 0.  1.
         -1    1    1    2    0  502 -0.24715134519E+02  0.53157584977E+01 -0.58827065289E+02  0.64029046325E+02  0.00000000000E+00 0.  1.
<scales pt_clust_5="13000.00000" pt_clust_6="13000.00000" pt_clust_7="13000.00000" pt_clust_8="13000.00000" pt_clust_9="25.28033"></scales>
<clustering>
<clus scale="   25.280">  2  9  1 -1</clus>
<clus scale="   90.617">  5  6 -1 -1</clus>
<clus scale="   91.242">  7  8 -1 -1</clus>
<clus scale="  105.966">  1  5  2 -1</clus>
<clus scale="   25.280">  2  5  1 -1</clus>
</clustering>
</event>
<event>
 9    1  0.1601012E-005  0.1099923E+03  0.7546771E-02  0.1260986E+00
          2   -1    0    0  502    0 -0.00000000000E+00  0.00000000000E+00  0.41676706961E+03  0.41676706961E+03  0.00000000000E+00 0. -1.
         21   -1    0    0  501  502  0.00000000000E+00 -0.00000000000E+00 -0.10211485584E+03  0.10211485584E+03  0.00000000000E+00 0. -1.
         23    2    1    2    0    0 -0.29215846569E+00  0.67797650646E+02  0.35320309814E+03  0.37064071442E+03  0.89585176548E+02 0.  0.
         23    2    1    2    0    0  0.18411581920E+02 -0.23929368706E+02 -0.22604338712E+02  0.98170940555E+02  0.90636507024E+02 0.  0.
        -11    1    4    4    0    0  0.29665791579E+02 -0.50934387803E+02  0.33811941732E+01  0.59040693804E+02  0.00000000000E+00 0.  1.
         11    1    4    4    0    0 -0.11254209659E+02  0.27005019097E+02 -0.25985532885E+02  0.39130246751E+02  0.00000000000E+00 0. -1.
        -13    1    3    3    0    0 -0.33477574187E+02  0.36929180824E+02  0.84210458941E+02  0.97856597963E+02  0.00000000000E+00 0.  1.
         13    1    3    3    0    0  0.33185415721E+02  0.30868469822E+02  0.26899263920E+03  0.27278411645E+03  0.00000000000E+00 0. -1.
          2    1    1    2  501    0 -0.18119423454E+02 -0.43868281940E+02 -0.15946545660E+02  0.50070270472E+02  0.00000000000E+00 0. -1.
<scales pt_clust_5="13000.00000" pt_clust_6="13000.00000" pt_clust_7="13000.00000" pt_clust_8="13000.00000" pt_clust_9="47.46303"></scales>
<clustering>
<clus scale="   47.463">  2  9  1 -1</clus>
<clus scale="   89.585">  7  8 -1 -1</clus>
<clus scale="   90.637">  5  6 -1 -1</clus>
<clus scale="  109.128">  1  7  2 -1</clus>
<clus scale="   47.463">  2  5  1 -1</clus>
</clustering>
</event>
<event>
 9    1  0.1601012E-005  0.1319735E+03  0.7546771E-02  0.1225387E+00
         21   -1    0    0  501  502  0.00000000000E+00  0.00000000000E+00  0.25210267864E+03  0.25210267864E+03  0.00000000000E+00 0.  1.
         -1   -1    0    0    0  501 -0.00000000000E+00 -0.00000000000E+00 -0.16931572683E+03  0.16931572683E+03  0.00000000000E+00 0.  1.
         23    2    1    2    0    0 -0.70497887154E+02  0.60231422747E+02 -0.30805342460E+02  0.13544376252E+03  0.93799079433E+02 0.  0.
         23    2    1    2    0    0  0.55067137749E+01 -0.11241712838E+03 -0.74578906885E+00  0.14448118800E+03  0.90588756667E+02 0.  0.
        -11    1    4    4    0    0 -0.30854895254E+02 -0.21156558751E+02 -0.22781864184E+02  0.43802258789E+02  0.00000000000E+00 0. -1.
         11    1    4    4    0    0  0.36361609029E+02 -0.91260569634E+02  0.22036075115E+02  0.10067892921E+03  0.00000000000E+00 0.  1.
        -13    1    3    3    0    0 -0.23573504957E+02  0.32844677457E+02  0.32606675816E+02  0.51939178671E+02  0.00000000000E+00 0. -1.
         13    1    3    3    0    0 -0.46924382197E+02  0.27386745289E+02 -0.63412018276E+02  0.83504583850E+02  0.00000000000E+00 0.  1.
         -1    1    1    2    0  502  0.64991173379E+02  0.52185705638E+02  0.11433808335E+03  0.14149345495E+03  0.00000000000E+00 0.  1.
<scales pt_clust_5="13000.00000" pt_clust_6="13000.00000" pt_clust_7="13000.00000" pt_clust_8="13000.00000" pt_clust_9="83.34987"></scales>
<clustering>
<clus scale="   83.350">  1  9  2 -1</clus>
<clus scale="   90.589">  5  6 -1 -1</clus>
<clus scale="   93.799">  7  8 -1 -1</clus>
<clus scale="  129.711">  1  5  2 -1</clus>
<clus scale="   83.350">  1  5  2 -1</clus>
</clustering>
</event>
<event>
 9    1  0.1601012E-005  0.9943564E+02  0.7546771E-02  0.1282578E+00
         21   -1    0    0  501  502  0.00000000000E+00  0.00000000000E+00  0.76173857697E+02  0.76173857697E+02  0.00000000000E+00 0.  1.
         -2   -1    0    0    0  501 -0.00000000000E+00 -0.00000000000E+00 -0.43782216228E+03  0.43782216228E+03  0.00000000000E+00 0.  1.
         23    2    1    2    0    0 -0.30617600164E+02 -0.16534372844E+02 -0.33973761631E+03  0.35341067297E+03  0.90921025676E+02 0.  0.
         23    2    1    2    0    0  0.44071534523E+01  0.58183969668E+02 -0.15118712586E+02  0.11090831643E+03  0.93098237664E+02 0.  0.
        -11    1    3    3    0    0 -0.58578505088E+02 -0.23980614863E+01 -0.27871838136E+03  0.28481771023E+03  0.00000000000E+00 0.  1.
         11    1    3    3    0    0  0.27960904924E+02 -0.14136311358E+02 -0.61019234955E+02  0.68592962740E+02  0.00000000000E+00 0. -1.
        -13    1    4    4    0    0 -0.32354092738E+02 -0.37391972601E+01  0.10891058890E+02  0.34342161796E+02  0.00000000000E+00 0. -1.
         13    1    4    4    0    0  0.36761246191E+02  0.61923166928E+02 -0.26009771476E+02  0.76566154639E+02  0.00000000000E+00 0.  1.
         -2    1    1    2    0  502  0.26210446712E+02 -0.41649596824E+02 -0.67919756866E+01  0.49677030569E+02  0.00000000000E+00 0.  1.
<scales pt_clust_5="13000.00000" pt_clust_6="13000.00000" pt_clust_7="13000.00000" pt_clust_8="13000.00000" pt_clust_9="49.21053"></scales>
<clustering>
<clus scale="   49.211">  1  9  2 -1</clus>
<clus scale="   90.921">  5  6 -1 -1</clus>
<clus scale="   93.098">  7  8 -1 -1</clus>
<clus scale="   97.400">  2  5  1 -1</clus>
<clus scale="   49.211">  1  5  2 -1</clus>
</clustering>
</event>
<event>
 9    1  0.1601012E-005  0.1028220E+03  0.7546771E-02  0.1275575E+00
         -1   -1    0    0    0  501 -0.00000000000E+00  0.00000000000E+00  0.10329205867E+03  0.10329205867E+03  0.00000000000E+00 0.  1.
         21   -1    0    0  501  502  0.00000000000E+00 -0.00000000000E+00 -0.17722008922E+03  0.17722008922E+03  0.00000000000E+00 0. -1.
         23    2    1    2    0    0 -0.52377655892E+02 -0.14596475639E+02  0.17917792045E+02  0.10661360541E+03  0.89938521500E+02 0.  0.
         23    2    1    2    0    0  0.33860589816E+02 -0.46028192809E+01 -0.24505424712E+02  0.10146772136E+03  0.92344231818E+02 0.  0.
        -11    1    3    3    0    0 -0.67011242357E+02  0.60775362204E+00  0.38374320737E+02  0.77223470906E+02  0.00000000000E+00 0.  1.
         11    1    3    3    0    0  0.14633586465E+02 -0.15204229261E+02 -0.20456528692E+02  0.29390134508E+02  0.00000000000E+00 0. -1.
        -13    1    4    4    0    0  0.24934861590E+02  0.35718857017E+02 -0.38220986402E+02  0.57951944495E+02  0.00000000000E+00 0. -1.
         13    1    4    4    0    0  0.89257282258E+01 -0.40321676298E+02  0.13715561691E+02  0.43515776867E+02  0.00000000000E+00 0.  1.
         -1    1    1    2    0  502  0.18517066076E+02  0.19199294920E+02 -0.67340397875E+02  0.72430821116E+02  0.00000000000E+00 0.  1.
<scales pt_clust_5="13000.00000" pt_clust_6="13000.00000" pt_clust_7="13000.00000" pt_clust_8="13000.00000" pt_clust_9="26.67386"></scales>
<clustering>
<clus scale="   26.674">  2  9  1 -1</clus>
<clus scale="   89.939">  5  6 -1 -1</clus>
<clus scale="   92.344">  7  8 -1 -1</clus>
<clus scale="  100.667">  1  5  2 -1</clus>
<clus scale="   26.674">  2  5  1 -1</clus>
</clustering>
</event>
<event>
 9    1  0.1601012E-005  0.1552545E+03  0.7546771E-02  0.1195869E+00
          1   -1    0    0  502    0 -0.00000000000E+00  0.00000000000E+00  0.40884591664E+03  0.40884591664E+03  0.00000000000E+00 0. -1.
         21   -1    0    0  501  502  0.00000000000E+00 -0.00000000000E+00 -0.12806428771E+03  0.12806428771E+03  0.00000000000E+00 0. -1.
         23    2    1    2    0    0 -0.82069917327E+02  0.75341610362E+02  0.12378553189E+03  0.19034437114E+03  0.92175333658E+02 0.  0.
         23    2    1    2    0    0  0.30164240746E+02 -0.14831851818E+03  0.18496819608E+03  0.25274543745E+03  0.82211667874E+02 0.  0.
        -11    1    3    3    0    0 -0.57511386645E+02  0.50146281872E+02  0.13356710398E+03  0.15382581203E+03  0.00000000000E+00 0. -1.
         11    1    3    3    0    0 -0.24558530682E+02  0.25195328489E+02 -0.97815720883E+01  0.36518559110E+02  0.00000000000E+00 0.  1.
        -13    1    4    4    0    0  0.83438340208E+01 -0.13340102611E+03  0.10951862399E+03  0.17279983314E+03  0.00000000000E+00 0. -1.
         13    1    4    4    0    0  0.21820406725E+02 -0.14917492071E+02  0.75449572088E+02  0.79945604304E+02  0.00000000000E+00 0.  1.
          1    1    1    2  501    0  0.51905676581E+02  0.72976907820E+02 -0.27972099041E+02  0.93820395763E+02  0.00000000000E+00 0. -1.
<scales pt_clust_5="13000.00000" pt_clust_6="13000.00000" pt_clust_7="13000.00000" pt_clust_8="13000.00000" pt_clust_9="89.55349"></scales>
<clustering>
<clus scale="   82.212">  7  8 -1 -1</clus>
<clus scale="   89.553">  2  9  1 -1</clus>
<clus scale="   92.175">  5  6 -1 -1</clus>
<clus scale="  149.554">  2  7  1 -1</clus>
<clus scale="   89.553">  2  5  1 -1</clus>
</clustering>
</event>
<event>
 9    1  0.1601012E-005  0.1040408E+03  0.7546771E-02  0.1272102E+00
          2   -1    0    0  502    0 -0.00000000000E+00  0.00000000000E+00  0.16004647208E+03  0.16004647208E+03  0.00000000000E+00 0. -1.
         21   -1    0    0  501  502  0.00000000000E+00 -0.00000000000E+00 -0.92997831314E+02  0.92997831314E+02  0.00000000000E+00 0.  1.
         23    2    1    2    0    0 -0.45750860975E+02  0.19202811637E+02  0.41052265528E+02  0.11166700108E+03  0.91226867590E+02 0.  0.
         23    2    1    2    0    0  0.54326923258E+02  0.10529363235E+02  0.28632940603E+02  0.11032086106E+03  0.91041556534E+02 0.  0.
        -11    1    3    3    0    0 -0.69378166968E+02  0.16649891476E+02  0.92187377110E+01  0.71941184748E+02  0.00000000000E+00 0. -1.
         11    1    3    3    0    0  0.23627305993E+02  0.25529201608E+01  0.31833527817E+02  0.39725816331E+02  0.00000000000E+00 0.  1.
        -13    1    4    4    0    0  0.79123302723E+02  0.14323195327E+02  0.28267649453E+02  0.85233273806E+02  0.00000000000E+00 0.  1.
         13    1    4    4    0    0 -0.24796379465E+02 -0.37938320921E+01  0.36529115029E+00  0.25087587252E+02  0.00000000000E+00 0. -1.
          2    1    1    2  501    0 -0.85760622834E+01 -0.29732174872E+02 -0.26365653618E+01  0.31056441261E+02  0.00000000000E+00 0. -1.
<scales pt_clust_5="13000.00000" pt_clust_6="13000.00000" pt_clust_7="13000.00000" pt_clust_8="13000.00000" pt_clust_9="30.94432"></scales>
<clustering>
<clus scale="   30.944">  2  9  1 -1</clus>
<clus scale="   91.042">  7  8 -1 -1</clus>
<clus scale="   91.227">  5  6 -1 -1</clus>
<clus scale="  103.878">  2  7  1 -1</clus>
<clus scale="   30.944">  2  5  1 -1</clus>
</clustering>
</event>
<event>
 9    1  0.1601012E-005  0.1274073E+03  0.7546771E-02  0.1232037E+00
         21   -1    0    0  501  502  0.00000000000E+00  0.00000000000E+00  0.98467272722E+02  0.98467272722E+02  0.00000000000E+00 0. -1.
          1   -1    0    0  502    0 -0.00000000000E+00 -0.00000000000E+00 -0.28368515015E+03  0.28368515015E+03  0.00000000000E+00 0. -1.
         23    2    1    2    0    0 -0.95257456500E+02 -0.31680697078E+02 -0.17985128656E+03  0.22487653354E+03  0.90251429213E+02 0.  0.
         23    2    1    2    0    0  0.70696039269E+02  0.29212837353E+01 -0.23823058881E+02  0.11519254009E+03  0.87722969002E+02 0.  0.
        -11    1    3    3    0    0 -0.98082847008E+02 -0.53610473809E+02 -0.13844479308E+03  0.17793619225E+03  0.00000000000E+00 0. -1.
         11    1    3    3    0    0  0.28253905085E+01  0.21929776732E+02 -0.41406493478E+02  0.46940341298E+02  0.00000000000E+00 0.  1.
        -13    1    4    4    0    0  0.30853140162E+02 -0.39967961175E+02 -0.25631626394E+02  0.56624503971E+02  0.00000000000E+00 0.  1.
         13    1    4    4    0    0  0.39842899106E+02  0.42889244910E+02  0.18085675128E+01  0.58568036117E+02  0.00000000000E+00 0. -1.
          1    1    1    2  501    0  0.24561417231E+02  0.28759413343E+02  0.18456468010E+02  0.42083349245E+02  0.00000000000E+00 0. -1.
<scales pt_clust_5="13000.00000" pt_clust_6="13000.00000" pt_clust_7="13000.00000" pt_clust_8="13000.00000" pt_clust_9="37.82019"></scales>
<clustering>
<clus scale="   37.820">  1  9  2 -1</clus>
<clus scale="   87.723">  7  8 -1 -1</clus>
<clus scale="   90.251">  5  6 -1 -1</clus>
<clus scale="  125.629">  1  7  2 -1</clus>
<clus scale="   37.820">  1  5  2 -1</clus>
</clustering>
</event>
<event>
 9    1  0.1601012E-005  0.1590221E+03  0.7546771E-02  0.1189856E+00
          3   -1    0    0  502    0 -0.00000000000E+00  0.00000000000E+00  0.71617172845E+03  0.71617172845E+03  0.00000000000E+00 0. -1.
         21   -1    0    0  501  502  0.00000000000E+00 -0.00000000000E+00 -0.44164927138E+02  0.44164927138E+02  0.00000000000E+00 0.  1.
         23    2    1    2    0    0 -0.10138280240E+02 -0.13611162974E+03  0.40584570141E+03  0.43780832790E+03  0.91303001866E+02 0.  0.
         23    2    1    2    0    0  0.33104089230E+02  0.11731656008E+03  0.22254900818E+03  0.26977704741E+03  0.91610797819E+02 0.  0.
        -11    1    4    4    0    0  0.17918655516E+01  0.92241157220E+02  0.20722531454E+03  0.22683468177E+03  0.00000000000E+00 0. -1.
         11    1    4    4    0    0  0.31312223678E+02  0.25075402858E+02  0.15323693637E+02  0.42942365640E+02  0.00000000000E+00 0.  1.
        -13    1    3    3    0    0 -0.35264133480E+02 -0.11631417795E+02  0.97935890918E+02  0.10473914130E+03  0.00000000000E+00 0. -1.
         13    1    3    3    0    0  0.25125853240E+02 -0.12448021194E+03  0.30790981049E+03  0.33306918660E+03  0.00000000000E+00 0.  1.
          3    1    1    2  501    0 -0.22965808989E+02  0.18795069661E+02  0.43612091722E+02  0.52751280273E+02  0.00000000000E+00 0. -1.
<scales pt_clust_5="13000.00000" pt_clust_6="13000.00000" pt_clust_7="13000.00000" pt_clust_8="13000.00000" pt_clust_9="29.67630"></scales>
<clustering>
<clus scale="   29.676">  2  9  1 -1</clus>
<clus scale="   91.303">  7  8 -1 -1</clus>
<clus scale="   91.611">  5  6 -1 -1</clus>
<clus scale="  158.845">  1  7  2 -1</clus>
<clus scale="   29.676">  2  5  1 -1</clus>
</clustering>
</event>
<event>
 9    1  0.1601012E-005  0.1680060E+03  0.7546771E-02  0.1182551E+00
         21   -1    0    0  501  502  0.00000000000E+00  0.00000000000E+00  0.56889134706E+03  0.56889134706E+03  0.00000000000E+00 0.  1.
          1   -1    0    0  502    0 -0.00000000000E+00 -0.00000000000E+00 -0.11065727768E+03  0.11065727768E+03  0.00000000000E+00 0. -1.
         23    2    1    2    0    0  0.13063729261E+03  0.31701608705E+02 -0.11679730495E+01  0.16093749047E+03  0.88478344595E+02 0.  0.
         23    2    1    2    0    0 -0.99893056114E+02 -0.70084294954E+02  0.43493111230E+03  0.46368149653E+03  0.10461848174E+03 0.  0.
        -11    1    3    3    0    0  0.98665977798E+02  0.38914092499E+02  0.35416156529E+02  0.11181943442E+03  0.00000000000E+00 0.  1.
         11    1    3    3    0    0  0.31971314810E+02 -0.72124837940E+01 -0.36584129579E+02  0.49118056051E+02  0.00000000000E+00 0. -1.
        -13    1    4    4    0    0 -0.16840439269E+02 -0.39839727899E+02  0.39775885147E+02  0.58761597604E+02  0.00000000000E+00 0. -1.
         13    1    4    4    0    0 -0.83052616845E+02 -0.30244567055E+02  0.39515522715E+03  0.40491989893E+03  0.00000000000E+00 0.  1.
          1    1    1    2  501    0 -0.30744236495E+02  0.38382686248E+02  0.24470930131E+02  0.54929637744E+02  0.00000000000E+00 0. -1.
<scales pt_clust_5="13000.00000" pt_clust_6="13000.00000" pt_clust_7="13000.00000" pt_clust_8="13000.00000" pt_clust_9="49.17765"></scales>
<clustering>
<clus scale="   49.178">  1  9  2 -1</clus>
<clus scale="   88.478">  5  6 -1 -1</clus>
<clus scale="  104.618">  7  8 -1 -1</clus>
<clus scale="  158.459">  2  5  1 -1</clus>
<clus scale="   49.178">  1  5  2 -1</clus>
</clustering>
</event>
<event>
 9    1  0.1601012E-005  0.9673519E+02  0.7546771E-02  0.1289997E+00
          1   -1    0    0  502    0 -0.00000000000E+00  0.00000000000E+00  0.28374649426E+03  0.28374649426E+03  0.00000000000E+00 0. -1.
         21   -1    0    0  501  502  0.00000000000E+00 -0.00000000000E+00 -0.79044436019E+02  0.79044436019E+02  0.00000000000E+00 0.  1.
         23    2    1    2    0    0 -0.21963968734E+02 -0.83993447699E+01  0.19237100214E+03  0.21468532721E+03  0.92359202796E+02 0.  0.
         23    2    1    2    0    0  0.28765158185E+02  0.48954455348E+02  0.20452631557E+02  0.10618981654E+03  0.87372730159E+02 0.  0.
        -11    1    4    4    0    0 -0.22059072219E+02  0.47115438421E+02  0.18764313953E+02  0.55304309804E+02  0.00000000000E+00 0. -1.
         11    1    4    4    0    0  0.50824230404E+02  0.18390169272E+01  0.16883176035E+01  0.50885506736E+02  0.00000000000E+00 0.  1.
        -13    1    3    3    0    0 -0.31889307754E+02 -0.44418200564E+02  0.14045500122E+03  0.15072329567E+03  0.00000000000E+00 0. -1.
         13    1    3    3    0    0  0.99253390202E+01  0.36018855794E+02  0.51916000920E+02  0.63962031542E+02  0.00000000000E+00 0.  1.
          1    1    1    2  501    0 -0.68011894511E+01 -0.40555110578E+02 -0.81215754586E+01  0.41915786524E+02  0.00000000000E+00 0. -1.
<scales pt_clust_5="13000.00000" pt_clust_6="13000.00000" pt_clust_7="13000.00000" pt_clust_8="13000.00000" pt_clust_9="41.12144"></scales>
<clustering>
<clus scale="   41.121">  2  9  1 -1</clus>
<clus scale="   87.373">  5  6 -1 -1</clus>
<clus scale="   91.986">  2  5  1 -1</clus>
<clus scale="   92.359">  7  8 -1 -1</clus>
<clus scale="   41.121">  2  5  1 -1</clus>
</clustering>
</event>
<event>
 9    1  0.1601012E-005  0.1146412E+03  0.7546771E-02  0.1254781E+00
         21   -1    0    0  501  502  0.00000000000E+00  0.00000000000E+00  0.56419108319E+02  0.56419108319E+02  0.00000000000E+00 0. -1.
          1   -1    0    0  502    0 -0.00000000000E+00 -0.00000000000E+00 -0.49222180587E+03  0.49222180587E+03  0.00000000000E+00 0. -1.
         23    2    1    2    0    0  0.24973885494E+02 -0.63589042915E+02 -0.35141531783E+03  0.37126396107E+03  0.98371448357E+02 0.  0.
         23    2    1    2    0    0 -0.42166112310E+02  0.17606964547E+02 -0.76101894627E+02  0.12759167962E+03  0.91652343749E+02 0.  0.
        -13    1    3    3    0    0  0.44236313273E+02 -0.30496894274E+01 -0.22996703420E+03  0.23420287965E+03  0.00000000000E+00 0.  1.
         13    1    3    3    0    0 -0.19262427779E+02 -0.60539353488E+02 -0.12144828363E+03  0.13706108143E+03  0.00000000000E+00 0. -1.
        -13    1    4    4    0    0  0.14191475255E+02 -0.18939782073E+02 -0.50385348298E+02  0.55666836070E+02  0.00000000000E+00 0. -1.
         13    1    4    4    0    0 -0.56357587565E+02  0.36546746620E+02 -0.25716546329E+02  0.71924843550E+02  0.00000000000E+00 0.  1.
          1    1    1    2  501    0  0.17192226816E+02  0.45982078369E+02 -0.82854850989E+01  0.49785273499E+02  0.00000000000E+00 0. -1.
<scales pt_clust_5="13000.00000" pt_clust_6="13000.00000" pt_clust_7="13000.00000" pt_clust_8="13000.00000" pt_clust_9="49.09098"></scales>
<clustering>
<clus scale="   49.091">  1  9  2 -1</clus>
<clus scale="   91.652">  7  8 -1 -1</clus>
<clus scale="   98.371">  5  6 -1 -1</clus>
<clus scale="  108.930">  1  7  2 -1</clus>
<clus scale="   49.091">  1  5  2 -1</clus>
</clustering>
</event>
<event>
 9    1  0.1601012E-005  0.9180436E+02  0.7546771E-02  0.1299536E+00
          1   -1    0    0  502    0 -0.00000000000E+00  0.00000000000E+00  0.40462961055E+03  0.40462961055E+03  0.00000000000E+00 0. -1.
         21   -1    0    0  501  502  0.00000000000E+00 -0.00000000000E+00 -0.60891071685E+02  0.60891071685E+02  0.00000000000E+00 0. -1.
         23    2    1    2    0    0 -0.72905324226E+01 -0.86218155999E+01  0.24681903659E+03  0.26353309813E+03  0.91665530161E+02 0.  0.
         23    2    1    2    0    0 -0.79518327279E+00 -0.22458566009E+02  0.12748183697E+03  0.15765446758E+03  0.89990515535E+02 0.  0.
        -13    1    4    4    0    0 -0.34695152914E+02 -0.31371917870E+02  0.10766814731E+03  0.11738986673E+03  0.00000000000E+00 0. -1.
         13    1    4    4    0    0  0.33899969642E+02  0.89133518609E+01  0.19813689659E+02  0.40264600842E+02  0.00000000000E+00 0.  1.
        -13    1    3    3    0    0 -0.38150924335E+02 -0.21207686847E+02  0.20725829014E+03  0.21180476350E+03  0.00000000000E+00 0.  1.
         13    1    3    3    0    0  0.30860391913E+02  0.12585871247E+02  0.39560746450E+02  0.51728334631E+02  0.00000000000E+00 0. -1.
          1    1    1    2  501    0  0.80857156954E+01  0.31080381609E+02 -0.30562334693E+02  0.44333116529E+02  0.00000000000E+00 0. -1.
<scales pt_clust_5="13000.00000" pt_clust_6="13000.00000" pt_clust_7="13000.00000" pt_clust_8="13000.00000" pt_clust_9="32.11493"></scales>
<clustering>
<clus scale="   32.115">  2  9  1 -1</clus>
<clus scale="   89.991">  5  6 -1 -1</clus>
<clus scale="   90.132">  2  5  1 -1</clus>
<clus scale="   91.666">  7  8 -1 -1</clus>
<clus scale="   32.115">  2  5  1 -1</clus>
</clustering>
</event>
<event>
 9    1  0.1601012E-005  0.1146243E+03  0.7546771E-02  0.1255239E+00
         -1   -1    0    0    0  501 -0.00000000000E+00  0.00000000000E+00  0.21619679951E+03  0.21619679951E+03  0.00000000000E+00 0.  1.
         21   -1    0    0  501  502  0.00000000000E+00 -0.00000000000E+00 -0.13043981298E+03  0.13043981298E+03  0.00000000000E+00 0.  1.
         23    2    1    2    0    0 -0.20469284168E+02  0.45879477272E+02  0.98340485499E+02  0.14882579100E+03  0.99771473628E+02 0.  0.
         23    2    1    2    0    0 -0.33139731416E+02 -0.85585090159E+02 -0.16146709421E+02  0.13100394522E+03  0.92077510737E+02 0.  0.
        -11    1    3    3    0    0 -0.17445135888E+02  0.77119020067E+02  0.79974182608E+02  0.11246130848E+03  0.00000000000E+00 0.  1.
         11    1    3    3    0    0 -0.30241482800E+01 -0.31239542795E+02  0.18366302891E+02  0.36364482517E+02  0.00000000000E+00 0. -1.
        -11    1    4    4    0    0  0.38758107536E+01 -0.86816939545E+02 -0.29287365917E+02  0.91705794274E+02  0.00000000000E+00 0. -1.
         11    1    4    4    0    0 -0.37015542170E+02  0.12318493865E+01  0.13140656496E+02  0.39298150951E+02  0.00000000000E+00 0.  1.
         -1    1    1    2    0  502  0.53609015584E+02  0.39705612886E+02  0.35632104546E+01  0.66806876258E+02  0.00000000000E+00 0.  1.
<scales pt_clust_5="13000.00000" pt_clust_6="13000.00000" pt_clust_7="13000.00000" pt_clust_8="13000.00000" pt_clust_9="66.71178"></scales>
<clustering>
<clus scale="   66.712">  2  9  1 -1</clus>
<clus scale="   92.078">  7  8 -1 -1</clus>
<clus scale="   99.771">  5  6 -1 -1</clus>
<clus scale="  107.994">  2  7  1 -1</clus>
<clus scale="   66.712">  2  5  1 -1</clus>
</clustering>
</event>
<event>
 9    1  0.1601012E-005  0.1292394E+03  0.7546771E-02  0.1228641E+00
         21   -1    0    0  501  502  0.00000000000E+00  0.00000000000E+00  0.16283227272E+03  0.16283227272E+03  0.00000000000E+00 0.  1.
         -4   -1    0    0    0  501 -0.00000000000E+00 -0.00000000000E+00 -0.30272621841E+03  0.30272621841E+03  0.00000000000E+00 0.  1.
         23    2    1    2    0    0  0.58752441548E+02 -0.77396937955E+02 -0.19681963867E+03  0.23847218148E+03  0.93214139373E+02 0.  0.
         23    2    1    2    0    0  0.28471720666E+02  0.87746023051E+02  0.25079210194E+02  0.13365528428E+03  0.93406449412E+02 0.  0.
        -11    1    3    3    0    0  0.11704298476E+02  0.21412242844E+02 -0.46764436088E+02  0.52748338638E+02  0.00000000000E+00 0. -1.
         11    1    3    3    0    0  0.47048143072E+02 -0.98809180799E+02 -0.15005520259E+03  0.18572384284E+03  0.00000000000E+00 0.  1.
        -13    1    4    4    0    0  0.61429775703E+02  0.46906491439E+02  0.24810391813E+02  0.81175068980E+02  0.00000000000E+00 0.  1.
         13    1    4    4    0    0 -0.32958055037E+02  0.40839531612E+02  0.26881838146E+00  0.52480215295E+02  0.00000000000E+00 0. -1.
         -4    1    1    2    0  502 -0.87224162214E+02 -0.10349085096E+02  0.31846482785E+02  0.93431025372E+02  0.00000000000E+00 0.  1.
<scales pt_clust_5="13000.00000" pt_clust_6="13000.00000" pt_clust_7="13000.00000" pt_clust_8="13000.00000" pt_clust_9="87.83597"></scales>
<clustering>
<clus scale="   87.836">  1  9  2 -1</clus>
<clus scale="   93.214">  5  6 -1 -1</clus>
<clus scale="   93.406">  7  8 -1 -1</clus>
<clus scale="  129.100">  2  5  1 -1</clus>
<clus scale="   87.836">  1  5  2 -1</clus>
</clustering>
</event>
<event>
 9    1  0.1601012E-005  0.3197478E+03  0.7546771E-02  0.1076052E+00
         -3   -1    0    0    0  501 -0.00000000000E+00  0.00000000000E+00  0.29287423561E+04  0.29287423561E+04  0.00000000000E+00 0.  1.
         21   -1    0    0  501  502  0.00000000000E+00 -0.00000000000E+00 -0.50544209001E+02  0.50544209001E+02  0.00000000000E+00 0.  1.
         23    2    1    2    0    0 -0.27662156455E+03  0.21823766769E+03  0.17286121504E+04  0.17663472416E+04  0.87951360289E+02 0.  0.
         23    2    1    2    0    0  0.18403278385E+03 -0.17958556188E+03  0.95904987624E+03  0.99760079748E+03  0.96496872782E+02 0.  0.
        -11    1    3    3    0    0 -0.17463690803E+03  0.15067859300E+03  0.13129812456E+04  0.13330873337E+04  0.00000000000E+00 0.  1.
         11    1    3    3    0    0 -0.10198465651E+03  0.67559074693E+02  0.41563090483E+03  0.43325990790E+03  0.00000000000E+00 0. -1.
        -11    1    4    4    0    0  0.51959591786E+02 -0.85643911971E+02  0.52068691624E+03  0.53023536621E+03  0.00000000000E+00 0.  1.
         11    1    4    4    0    0  0.13207319207E+03 -0.93941649908E+02  0.43836296000E+03  0.46736543127E+03  0.00000000000E+00 0. -1.
         -3    1    1    2    0  502  0.92588780693E+02 -0.38652105810E+02  0.19053612046E+03  0.21533852603E+03  0.00000000000E+00 0.  1.
<scales pt_clust_5="13000.00000" pt_clust_6="13000.00000" pt_clust_7="13000.00000" pt_clust_8="13000.00000" pt_clust_9="100.33278"></scales>
<clustering>
<clus scale="   87.951">  5  6 -1 -1</clus>
<clus scale="   96.497">  7  8 -1 -1</clus>
<clus scale="  100.333">  2  9  1 -1</clus>
<clus scale="  317.273">  1  5  2 -1</clus>
<clus scale="  100.333">  2  5  1 -1</clus>
</clustering>
</event>
<event>
 9    1  0.1601012E-005  0.1051434E+03  0.7546771E-02  0.1271620E+00
          1   -1    0    0  502    0 -0.00000000000E+00  0.00000000000E+00  0.40289514309E+03  0.40289514309E+03  0.00000000000E+00 0. -1.
         21   -1    0    0  501  502  0.00000000000E+00 -0.00000000000E+00 -0.10431170138E+03  0.10431170138E+03  0.00000000000E+00 0. -1.
         23    2    1    2    0    0 -0.71516756821E+00 -0.53608389112E+02  0.17509515334E+03  0.20484211072E+03  0.91801997529E+02 0.  0.
         23    2    1    2    0    0  0.61416757180E+02  0.28332042872E+02  0.18285125933E+03  0.21377839743E+03  0.87703463189E+02 0.  0.
        -13    1    3    3    0    0 -0.44042255798E+02 -0.31948719397E+02  0.66422625806E+02  0.85862717089E+02  0.00000000000E+00 0. -1.
         13    1    3    3    0    0  0.43327088229E+02 -0.21659669715E+02  0.10867252754E+03  0.11897939363E+03  0.00000000000E+00 0.  1.
        -13    1    4    4    0    0  0.76202743720E+02  0.80561971899E+01  0.16792040021E+03  0.18457795446E+03  0.00000000000E+00 0. -1.
         13    1    4    4    0    0 -0.14785986540E+02  0.20275845682E+02  0.14930859113E+02  0.29200442975E+02  0.00000000000E+00 0.  1.
          1    1    1    2  501    0 -0.60701589612E+02  0.25276346239E+02 -0.59362970968E+02  0.88586336321E+02  0.00000000000E+00 0. -1.
<scales pt_clust_5="13000.00000" pt_clust_6="13000.00000" pt_clust_7="13000.00000" pt_clust_8="13000.00000" pt_clust_9="65.75391"></scales>
<clustering>
<clus scale="   65.754">  2  9  1 -1</clus>
<clus scale="   87.703">  7  8 -1 -1</clus>
<clus scale="   91.802">  5  6 -1 -1</clus>
<clus scale="  101.585">  2  7  1 -1</clus>
<clus scale="   65.754">  2  5  1 -1</clus>
</clustering>
</event>
<event>
 9    1  0.1601012E-005  0.1357762E+03  0.7546771E-02  0.1237432E+00
         -1   -1    0    0    0  501 -0.00000000000E+00  0.00000000000E+00  0.11035594055E+03  0.11035594055E+03  0.00000000000E+00 0.  1.
         21   -1    0    0  501  502  0.00000000000E+00 -0.00000000000E+00 -0.35057851720E+03  0.35057851720E+03  0.00000000000E+00 0.  1.
         23    2    1    2    0    0 -0.75393488592E+01 -0.20340240136E+02 -0.66099075426E+02  0.11404802384E+03  0.90373097871E+02 0.  0.
         23    2    1    2    0    0  0.64512921698E+02 -0.65174756858E+02  0.16673879496E+02  0.13017823563E+03  0.90877328173E+02 0.  0.
        -11    1    3    3    0    0 -0.17407912692E+02 -0.51877131680E+02 -0.58573805775E+02  0.80157114086E+02  0.00000000000E+00 0.  1.
         11    1    3    3    0    0  0.98685638328E+01  0.31536891544E+02 -0.75252696513E+01  0.33890909751E+02  0.00000000000E+00 0. -1.
        -13    1    4    4    0    0  0.30781770529E+02 -0.35539412293E+02 -0.37267143460E+02  0.59995059835E+02  0.00000000000E+00 0. -1.
         13    1    4    4    0    0  0.33731151169E+02 -0.29635344566E+02  0.53941022955E+02  0.70183175791E+02  0.00000000000E+00 0.  1.
         -1    1    1    2    0  502 -0.56973572838E+02  0.85514996994E+02 -0.19079738072E+03  0.21670819828E+03  0.00000000000E+00 0.  1.
<scales pt_clust_5="13000.00000" pt_clust_6="13000.00000" pt_clust_7="13000.00000" pt_clust_8="13000.00000" pt_clust_9="100.87857"></scales>
<clustering>
<clus scale="   90.373">  5  6 -1 -1</clus>
<clus scale="   90.877">  7  8 -1 -1</clus>
<clus scale="   92.940">  1  5  2 -1</clus>
<clus scale="  100.879">  2  9  1 -1</clus>
<clus scale="  100.879">  2  5  1 -1</clus>
</clustering>
</event>
<event>
 9    1  0.1601012E-005  0.1472592E+03  0.7546771E-02  0.1204050E+00
         21   -1    0    0  501  502  0.00000000000E+00  0.00000000000E+00  0.15434979957E+03  0.15434979957E+03  0.00000000000E+00 0. -1.
          1   -1    0    0  502    0 -0.00000000000E+00 -0.00000000000E+00 -0.40138072028E+03  0.40138072028E+03  0.00000000000E+00 0. -1.
         23    2    1    2    0    0 -0.10904409313E+03  0.43477003708E+02 -0.32310925610E+03  0.35553236376E+03  0.90679690140E+02 0.  0.
         23    2    1    2    0    0  0.91188972294E+02 -0.54390881490E+02  0.21608849557E+02  0.14184712393E+03  0.91541616388E+02 0.  0.
        -11    1    3    3    0    0 -0.10293419344E+03  0.53896942122E+01 -0.27615816479E+03  0.29476741502E+03  0.00000000000E+00 0. -1.
         11    1    3    3    0    0 -0.61098996880E+01  0.38087309496E+02 -0.46951091315E+02  0.60764948733E+02  0.00000000000E+00 0.  1.
        -11    1    4    4    0    0  0.85697263643E+02 -0.16893685676E+02  0.44027554669E+02  0.97815352484E+02  0.00000000000E+00 0. -1.
         11    1    4    4    0    0  0.54917086512E+01 -0.37497195814E+02 -0.22418705112E+02  0.44031771446E+02  0.00000000000E+00 0.  1.
          1    1    1    2  501    0  0.17855120832E+02  0.10913877782E+02  0.54469485832E+02  0.58351032167E+02  0.00000000000E+00 0. -1.
<scales pt_clust_5="13000.00000" pt_clust_6="13000.00000" pt_clust_7="13000.00000" pt_clust_8="13000.00000" pt_clust_9="20.92649"></scales>
<clustering>
<clus scale="   20.926">  1  9  2 -1</clus>
<clus scale="   90.680">  5  6 -1 -1</clus>
<clus scale="   91.542">  7  8 -1 -1</clus>
<clus scale="  146.725">  2  5  1 -1</clus>
<clus scale="   20.926">  1  5  2 -1</clus>
</clustering>
</event>
<event>
 9    1  0.1601012E-005  0.1156057E+03  0.7546771E-02  0.1252715E+00
         -1   -1    0    0    0  501 -0.00000000000E+00  0.00000000000E+00  0.73578323555E+03  0.73578323555E+03  0.00000000000E+00 0.  1.
         21   -1    0    0  501  502  0.00000000000E+00 -0.00000000000E+00 -0.30084118281E+02  0.30084118281E+02  0.00000000000E+00 0. -1.
         23    2    1    2    0    0  0.46402024233E+02  0.47524191805E+02  0.30636607404E+03  0.32798810621E+03  0.96458954132E+02 0.  0.
         23    2    1    2    0    0 -0.73878698075E+02  0.24616202599E+01  0.21216095491E+03  0.24220876017E+03  0.90491386950E+02 0.  0.
        -11    1    3    3    0    0 -0.19987822135E+02  0.45782720125E+02  0.11348494507E+03  0.12399356134E+03  0.00000000000E+00 0. -1.
         11    1    3    3    0    0  0.66389846367E+02  0.17414716799E+01  0.19288112897E+03  0.20399454487E+03  0.00000000000E+00 0.  1.
        -11    1    4    4    0    0 -0.64853333771E+02  0.33894234662E+02  0.91325262758E+02  0.11702597003E+03  0.00000000000E+00 0.  1.
         11    1    4    4    0    0 -0.90253643037E+01 -0.31432614402E+02  0.12083569215E+03  0.12518279013E+03  0.00000000000E+00 0. -1.
         -1    1    1    2    0  502  0.27476673843E+02 -0.49985812065E+02  0.18717208833E+03  0.19567048746E+03  0.00000000000E+00 0.  1.
<scales pt_clust_5="13000.00000" pt_clust_6="13000.00000" pt_clust_7="13000.00000" pt_clust_8="13000.00000" pt_clust_9="57.03992"></scales>
<clustering>
<clus scale="   57.040">  2  9  1 -1</clus>
<clus scale="   90.491">  7  8 -1 -1</clus>
<clus scale="   96.459">  5  6 -1 -1</clus>
<clus scale="  110.675">  2  7  1 -1</clus>
<clus scale="   57.040">  2  5  1 -1</clus>
</clustering>
</event>
<event>
 9    1  0.1601012E-005  0.1066558E+03  0.7546771E-02  0.1269312E+00
          1   -1    0    0  502    0 -0.00000000000E+00  0.00000000000E+00  0.15888039777E+03  0.15888039777E+03  0.00000000000E+00 0. -1.
         21   -1    0    0  501  502  0.00000000000E+00 -0.00000000000E+00 -0.10841268547E+03  0.10841268547E+03  0.00000000000E+00 0.  1.
         23    2    1    2    0    0  0.33893822290E+02  0.53727650618E+01  0.54952966969E+01  0.10283858667E+03  0.96788009735E+02 0.  0.
         23    2    1    2    0    0 -0.39220218408E+02 -0.46968726589E+02  0.11054586583E+02  0.11051922392E+03  0.91367434910E+02 0.  0.
        -11    1    3    3    0    0  0.24050786658E+02  0.50780944621E+02  0.44438797614E+01  0.56363931222E+02  0.00000000000E+00 0. -1.
         11    1    3    3    0    0  0.98430356328E+01 -0.45408179559E+02  0.10514169355E+01  0.46474655447E+02  0.00000000000E+00 0.  1.
        -13    1    4    4    0    0  0.29844551397E+02 -0.19067899883E+02  0.52925375668E+01  0.35809119061E+02  0.00000000000E+00 0. -1.
         13    1    4    4    0    0 -0.69064769805E+02 -0.27900826706E+02  0.57620490160E+01  0.74710104859E+02  0.00000000000E+00 0.  1.
          1    1    1    2  501    0  0.53263961172E+01  0.41595961527E+02  0.33917829015E+02  0.53935272652E+02  0.00000000000E+00 0. -1.
<scales pt_clust_5="13000.00000" pt_clust_6="13000.00000" pt_clust_7="13000.00000" pt_clust_8="13000.00000" pt_clust_9="41.93562"></scales>
<clustering>
<clus scale="   41.936">  2  9  1 -1</clus>
<clus scale="   91.367">  7  8 -1 -1</clus>
<clus scale="   96.788">  5  6 -1 -1</clus>
<clus scale="  101.762">  2  7  1 -1</clus>
<clus scale="   41.936">  2  5  1 -1</clus>
</clustering>
</event>
<event>
 9    1  0.1601012E-005  0.1335235E+03  0.7546771E-02  0.1222920E+00
         21   -1    0    0  501  502  0.00000000000E+00  0.00000000000E+00  0.22478183456E+03  0.22478183456E+03  0.00000000000E+00 0.  1.
         -2   -1    0    0    0  501 -0.00000000000E+00 -0.00000000000E+00 -0.12137103043E+03  0.12137103043E+03  0.00000000000E+00 0.  1.
         23    2    1    2    0    0 -0.95316947129E+02 -0.12651768921E+02  0.29530439635E+01  0.13158575018E+03  0.89781409629E+02 0.  0.
         23    2    1    2    0    0  0.98119335329E+02 -0.24473490625E+02  0.38303957137E+02  0.14211552058E+03  0.92213189663E+02 0.  0.
        -11    1    4    4    0    0  0.65978601306E+02  0.23033002839E+02  0.46836133432E+02  0.84126799803E+02  0.00000000000E+00 0.  1.
         11    1    4    4    0    0  0.32140734022E+02 -0.47506493464E+02 -0.85321762954E+01  0.57988720775E+02  0.00000000000E+00 0. -1.
        -13    1    3    3    0    0 -0.79664089011E+02 -0.33335762135E+02 -0.28387006955E+02  0.90903587822E+02  0.00000000000E+00 0.  1.
         13    1    3    3    0    0 -0.15652858118E+02  0.20683993214E+02  0.31340050918E+02  0.40682162358E+02  0.00000000000E+00 0. -1.
         -2    1    1    2    0  502 -0.28023881996E+01  0.37125259545E+02  0.62153803029E+02  0.72451594233E+02  0.00000000000E+00 0.  1.
<scales pt_clust_5="13000.00000" pt_clust_6="13000.00000" pt_clust_7="13000.00000" pt_clust_8="13000.00000" pt_clust_9="37.23088"></scales>
<clustering>
<clus scale="   37.231">  1  9  2 -1</clus>
<clus scale="   89.781">  7  8 -1 -1</clus>
<clus scale="   92.213">  5  6 -1 -1</clus>
<clus scale="  131.856">  2  7  1 -1</clus>
<clus scale="   37.231">  1  5  2 -1</clus>
</clustering>
</event>
<event>
 9    1  0.1601012E-005  0.9157629E+02  0.7546771E-02  0.1299217E+00
         21   -1    0    0  501  502  0.00000000000E+00  0.00000000000E+00  0.69823203258E+02  0.69823203258E+02  0.00000000000E+00 0.  1.
          1   -1    0    0  502    0 -0.00000000000E+00 -0.00000000000E+00 -0.23934681204E+03  0.23934681204E+03  0.00000000000E+00 0. -1.
         23    2    1    2    0    0 -0.17256655031E+02 -0.14160189281E+02 -0.14717791870E+03  0.17431765830E+03  0.90702828718E+02 0.  0.
         23    2    1    2    0    0 -0.54746313657E+01 -0.19150567808E+02 -0.16797300261E+02  0.94144832529E+02  0.90467587345E+02 0.  0.
        -13    1    4    4    0    0  0.14398877536E+02 -0.38512087759E+02  0.21856379208E+02  0.46564040739E+02  0.00000000000E+00 0.  1.
         13    1    4    4    0    0 -0.19873508902E+02  0.19361519951E+02 -0.38653679469E+02  0.47580791790E+02  0.00000000000E+00 0. -1.
        -13    1    3    3    0    0  0.96344895290E+01  0.33549771646E+02 -0.34719741915E+02  0.49232824869E+02  0.00000000000E+00 0.  1.
         13    1    3    3    0    0 -0.26891144560E+02 -0.47709960927E+02 -0.11245817678E+03  0.12508483343E+03  0.00000000000E+00 0. -1.
          1    1    1    2  501    0  0.22731286397E+02  0.33310757089E+02 -0.55483898220E+01  0.40707524473E+02  0.00000000000E+00 0. -1.
<scales pt_clust_5="13000.00000" pt_clust_6="13000.00000" pt_clust_7="13000.00000" pt_clust_8="13000.00000" pt_clust_9="40.32763"></scales>
<clustering>
<clus scale="   40.328">  1  9  2 -1</clus>
<clus scale="   90.468">  5  6 -1 -1</clus>
<clus scale="   90.703">  7  8 -1 -1</clus>
<clus scale="   91.343">  1  5  2 -1</clus>
<clus scale="   40.328">  1  5  2 -1</clus>
</clustering>
</event>
<event>
 9    1  0.1601012E-005  0.1142955E+03  0.7546771E-02  0.1254680E+00
          1   -1    0    0  502    0 -0.00000000000E+00  0.00000000000E+00  0.18606357286E+03  0.18606357286E+03  0.00000000000E+00 0. -1.
         21   -1    0    0  501  502  0.00000000000E+00 -0.00000000000E+00 -0.11830611868E+03  0.11830611868E+03  0.00000000000E+00 0. -1.
         23    2    1    2    0    0  0.45074711564E+01  0.45237668901E+02  0.31717816964E+02  0.11501399629E+03  0.10077418045E+03 0.  0.
         23    2    1    2    0    0  0.56848186639E+02 -0.51046695866E+02  0.35385362818E+02  0.12772218478E+03  0.96038279346E+02 0.  0.
        -11    1    4    4    0    0  0.45285223241E+02 -0.70301447591E+02  0.53150313757E+02  0.99085825575E+02  0.00000000000E+00 0. -1.
         11    1    4    4    0    0  0.11562963398E+02  0.19254751725E+02 -0.17764950939E+02  0.28636359203E+02  0.00000000000E+00 0.  1.
        -13    1    3    3    0    0  0.46625790414E+02  0.42687273132E+02  0.17136911323E+01  0.63238472123E+02  0.00000000000E+00 0.  1.
         13    1    3    3    0    0 -0.42118319258E+02  0.25503957685E+01  0.30004125831E+02  0.51775524165E+02  0.00000000000E+00 0. -1.
          1    1    1    2  501    0 -0.61355657795E+02  0.58090269658E+01  0.65427439369E+00  0.61633510469E+02  0.00000000000E+00 0. -1.
<scales pt_clust_5="13000.00000" pt_clust_6="13000.00000" pt_clust_7="13000.00000" pt_clust_8="13000.00000" pt_clust_9="61.63004"></scales>
<clustering>
<clus scale="   61.630">  2  9  1 -1</clus>
<clus scale="   96.038">  5  6 -1 -1</clus>
<clus scale="  100.774">  7  8 -1 -1</clus>
<clus scale="  110.143">  2  5  1 -1</clus>
<clus scale="   61.630">  2  5  1 -1</clus>
</clustering>
</event>
<event>
 9    1  0.1601012E-005  0.1938349E+03  0.7546771E-02  0.1177139E+00
          1   -1    0    0  502    0 -0.00000000000E+00  0.00000000000E+00  0.59737039853E+02  0.59737039853E+02  0.00000000000E+00 0. -1.
         21   -1    0    0  501  502  0.00000000000E+00 -0.00000000000E+00 -0.10902184364E+04  0.10902184364E+04  0.00000000000E+00 0. -1.
         23    2    1    2    0    0  0.49768846740E+02  0.49147245537E+02 -0.16719156943E+03  0.20379581105E+03  0.93205803796E+02 0.  0.
         23    2    1    2    0    0  0.11279519421E+03  0.56825199775E+02 -0.18970518367E+03  0.24517928142E+03  0.90404447670E+02 0.  0.
        -11    1    4    4    0    0  0.70416446595E+02 -0.14092698652E+02 -0.75195416722E+02  0.10397803038E+03  0.00000000000E+00 0. -1.
         11    1    4    4    0    0  0.42378747612E+02  0.70917898428E+02 -0.11450976695E+03  0.14120125103E+03  0.00000000000E+00 0.  1.
        -13    1    3    3    0    0  0.66696070007E+02  0.18829453958E+02 -0.61884782077E+02  0.92912003227E+02  0.00000000000E+00 0.  1.
         13    1    3    3    0    0 -0.16927223267E+02  0.30317791578E+02 -0.10530678736E+03  0.11088380782E+03  0.00000000000E+00 0. -1.
          1    1    1    2  501    0 -0.16256404095E+03 -0.10597244531E+03 -0.67358464341E+03  0.70098038376E+03  0.00000000000E+00 0. -1.
<scales pt_clust_5="13000.00000" pt_clust_6="13000.00000" pt_clust_7="13000.00000" pt_clust_8="13000.00000" pt_clust_9="171.46142"></scales>
<clustering>
<clus scale="   90.404">  5  6 -1 -1</clus>
<clus scale="   93.206">  7  8 -1 -1</clus>
<clus scale="  116.532">  1  7  2 -1</clus>
<clus scale="  171.461">  2  9  1 -1</clus>
<clus scale="  171.461">  2  5  1 -1</clus>
</clustering>
</event>
<event>
 9    1  0.1601012E-005  0.1148680E+03  0.7546771E-02  0.1251829E+00
         21   -1    0    0  501  502  0.00000000000E+00  0.00000000000E+00  0.52906365729E+02  0.52906365729E+02  0.00000000000E+00 0. -1.
          2   -1    0    0  502    0 -0.00000000000E+00 -0.00000000000E+00 -0.39437757023E+03  0.39437757023E+03  0.00000000000E+00 0. -1.
         23    2    1    2    0    0 -0.69550520668E+02  0.28124764783E+02 -0.25024314242E+03  0.27658418402E+03  0.90823472745E+02 0.  0.
         23    2    1    2    0    0  0.49862551125E+02 -0.38648594699E+02 -0.97621391918E+02  0.14747817130E+03  0.90773823176E+02 0.  0.
        -11    1    4    4    0    0  0.35704587094E+02  0.19921933537E+02 -0.11689517284E+02  0.42524649202E+02  0.00000000000E+00 0.  1.
         11    1    4    4    0    0  0.14157964031E+02 -0.58570528236E+02 -0.85931874635E+02  0.10495352210E+03  0.00000000000E+00 0. -1.
        -13    1    3    3    0    0 -0.37544838821E+02  0.48714926545E+02 -0.73729497910E+02  0.96014571043E+02  0.00000000000E+00 0. -1.
         13    1    3    3    0    0 -0.32005681847E+02 -0.20590161763E+02 -0.17651364451E+03  0.18056961298E+03  0.00000000000E+00 0.  1.
          2    1    1    2  501    0  0.19687969543E+02  0.10523829916E+02  0.63933298391E+01  0.23221580637E+02  0.00000000000E+00 0. -1.
<scales pt_clust_5="13000.00000" pt_clust_6="13000.00000" pt_clust_7="13000.00000" pt_clust_8="13000.00000" pt_clust_9="22.32414"></scales>
<clustering>
<clus scale="   22.324">  1  9  2 -1</clus>
<clus scale="   90.774">  5  6 -1 -1</clus>
<clus scale="   90.823">  7  8 -1 -1</clus>
<clus scale="  114.829">  1  5  2 -1</clus>
<clus scale="   22.324">  1  5  2 -1</clus>
</clustering>
</event>
<event>
 9    1  0.1601012E-005  0.1099367E+03  0.7546771E-02  0.1261023E+00
          3   -1    0    0  502    0 -0.00000000000E+00  0.00000000000E+00  0.14472733916E+03  0.14472733916E+03  0.00000000000E+00 0. -1.
         21   -1    0    0  501  502  0.00000000000E+00 -0.00000000000E+00 -0.37387382291E+03  0.37387382291E+03  0.00000000000E+00 0. -1.
         23    2    1    2    0    0  0.18000114162E+02  0.65253193554E+02  0.10085832343E+03  0.15200499114E+03  0.91384531232E+02 0.  0.
         23    2    1    2    0    0 -0.26292917685E+02 -0.15098137445E+02 -0.13677638033E+03  0.16679245428E+03  0.90513387480E+02 0.  0.
        -11    1    3    3    0    0  0.52790590531E+02  0.32921630183E+02  0.36878539819E+02  0.72323626027E+02  0.00000000000E+00 0.  1.
         11    1    3    3    0    0 -0.34790476368E+02  0.32331563371E+02  0.63979783609E+02  0.79681365115E+02  0.00000000000E+00 0. -1.
        -13    1    4    4    0    0 -0.22203823864E+02  0.13326118353E+02  0.11372180598E+01  0.25920811898E+02  0.00000000000E+00 0. -1.
         13    1    4    4    0    0 -0.40890938212E+01 -0.28424255798E+02 -0.13791359839E+03  0.14087164238E+03  0.00000000000E+00 0.  1.
          3    1    1    2  501    0  0.82928035230E+01 -0.50155056109E+02 -0.19322842685E+03  0.19980371665E+03  0.00000000000E+00 0. -1.
<scales pt_clust_5="13000.00000" pt_clust_6="13000.00000" pt_clust_7="13000.00000" pt_clust_8="13000.00000" pt_clust_9="50.83601"></scales>
<clustering>
<clus scale="   50.836">  2  9  1 -1</clus>
<clus scale="   90.513">  7  8 -1 -1</clus>
<clus scale="   91.385">  5  6 -1 -1</clus>
<clus scale="  109.214">  2  7  1 -1</clus>
<clus scale="   50.836">  2  5  1 -1</clus>
</clustering>
</event>
<event>
 9    1  0.1601012E-005  0.1565003E+03  0.7546771E-02  0.1193462E+00
          1   -1    0    0  502    0 -0.00000000000E+00  0.00000000000E+00  0.57648162101E+03  0.57648162101E+03  0.00000000000E+00 0. -1.
         21   -1    0    0  501  502  0.00000000000E+00 -0.00000000000E+00 -0.63481427117E+02  0.63481427117E+02  0.00000000000E+00 0.  1.
         23    2    1    2    0    0 -0.67056470287E+01 -0.10978818308E+03  0.25007440490E+03  0.28923651419E+03  0.94984958328E+02 0.  0.
         23    2    1    2    0    0 -0.22436234173E+02  0.14375212768E+03  0.25178790155E+03  0.30460873576E+03  0.90671250757E+02 0.  0.
        -11    1    3    3    0    0 -0.35982132692E+02 -0.63657014289E+01  0.81400534900E+02  0.89226022604E+02  0.00000000000E+00 0. -1.
         11    1    3    3    0    0  0.29276485663E+02 -0.10342248165E+03  0.16867387000E+03  0.20001049158E+03  0.00000000000E+00 0.  1.
        -11    1    4    4    0    0  0.72345449005E+01  0.91280402001E+02  0.76737050658E+02  0.11946976761E+03  0.00000000000E+00 0.  1.
         11    1    4    4    0    0 -0.29670779073E+02  0.52471725680E+02  0.17505085090E+03  0.18513896815E+03  0.00000000000E+00 0. -1.
          1    1    1    2  501    0  0.29141881201E+02 -0.33963944600E+02  0.11137887445E+02  0.46117798186E+02  0.00000000000E+00 0. -1.
<scales pt_clust_5="13000.00000" pt_clust_6="13000.00000" pt_clust_7="13000.00000" pt_clust_8="13000.00000" pt_clust_9="44.75264"></scales>
<clustering>
<clus scale="   44.753">  2  9  1 -1</clus>
<clus scale="   90.671">  7  8 -1 -1</clus>
<clus scale="   94.985">  5  6 -1 -1</clus>
<clus scale="  153.920">  2  7  1 -1</clus>
<clus scale="   44.753">  2  5  1 -1</clus>
</clustering>
</event>
<event>
 9    1  0.1601012E-005  0.1045355E+03  0.7546771E-02  0.1271373E+00
          1   -1    0    0  502    0 -0.00000000000E+00  0.00000000000E+00  0.56569313624E+03  0.56569313624E+03  0.00000000000E+00 0. -1.
         21   -1    0    0  501  502  0.00000000000E+00 -0.00000000000E+00 -0.28731854888E+02  0.28731854888E+02  0.00000000000E+00 0. -1.
         23    2    1    2    0    0 -0.52668559495E+02 -0.75302475738E+01  0.31261319708E+03  0.32929844548E+03  0.88768087834E+02 0.  0.
         23    2    1    2    0    0  0.58949927698E+02 -0.12770253297E+02  0.21840645065E+03  0.24306143898E+03  0.87973360116E+02 0.  0.
        -13    1    3    3    0    0  0.20538615755E+02  0.11536972753E+02  0.40373713356E+02  0.46743696983E+02  0.00000000000E+00 0.  1.
         13    1    3    3    0    0 -0.73207175250E+02 -0.19067220327E+02  0.27223948372E+03  0.28255474849E+03  0.00000000000E+00 0. -1.
        -13    1    4    4    0    0  0.10222775229E+01  0.29630182333E+02  0.33645354751E+02  0.44844204227E+02  0.00000000000E+00 0.  1.
         13    1    4    4    0    0  0.57927650175E+02 -0.42400435630E+02  0.18476109590E+03  0.19821723476E+03  0.00000000000E+00 0. -1.
          1    1    1    2  501    0 -0.62813682027E+01  0.20300500871E+02  0.59416336204E+01  0.22065106666E+02  0.00000000000E+00 0. -1.
<scales pt_clust_5="13000.00000" pt_clust_6="13000.00000" pt_clust_7="13000.00000" pt_clust_8="13000.00000" pt_clust_9="21.25008"></scales>
<clustering>
<clus scale="   21.250">  2  9  1 -1</clus>
<clus scale="   87.973">  7  8 -1 -1</clus>
<clus scale="   88.768">  5  6 -1 -1</clus>
<clus scale="  103.861">  2  7  1 -1</clus>
<clus scale="   21.250">  2  5  1 -1</clus>
</clustering>
</event>
<event>
 9    1  0.1601012E-005  0.1013393E+03  0.7546771E-02  0.1278589E+00
         21   -1    0    0  501  502  0.00000000000E+00  0.00000000000E+00  0.21802934792E+03  0.21802934792E+03  0.00000000000E+00 0. -1.
          3   -1    0    0  502    0 -0.00000000000E+00 -0.00000000000E+00 -0.12218462390E+03  0.12218462390E+03  0.00000000000E+00 0. -1.
         23    2    1    2    0    0  0.27931829377E+02 -0.36030011896E+02 -0.22848765619E+02  0.10325712208E+03  0.89786515248E+02 0.  0.
         23    2    1    2    0    0  0.11603490029E+01  0.44158628168E+02 -0.11991109311E+02  0.10282671274E+03  0.92077224654E+02 0.  0.
        -11    1    4    4    0    0 -0.43952531742E+02  0.33662322456E+02 -0.17484134824E+01  0.55389836156E+02  0.00000000000E+00 0.  1.
         11    1    4    4    0    0  0.45112880745E+02  0.10496305711E+02 -0.10242695828E+02  0.47436876589E+02  0.00000000000E+00 0. -1.
        -13    1    3    3    0    0  0.33064351086E+02  0.20609867548E+02 -0.25089345155E+02  0.46341053003E+02  0.00000000000E+00 0.  1.
         13    1    3    3    0    0 -0.51325217087E+01 -0.56639879444E+02  0.22405795361E+01  0.56916069077E+02  0.00000000000E+00 0. -1.
          3    1    1    2  501    0 -0.29092178380E+02 -0.81286162716E+01  0.13068459896E+03  0.13413013699E+03  0.00000000000E+00 0. -1.
<scales pt_clust_5="13000.00000" pt_clust_6="13000.00000" pt_clust_7="13000.00000" pt_clust_8="13000.00000" pt_clust_9="30.20644"></scales>
<clustering>
<clus scale="   30.206">  1  9  2 -1</clus>
<clus scale="   89.787">  7  8 -1 -1</clus>
<clus scale="   92.077">  5  6 -1 -1</clus>
<clus scale="   99.263">  2  7  1 -1</clus>
<clus scale="   30.206">  1  5  2 -1</clus>
</clustering>
</event>
<event>
 9    1  0.1601012E-005  0.1319562E+03  0.7546771E-02  0.1234662E+00
          3   -1    0    0  502    0 -0.00000000000E+00  0.00000000000E+00  0.86030759930E+02  0.86030759930E+02  0.00000000000E+00 0. -1.
         21   -1    0    0  501  502  0.00000000000E+00 -0.00000000000E+00 -0.47291437155E+03  0.47291437155E+03  0.00000000000E+00 0. -1.
         23    2    1    2    0    0 -0.57470081694E+02  0.14110603703E+02 -0.24045324433E+03  0.26324520751E+03  0.89321649888E+02 0.  0.
         23    2    1    2    0    0 -0.25316238521E+02  0.54139630208E+02  0.60779620039E+01  0.10923153591E+03  0.91228149840E+02 0.  0.
        -11    1    4    4    0    0 -0.21212598943E+02 -0.18684823553E+02  0.20449089146E+02  0.34889285347E+02  0.00000000000E+00 0.  1.
         11    1    4    4    0    0 -0.41036395780E+01  0.72824453761E+02 -0.14371127142E+02  0.74342250563E+02  0.00000000000E+00 0. -1.
        -11    1    3    3    0    0 -0.60626039985E+01 -0.25696003360E+02 -0.19221750053E+02  0.32657547842E+02  0.00000000000E+00 0.  1.
         11    1    3    3    0    0 -0.51407477695E+02  0.39806607063E+02 -0.22123149428E+03  0.23058765966E+03  0.00000000000E+00 0. -1.
          3    1    1    2  501    0  0.82786320214E+02 -0.68250233910E+02 -0.15250832929E+03  0.18646838806E+03  0.00000000000E+00 0. -1.
<scales pt_clust_5="13000.00000" pt_clust_6="13000.00000" pt_clust_7="13000.00000" pt_clust_8="13000.00000" pt_clust_9="95.34084"></scales>
<clustering>
<clus scale="   89.322">  7  8 -1 -1</clus>
<clus scale="   91.228">  5  6 -1 -1</clus>
<clus scale="  107.146">  1  7  2 -1</clus>
<clus scale="   95.341">  2  9  1 -1</clus>
<clus scale="   95.341">  2  5  1 -1</clus>
</clustering>
</event>
<event>
 9    1  0.1601012E-005  0.1116257E+03  0.7546771E-02  0.1258388E+00
         -3   -1    0    0    0  501 -0.00000000000E+00  0.00000000000E+00  0.10585962721E+03  0.10585962721E+03  0.00000000000E+00 0.  1.
         21   -1    0    0  501  502  0.00000000000E+00 -0.00000000000E+00 -0.36949125048E+03  0.36949125048E+03  0.00000000000E+00 0.  1.
         23    2    1    2    0    0 -0.74798834228E+02 -0.34407528838E+01  0.11709171046E+02  0.11701564579E+03  0.89156336241E+02 0.  0.
         23    2    1    2    0    0  0.29034074662E+02  0.67105090148E+02 -0.64911704503E+02  0.13377351900E+03  0.91300352625E+02 0.  0.
        -11    1    4    4    0    0 -0.56057846901E+01  0.52996049759E+02 -0.77722049317E+02  0.94237588371E+02  0.00000000000E+00 0.  1.
         11    1    4    4    0    0  0.34639859352E+02  0.14109040389E+02  0.12810344813E+02  0.39535930631E+02  0.00000000000E+00 0. -1.
        -11    1    3    3    0    0 -0.38302161393E+02  0.25229349475E+02  0.41510579226E+02  0.61860357500E+02  0.00000000000E+00 0.  1.
         11    1    3    3    0    0 -0.36496672835E+02 -0.28670102359E+02 -0.29801408180E+02  0.55155288294E+02  0.00000000000E+00 0. -1.
         -3    1    1    2    0  502  0.45764759565E+02 -0.63664337265E+02 -0.21042908981E+03  0.22456171289E+03  0.00000000000E+00 0.  1.
<scales pt_clust_5="13000.00000" pt_clust_6="13000.00000" pt_clust_7="13000.00000" pt_clust_8="13000.00000" pt_clust_9="78.40638"></scales>
<clustering>
<clus scale="   78.406">  2  9  1 -1</clus>
<clus scale="   89.156">  7  8 -1 -1</clus>
<clus scale="   91.300">  5  6 -1 -1</clus>
<clus scale="  109.879">  1  7  2 -1</clus>
<clus scale="   78.406">  2  5  1 -1</clus>
</clustering>
</event>
<event>
 9    1  0.1601012E-005  0.1050969E+03  0.7546771E-02  0.1270574E+00
         -3   -1    0    0    0  501 -0.00000000000E+00  0.00000000000E+00  0.22236171681E+03  0.22236171681E+03  0.00000000000E+00 0.  1.
         21   -1    0    0  501  502  0.00000000000E+00 -0.00000000000E+00 -0.10296920489E+03  0.10296920489E+03  0.00000000000E+00 0.  1.
         23    2    1    2    0    0  0.43326050087E+02 -0.22331576598E+02  0.13034781778E+03  0.16660914493E+03  0.91608993248E+02 0.  0.
         23    2    1    2    0    0 -0.66355544442E+02 -0.79071053012E+01  0.14288695860E+02  0.11309289209E+03  0.90112456521E+02 0.  0.
        -13    1    4    4    0    0 -0.71083809040E+02  0.27603377044E+02  0.12025536358E+02  0.77197589706E+02  0.00000000000E+00 0.  1.
         13    1    4    4    0    0  0.47282645977E+01 -0.35510482345E+02  0.22631595020E+01  0.35895302387E+02  0.00000000000E+00 0. -1.
        -13    1    3    3    0    0 -0.20389156716E+02 -0.30060029594E+02  0.68196373384E+02  0.77266217932E+02  0.00000000000E+00 0. -1.
         13    1    3    3    0    0  0.63715206802E+02  0.77284529965E+01  0.62151444400E+02  0.89342926998E+02  0.00000000000E+00 0.  1.
         -3    1    1    2    0  502  0.23029494355E+02  0.30238681899E+02 -0.25244001731E+02  0.45628884675E+02  0.00000000000E+00 0.  1.
<scales pt_clust_5="13000.00000" pt_clust_6="13000.00000" pt_clust_7="13000.00000" pt_clust_8="13000.00000" pt_clust_9="38.00968"></scales>
<clustering>
<clus scale="   38.010">  2  9  1 -1</clus>
<clus scale="   90.112">  5  6 -1 -1</clus>
<clus scale="   91.609">  7  8 -1 -1</clus>
<clus scale="  103.795">  2  5  1 -1</clus>
<clus scale="   38.010">  2  5  1 -1</clus>
</clustering>
</event>
<event>
 9    1  0.1601012E-005  0.1002443E+03  0.7546771E-02  0.1283703E+00
         -1   -1    0    0    0  501 -0.00000000000E+00  0.00000000000E+00  0.37641996452E+03  0.37641996452E+03  0.00000000000E+00 0.  1.
         21   -1    0    0  501  502  0.00000000000E+00 -0.00000000000E+00 -0.82514857533E+02  0.82514857533E+02  0.00000000000E+00 0. -1.
         23    2    1    2    0    0 -0.36189955306E+02 -0.25172984761E+02  0.14854119072E+03  0.17704631396E+03  0.85659324763E+02 0.  0.
         23    2    1    2    0    0 -0.33222063629E+02  0.40957575039E+02 -0.13194352058E+02  0.10808429032E+03  0.93417848521E+02 0.  0.
        -11    1    4    4    0    0 -0.58346071259E+02  0.28495097106E+02  0.16749376349E+02  0.67058006222E+02  0.00000000000E+00 0.  1.
         11    1    4    4    0    0  0.25124007631E+02  0.12462477933E+02 -0.29943728408E+02  0.41026284095E+02  0.00000000000E+00 0. -1.
        -13    1    3    3    0    0  0.23961653839E+02 -0.26499631284E+02  0.47298741192E+02  0.59275308782E+02  0.00000000000E+00 0.  1.
         13    1    3    3    0    0 -0.60151609145E+02  0.13266465237E+01  0.10124244952E+03  0.11777100517E+03  0.00000000000E+00 0. -1.
         -1    1    1    2    0  502  0.69412018935E+02 -0.15784590278E+02  0.15855826833E+03  0.17380421778E+03  0.00000000000E+00 0.  1.
<scales pt_clust_5="13000.00000" pt_clust_6="13000.00000" pt_clust_7="13000.00000" pt_clust_8="13000.00000" pt_clust_9="71.18417"></scales>
<clustering>
<clus scale="   71.184">  2  9  1 -1</clus>
<clus scale="   85.659">  7  8 -1 -1</clus>
<clus scale="   93.057">  1  7  2 -1</clus>
<clus scale="   93.418">  5  6 -1 -1</clus>
<clus scale="   71.184">  2  5  1 -1</clus>
</clustering>
</event>
<event>
 9    1  0.1601012E-005  0.1905208E+03  0.7546771E-02  0.1158181E+00
         21   -1    0    0  501  502  0.00000000000E+00  0.00000000000E+00  0.41766785815E+03  0.41766785815E+03  0.00000000000E+00 0. -1.
          1   -1    0    0  502    0 -0.00000000000E+00 -0.00000000000E+00 -0.29494657836E+03  0.29494657836E+03  0.00000000000E+00 0. -1.
         23    2    1    2    0    0  0.89267299983E+01  0.15980618962E+03 -0.15473171325E+03  0.24043592526E+03  0.90828554543E+02 0.  0.
         23    2    1    2    0    0  0.11564669972E+03 -0.19816737972E+03  0.14710964348E+03  0.28784319432E+03  0.92563425660E+02 0.  0.
        -11    1    4    4    0    0  0.55773245420E+02 -0.17048499268E+03  0.90469658856E+02  0.20089934497E+03  0.00000000000E+00 0. -1.
         11    1    4    4    0    0  0.59873454297E+02 -0.27682387036E+02  0.56639984629E+02  0.86943849352E+02  0.00000000000E+00 0.  1.
        -13    1    3    3    0    0 -0.35133831908E+02  0.37355501299E+02 -0.26446655429E+02  0.57699611829E+02  0.00000000000E+00 0.  1.
         13    1    3    3    0    0  0.44060561906E+02  0.12245068832E+03 -0.12828505782E+03  0.18273631343E+03  0.00000000000E+00 0. -1.
          1    1    1    2  501    0 -0.12457342971E+03  0.38361190096E+02  0.13034334956E+03  0.18433531694E+03  0.00000000000E+00 0. -1.
<scales pt_clust_5="13000.00000" pt_clust_6="13000.00000" pt_clust_7="13000.00000" pt_clust_8="13000.00000" pt_clust_9="130.34616"></scales>
<clustering>
<clus scale="   90.829">  7  8 -1 -1</clus>
<clus scale="   92.563">  5  6 -1 -1</clus>
<clus scale="  130.346">  1  9  2 -1</clus>
<clus scale="  189.684">  2  7  1 -1</clus>
<clus scale="  130.346">  1  5  2 -1</clus>
</clustering>
</event>
<event>
 9    1  0.1601012E-005  0.1031819E+03  0.7546771E-02  0.1274316E+00
         21   -1    0    0  501  502  0.00000000000E+00  0.00000000000E+00  0.57756433612E+02  0.57756433612E+02  0.00000000000E+00 0. -1.
          3   -1    0    0  502    0 -0.00000000000E+00 -0.00000000000E+00 -0.36050814093E+03  0.36050814093E+03  0.00000000000E+00 0. -1.
         23    2    1    2    0    0  0.48386791342E+02 -0.74211373560E+01 -0.25781513768E+03  0.27728475735E+03  0.89564706126E+02 0.  0.
         23    2    1    2    0    0 -0.50585110508E+02 -0.17130466002E+02 -0.48614079572E+02  0.11605717861E+03  0.90849511299E+02 0.  0.
        -13    1    4    4    0    0 -0.11030582599E+02  0.19402957865E+02 -0.57321070655E+02  0.61513036565E+02  0.00000000000E+00 0.  1.
         13    1    4    4    0    0 -0.39554527909E+02 -0.36533423867E+02  0.87069910830E+01  0.54544142043E+02  0.00000000000E+00 0. -1.
        -13    1    3    3    0    0 -0.26590107228E+02  0.16667659439E+00 -0.61506403911E+02  0.67008203270E+02  0.00000000000E+00 0.  1.
         13    1    3    3    0    0  0.74976898570E+02 -0.75878139504E+01 -0.19630873377E+03  0.21027655408E+03  0.00000000000E+00 0. -1.
          3    1    1    2  501    0  0.21983191662E+01  0.24551603358E+02  0.36775099382E+01  0.24922638583E+02  0.00000000000E+00 0. -1.
<scales pt_clust_5="13000.00000" pt_clust_6="13000.00000" pt_clust_7="13000.00000" pt_clust_8="13000.00000" pt_clust_9="24.64982"></scales>
<clustering>
<clus scale="   24.650">  1  9  2 -1</clus>
<clus scale="   89.565">  7  8 -1 -1</clus>
<clus scale="   90.850">  5  6 -1 -1</clus>
<clus scale="  102.052">  2  7  1 -1</clus>
<clus scale="   24.650">  1  5  2 -1</clus>
</clustering>
</event>
<event>
 9    1  0.1601012E-005  0.1360655E+03  0.7546771E-02  0.1220629E+00
          4   -1    0    0  502    0 -0.00000000000E+00  0.00000000000E+00  0.38273664178E+03  0.38273664178E+03  0.00000000000E+00 0. -1.
         21   -1    0    0  501  502  0.00000000000E+00 -0.00000000000E+00 -0.74861350288E+02  0.74861350288E+02  0.00000000000E+00 0. -1.
         23    2    1    2    0    0 -0.79069506063E+02  0.22198910000E+02  0.17522346381E+03  0.21429345748E+03  0.92052404925E+02 0.  0.
         23    2    1    2    0    0  0.10147333944E+03 -0.43022133077E+02  0.14751324588E+03  0.20929865098E+03  0.99488818689E+02 0.  0.
        -11    1    3    3    0    0 -0.11028783666E+02  0.40412584504E+02  0.11224694208E+03  0.11980896069E+03  0.00000000000E+00 0.  1.
         11    1    3    3    0    0 -0.68040722397E+02 -0.18213674504E+02  0.62976521730E+02  0.94484496784E+02  0.00000000000E+00 0. -1.
        -13    1    4    4    0    0  0.84881019987E+02 -0.74406410342E+02  0.10886846212E+03  0.15682296866E+03  0.00000000000E+00 0. -1.
         13    1    4    4    0    0  0.16592319449E+02  0.31384277265E+02  0.38644783758E+02  0.52475682328E+02  0.00000000000E+00 0.  1.
          4    1    1    2  501    0 -0.22403833373E+02  0.20823223077E+02 -0.14861418196E+02  0.34005883607E+02  0.00000000000E+00 0. -1.
<scales pt_clust_5="13000.00000" pt_clust_6="13000.00000" pt_clust_7="13000.00000" pt_clust_8="13000.00000" pt_clust_9="30.58657"></scales>
<clustering>
<clus scale="   30.587">  2  9  1 -1</clus>
<clus scale="   92.052">  5  6 -1 -1</clus>
<clus scale="   99.489">  7  8 -1 -1</clus>
<clus scale="  130.727">  1  5  2 -1</clus>
<clus scale="   30.587">  2  5  1 -1</clus>
</clustering>
</event>
<event>
 9    1  0.1601012E-005  0.1092945E+03  0.7546771E-02  0.1262517E+00
          1   -1    0    0  502    0 -0.00000000000E+00  0.00000000000E+00  0.19937655172E+03  0.19937655172E+03  0.00000000000E+00 0. -1.
         21   -1    0    0  501  502  0.00000000000E+00 -0.00000000000E+00 -0.15962009396E+03  0.15962009396E+03  0.00000000000E+00 0. -1.
         23    2    1    2    0    0 -0.39596815069E+02 -0.42219809767E+02  0.97135493164E+02  0.14544541240E+03  0.91480292173E+02 0.  0.
         23    2    1    2    0    0  0.24285608888E+02  0.61133471676E+02  0.36010802350E+02  0.11704309146E+03  0.89862201254E+02 0.  0.
        -11    1    3    3    0    0 -0.49756175320E+02  0.32762889434E+01  0.82833841345E+02  0.96684312708E+02  0.00000000000E+00 0.  1.
         11    1    3    3    0    0  0.10159360251E+02 -0.45496098710E+02  0.14301651818E+02  0.48761099693E+02  0.00000000000E+00 0. -1.
        -13    1    4    4    0    0 -0.10705350462E+01  0.45121315940E+02 -0.23143272503E+02  0.50721694171E+02  0.00000000000E+00 0.  1.
         13    1    4    4    0    0  0.25356143934E+02  0.16012155735E+02  0.59154074853E+02  0.66321397288E+02  0.00000000000E+00 0. -1.
          1    1    1    2  501    0  0.15311206181E+02 -0.18913661909E+02 -0.93389837756E+02  0.96508141821E+02  0.00000000000E+00 0. -1.
<scales pt_clust_5="13000.00000" pt_clust_6="13000.00000" pt_clust_7="13000.00000" pt_clust_8="13000.00000" pt_clust_9="24.33433"></scales>
<clustering>
<clus scale="   24.334">  2  9  1 -1</clus>
<clus scale="   89.862">  7  8 -1 -1</clus>
<clus scale="   91.480">  5  6 -1 -1</clus>
<clus scale="  107.944">  2  7  1 -1</clus>
<clus scale="   24.334">  2  5  1 -1</clus>
</clustering>
</event>
<event>
 9    1  0.1601012E-005  0.9928444E+02  0.7546771E-02  0.1282767E+00
         21   -1    0    0  501  502  0.00000000000E+00  0.00000000000E+00  0.75043554802E+02  0.75043554802E+02  0.00000000000E+00 0. -1.
         -2   -1    0    0    0  501 -0.00000000000E+00 -0.00000000000E+00 -0.24321771509E+03  0.24321771509E+03  0.00000000000E+00 0.  1.
         23    2    1    2    0    0  0.41791335977E+02  0.20679533795E+02 -0.15085169799E+03  0.18108566945E+03  0.88665810853E+02 0.  0.
         23    2    1    2    0    0 -0.31715114265E+02  0.63216303782E+01 -0.36104041790E+02  0.10277587894E+03  0.90628737023E+02 0.  0.
        -11    1    4    4    0    0  0.26895766890E+02 -0.17529362513E+02 -0.58309616580E+01  0.32629142504E+02  0.00000000000E+00 0. -1.
         11    1    4    4    0    0 -0.58610881155E+02  0.23850992891E+02 -0.30273080132E+02  0.70146736434E+02  0.00000000000E+00 0.  1.
        -11    1    3    3    0    0  0.69006141230E+02  0.12095370644E+02 -0.12078907558E+03  0.13963576296E+03  0.00000000000E+00 0. -1.
         11    1    3    3    0    0 -0.27214805253E+02  0.85841631510E+01 -0.30062622409E+02  0.41449906491E+02  0.00000000000E+00 0.  1.
         -2    1    1    2    0  502 -0.10076221712E+02 -0.27001164173E+02  0.18781579496E+02  0.34399721497E+02  0.00000000000E+00 0.  1.
<scales pt_clust_5="13000.00000" pt_clust_6="13000.00000" pt_clust_7="13000.00000" pt_clust_8="13000.00000" pt_clust_9="28.82001"></scales>
<clustering>
<clus scale="   28.820">  1  9  2 -1</clus>
<clus scale="   88.666">  7  8 -1 -1</clus>
<clus scale="   90.629">  5  6 -1 -1</clus>
<clus scale="   97.496">  2  7  1 -1</clus>
<clus scale="   28.820">  1  5  2 -1</clus>
</clustering>
</event>
<event>
 9    1  0.1601012E-005  0.1511007E+03  0.7546771E-02  0.1200103E+00
          1   -1    0    0  502    0 -0.00000000000E+00  0.00000000000E+00  0.11787568287E+03  0.11787568287E+03  0.00000000000E+00 0. -1.
         21   -1    0    0  501  502  0.00000000000E+00 -0.00000000000E+00 -0.44543403059E+03  0.44543403059E+03  0.00000000000E+00 0. -1.
         23    2    1    2    0    0 -0.11350040849E+03  0.11946559116E+02 -0.42907862146E+02  0.14905072424E+03  0.85731970472E+02 0.  0.
         23    2    1    2    0    0  0.11650551030E+03 -0.62716512430E+02 -0.41593370622E+02  0.16593786663E+03  0.91095950735E+02 0.  0.
        -11    1    4    4    0    0  0.36157726636E+02  0.18175033399E+02 -0.31867509251E+02  0.51509719281E+02  0.00000000000E+00 0.  1.
         11    1    4    4    0    0  0.80347783662E+02 -0.80891545829E+02 -0.97258613716E+01  0.11442814735E+03  0.00000000000E+00 0. -1.
        -13    1    3    3    0    0  0.25158269503E+01  0.25204939159E+02 -0.13183165664E+02  0.28555458325E+02  0.00000000000E+00 0.  1.
         13    1    3    3    0    0 -0.11601623544E+03 -0.13258380043E+02 -0.29724696482E+02  0.12049526592E+03  0.00000000000E+00 0. -1.
          1    1    1    2  501    0 -0.30051018034E+01  0.50769953314E+02 -0.24305711495E+03  0.24832112259E+03  0.00000000000E+00 0. -1.
<scales pt_clust_5="13000.00000" pt_clust_6="13000.00000" pt_clust_7="13000.00000" pt_clust_8="13000.00000" pt_clust_9="50.85881"></scales>
<clustering>
<clus scale="   50.859">  2  9  1 -1</clus>
<clus scale="   85.732">  7  8 -1 -1</clus>
<clus scale="   91.096">  5  6 -1 -1</clus>
<clus scale="  147.929">  1  7  2 -1</clus>
<clus scale="   50.859">  2  5  1 -1</clus>
</clustering>
</event>
<event>
 9    1  0.1601012E-005  0.1287191E+03  0.7546771E-02  0.1236512E+00
         -1   -1    0    0    0  501 -0.00000000000E+00  0.00000000000E+00  0.41579484151E+03  0.41579484151E+03  0.00000000000E+00 0.  1.
         21   -1    0    0  501  502  0.00000000000E+00 -0.00000000000E+00 -0.24864617972E+03  0.24864617972E+03  0.00000000000E+00 0. -1.
         23    2    1    2    0    0 -0.32221360648E+01  0.63848324537E+02  0.35927743736E+03  0.38148755976E+03  0.11120022730E+03 0.  0.
         23    2    1    2    0    0  0.27314638572E+02 -0.69243444237E+02 -0.32518107649E+02  0.12144457221E+03  0.90280744036E+02 0.  0.
        -11    1    3    3    0    0  0.47536198618E+02  0.11636637389E+02  0.20683800521E+03  0.21254896355E+03  0.00000000000E+00 0. -1.
         11    1    3    3    0    0 -0.50758334683E+02  0.52211687148E+02  0.15243943215E+03  0.16893859621E+03  0.00000000000E+00 0.  1.
        -13    1    4    4    0    0  0.25139941075E+02 -0.90815396011E+01  0.26143029053E+02  0.37389155739E+02  0.00000000000E+00 0.  1.
         13    1    4    4    0    0  0.21746974972E+01 -0.60161904636E+02 -0.58661136702E+02  0.84055416469E+02  0.00000000000E+00 0. -1.
         -1    1    1    2    0  502 -0.24092502508E+02  0.53951197002E+01 -0.15961066792E+03  0.16150888926E+03  0.00000000000E+00 0.  1.
<scales pt_clust_5="13000.00000" pt_clust_6="13000.00000" pt_clust_7="13000.00000" pt_clust_8="13000.00000" pt_clust_9="24.68919"></scales>
<clustering>
<clus scale="   24.689">  2  9  1 -1</clus>
<clus scale="   90.281">  7  8 -1 -1</clus>
<clus scale="  111.147">  2  7  1 -1</clus>
<clus scale="  111.200">  5  6 -1 -1</clus>
<clus scale="   24.689">  2  5  1 -1</clus>
</clustering>
</event>
<event>
 9    1  0.1601012E-005  0.1285928E+03  0.7546771E-02  0.1229710E+00
         21   -1    0    0  501  502  0.00000000000E+00  0.00000000000E+00  0.71480902499E+02  0.71480902499E+02  0.00000000000E+00 0.  1.
          1   -1    0    0  502    0 -0.00000000000E+00 -0.00000000000E+00 -0.48883148885E+03  0.48883148885E+03  0.00000000000E+00 0. -1.
         23    2    1    2    0    0 -0.58716635712E+02 -0.68147802967E+02 -0.35744187299E+03  0.37878611605E+03  0.87306716705E+02 0.  0.
         23    2    1    2    0    0  0.81650220622E+02  0.74977475861E+02 -0.67049631112E+02  0.15655456221E+03  0.87893671568E+02 0.  0.
        -11    1    4    4    0    0  0.26324575919E+02 -0.55098194941E+01 -0.50887845873E+02  0.57557920965E+02  0.00000000000E+00 0. -1.
         11    1    4    4    0    0  0.55325644702E+02  0.80487295355E+02 -0.16161785239E+02  0.98996641243E+02  0.00000000000E+00 0.  1.
        -13    1    3    3    0    0 -0.22503229125E+02  0.16548334714E+01 -0.14220055999E+02  0.26671028992E+02  0.00000000000E+00 0.  1.
         13    1    3    3    0    0 -0.36213406587E+02 -0.69802636439E+02 -0.34322181699E+03  0.35211508705E+03  0.00000000000E+00 0. -1.
          1    1    1    2  501    0 -0.22933584910E+02 -0.68296728937E+01  0.71409177525E+01  0.24971713097E+02  0.00000000000E+00 0. -1.
<scales pt_clust_5="13000.00000" pt_clust_6="13000.00000" pt_clust_7="13000.00000" pt_clust_8="13000.00000" pt_clust_9="23.92893"></scales>
<clustering>
<clus scale="   23.929">  1  9  2 -1</clus>
<clus scale="   87.307">  7  8 -1 -1</clus>
<clus scale="   87.894">  5  6 -1 -1</clus>
<clus scale="  128.192">  2  7  1 -1</clus>
<clus scale="   23.929">  1  5  2 -1</clus>
</clustering>
</event>
<event>
 9    1  0.1601012E-005  0.9996210E+02  0.7546771E-02  0.1283472E+00
         -1   -1    0    0    0  501 -0.00000000000E+00  0.00000000000E+00  0.99092745652E+02  0.99092745652E+02  0.00000000000E+00 0.  1.
         21   -1    0    0  501  502  0.00000000000E+00 -0.00000000000E+00 -0.21208616029E+03  0.21208616029E+03  0.00000000000E+00 0.  1.
         23    2    1    2    0    0  0.14123802650E+02  0.29944151025E+02  0.42178928961E+02  0.11000728619E+03  0.96054187751E+02 0.  0.
         23    2    1    2    0    0  0.12012985261E+02 -0.94544829331E+01 -0.13249088208E+03  0.16095462238E+03  0.90104703368E+02 0.  0.
        -11    1    3    3    0    0 -0.35780306123E+02  0.25937377270E+02  0.40454638685E+02  0.59912900423E+02  0.00000000000E+00 0. -1.
         11    1    3    3    0    0  0.49904108773E+02  0.40067737551E+01  0.17242902754E+01  0.50094385766E+02  0.00000000000E+00 0.  1.
        -11    1    4    4    0    0  0.20246491286E+02  0.29631916889E+02 -0.10867943416E+03  0.11445169425E+03  0.00000000000E+00 0.  1.
         11    1    4    4    0    0 -0.82335060259E+01 -0.39086399822E+02 -0.23811447921E+02  0.46502928129E+02  0.00000000000E+00 0. -1.
         -1    1    1    2    0  502 -0.26136787911E+02 -0.20489668092E+02 -0.22681461514E+02  0.40216997367E+02  0.00000000000E+00 0.  1.
<scales pt_clust_5="13000.00000" pt_clust_6="13000.00000" pt_clust_7="13000.00000" pt_clust_8="13000.00000" pt_clust_9="33.21081"></scales>
<clustering>
<clus scale="   33.211">  2  9  1 -1</clus>
<clus scale="   90.105">  7  8 -1 -1</clus>
<clus scale="   94.260">  2  7  1 -1</clus>
<clus scale="   96.054">  5  6 -1 -1</clus>
<clus scale="   33.211">  2  5  1 -1</clus>
</clustering>
</event>
<event>
 9    1  0.1601012E-005  0.2825307E+03  0.7546771E-02  0.1094695E+00
         21   -1    0    0  501  502  0.00000000000E+00  0.00000000000E+00  0.40800544405E+03  0.40800544405E+03  0.00000000000E+00 0. -1.
          1   -1    0    0  502    0 -0.00000000000E+00 -0.00000000000E+00 -0.30405098890E+03  0.30405098890E+03  0.00000000000E+00 0. -1.
         23    2    1    2    0    0  0.22852601532E+03 -0.16115341427E+03 -0.99618519256E+02  0.31290859847E+03  0.98961502657E+02 0.  0.
         23    2    1    2    0    0 -0.20012336674E+03  0.13283991920E+03  0.79517881924E+02  0.26877133959E+03  0.90659436291E+02 0.  0.
        -13    1    3    3    0    0  0.19166958241E+02 -0.51617257505E+02 -0.43196021554E+02  0.69982925336E+02  0.00000000000E+00 0. -1.
         13    1    3    3    0    0  0.20935905708E+03 -0.10953615677E+03 -0.56422497701E+02  0.24292567314E+03  0.00000000000E+00 0.  1.
        -13    1    4    4    0    0 -0.26215318691E+02  0.28738547127E+02  0.50921525031E+02  0.64079237952E+02  0.00000000000E+00 0.  1.
         13    1    4    4    0    0 -0.17390804805E+03  0.10410137207E+03  0.28596356893E+02  0.20469210163E+03  0.00000000000E+00 0. -1.
          1    1    1    2  501    0 -0.28402648580E+02  0.28313495073E+02  0.12405509248E+03  0.13037649489E+03  0.00000000000E+00 0. -1.
<scales pt_clust_5="13000.00000" pt_clust_6="13000.00000" pt_clust_7="13000.00000" pt_clust_8="13000.00000" pt_clust_9="40.10442"></scales>
<clustering>
<clus scale="   40.104">  1  9  2 -1</clus>
<clus scale="   90.659">  7  8 -1 -1</clus>
<clus scale="   98.962">  5  6 -1 -1</clus>
<clus scale="  279.731">  1  7  2 -1</clus>
<clus scale="   40.104">  1  5  2 -1</clus>
</clustering>
</event>
<event>
 9    1  0.1601012E-005  0.1395999E+03  0.7546771E-02  0.1214062E+00
         21   -1    0    0  501  502  0.00000000000E+00  0.00000000000E+00  0.40088789391E+03  0.40088789391E+03  0.00000000000E+00 0. -1.
          1   -1    0    0  502    0 -0.00000000000E+00 -0.00000000000E+00 -0.20636701185E+03  0.20636701185E+03  0.00000000000E+00 0. -1.
         23    2    1    2    0    0  0.90209624503E+02  0.62905958404E+02 -0.15882867761E+03  0.21360180147E+03  0.91127629200E+02 0.  0.
         23    2    1    2    0    0 -0.66903156303E+02 -0.25298338060E+02  0.17759189508E+03  0.21241215629E+03  0.92000025608E+02 0.  0.
        -11    1    4    4    0    0 -0.34535180820E+02 -0.54675862612E+02  0.14203696602E+03  0.15606610261E+03  0.00000000000E+00 0.  1.
         11    1    4    4    0    0 -0.32367975483E+02  0.29377524552E+02  0.35554929056E+02  0.56346053684E+02  0.00000000000E+00 0. -1.
        -13    1    3    3    0    0  0.84871063236E+02  0.16151623853E+02 -0.63269518912E+02  0.10708409943E+03  0.00000000000E+00 0. -1.
         13    1    3    3    0    0  0.53385612664E+01  0.46754334552E+02 -0.95559158703E+02  0.10651770204E+03  0.00000000000E+00 0.  1.
          1    1    1    2  501    0 -0.23306468200E+02 -0.37607620344E+02  0.17575766459E+03  0.18124094800E+03  0.00000000000E+00 0. -1.
<scales pt_clust_5="13000.00000" pt_clust_6="13000.00000" pt_clust_7="13000.00000" pt_clust_8="13000.00000" pt_clust_9="44.24392"></scales>
<clustering>
<clus scale="   44.244">  1  9  2 -1</clus>
<clus scale="   91.128">  7  8 -1 -1</clus>
<clus scale="   92.000">  5  6 -1 -1</clus>
<clus scale="  139.027">  2  7  1 -1</clus>
<clus scale="   44.244">  1  5  2 -1</clus>
</clustering>
</event>
<event>
 9    1  0.1601012E-005  0.1586561E+03  0.7546771E-02  0.1192091E+00
          1   -1    0    0  502    0 -0.00000000000E+00  0.00000000000E+00  0.95982042232E+03  0.95982042232E+03  0.00000000000E+00 0. -1.
         21   -1    0    0  501  502  0.00000000000E+00 -0.00000000000E+00 -0.79328903758E+02  0.79328903758E+02  0.00000000000E+00 0. -1.
         23    2    1    2    0    0 -0.83198299998E+02 -0.87770563041E+02  0.46630549427E+03  0.49053184134E+03  0.92493483652E+02 0.  0.
         23    2    1    2    0    0 -0.67201660122E+02  0.12461492170E+03  0.85517418652E+02  0.18529846914E+03  0.83530544944E+02 0.  0.
        -11    1    4    4    0    0 -0.55228916939E+02  0.49287518173E+02  0.47004936440E+01  0.74172686040E+02  0.00000000000E+00 0. -1.
         11    1    4    4    0    0 -0.11972743183E+02  0.75327403522E+02  0.80816925008E+02  0.11112578310E+03  0.00000000000E+00 0.  1.
        -13    1    3    3    0    0  0.23621010788E+01 -0.56608769455E+02  0.12416003799E+03  0.13647654500E+03  0.00000000000E+00 0.  1.
         13    1    3    3    0    0 -0.85560401077E+02 -0.31161793586E+02  0.34214545628E+03  0.35405529633E+03  0.00000000000E+00 0. -1.
          1    1    1    2  501    0  0.15039996012E+03 -0.36844358654E+02  0.32866860564E+03  0.36331901561E+03  0.00000000000E+00 0. -1.
<scales pt_clust_5="13000.00000" pt_clust_6="13000.00000" pt_clust_7="13000.00000" pt_clust_8="13000.00000" pt_clust_9="134.88668"></scales>
<clustering>
<clus scale="   83.531">  5  6 -1 -1</clus>
<clus scale="   92.493">  7  8 -1 -1</clus>
<clus scale="  152.252">  1  7  2 -1</clus>
<clus scale="  134.887">  2  9  1 -1</clus>
<clus scale="  134.887">  2  5  1 -1</clus>
</clustering>
</event>
<event>
 9    1  0.1601012E-005  0.1690612E+03  0.7546771E-02  0.1182382E+00
          4   -1    0    0  502    0 -0.00000000000E+00  0.00000000000E+00  0.20488366762E+03  0.20488366762E+03  0.00000000000E+00 0. -1.
         21   -1    0    0  501  502  0.00000000000E+00 -0.00000000000E+00 -0.55084217845E+03  0.55084217845E+03  0.00000000000E+00 0. -1.
         23    2    1    2    0    0 -0.14537724730E+03 -0.51789737810E+02  0.78642818151E+02  0.19429728509E+03  0.88034204549E+02 0.  0.
         23    2    1    2    0    0  0.28741741588E+02  0.11501564431E+03 -0.57757551548E+02  0.17133150449E+03  0.10937944745E+03 0.  0.
        -11    1    3    3    0    0 -0.57687274542E+02 -0.23081266131E+02 -0.13841295377E+02  0.63656483943E+02  0.00000000000E+00 0.  1.
         11    1    3    3    0    0 -0.87689972757E+02 -0.28708471679E+02  0.92484113528E+02  0.13064080114E+03  0.00000000000E+00 0. -1.
        -13    1    4    4    0    0  0.54487654232E+02  0.29116125928E+02  0.48418448983E+01  0.61968513899E+02  0.00000000000E+00 0. -1.
         13    1    4    4    0    0 -0.25745912644E+02  0.85899518381E+02 -0.62599396446E+02  0.10936299059E+03  0.00000000000E+00 0.  1.
          4    1    1    2  501    0  0.11663550571E+03 -0.63225906500E+02 -0.36684377743E+03  0.39009705650E+03  0.00000000000E+00 0. -1.
<scales pt_clust_5="13000.00000" pt_clust_6="13000.00000" pt_clust_7="13000.00000" pt_clust_8="13000.00000" pt_clust_9="132.67010"></scales>
<clustering>
<clus scale="   88.034">  5  6 -1 -1</clus>
<clus scale="  109.379">  7  8 -1 -1</clus>
<clus scale="  132.670">  2  9  1 -1</clus>
<clus scale="  156.102">  1  5  2 -1</clus>
<clus scale="  132.670">  2  5  1 -1</clus>
</clustering>
</event>
<event>
 9    1  0.1601012E-005  0.9648844E+02  0.7546771E-02  0.1288421E+00
          1   -1    0    0  502    0 -0.00000000000E+00  0.00000000000E+00  0.35108524049E+03  0.35108524049E+03  0.00000000000E+00 0. -1.
         21   -1    0    0  501  502  0.00000000000E+00 -0.00000000000E+00 -0.31419682112E+03  0.31419682112E+03  0.00000000000E+00 0.  1.
         23    2    1    2    0    0 -0.84882474149E+01 -0.22659195586E+02  0.32538781549E+03  0.33912192113E+03  0.92417300517E+02 0.  0.
         23    2    1    2    0    0 -0.31742815592E+02  0.27244702440E+02 -0.25053973312E+03  0.27065787640E+03  0.93464688684E+02 0.  0.
        -13    1    3    3    0    0 -0.30270803456E+02  0.20596907955E+02  0.68130080968E+02  0.77345084472E+02  0.00000000000E+00 0.  1.
         13    1    3    3    0    0  0.21782556041E+02 -0.43256103541E+02  0.25725773452E+03  0.26177683666E+03  0.00000000000E+00 0. -1.
        -13    1    4    4    0    0 -0.35279820556E+02 -0.18926675957E+02 -0.46185191760E+02  0.61122473274E+02  0.00000000000E+00 0. -1.
         13    1    4    4    0    0  0.35370049639E+01  0.46171378396E+02 -0.20435454136E+03  0.20953540312E+03  0.00000000000E+00 0.  1.
          1    1    1    2  501    0  0.40231063007E+02 -0.45855068536E+01 -0.37959662998E+02  0.55502264086E+02  0.00000000000E+00 0. -1.
<scales pt_clust_5="13000.00000" pt_clust_6="13000.00000" pt_clust_7="13000.00000" pt_clust_8="13000.00000" pt_clust_9="40.49155"></scales>
<clustering>
<clus scale="   40.492">  2  9  1 -1</clus>
<clus scale="   92.417">  5  6 -1 -1</clus>
<clus scale="   93.465">  7  8 -1 -1</clus>
<clus scale="   95.474">  1  5  2 -1</clus>
<clus scale="   40.492">  2  5  1 -1</clus>
</clustering>
</event>
<event>
 9    1  0.1601012E-005  0.1173932E+03  0.7546771E-02  0.1249844E+00
         21   -1    0    0  501  502  0.00000000000E+00  0.00000000000E+00  0.23133706981E+02  0.23133706981E+02  0.00000000000E+00 0.  1.
          1   -1    0    0  502    0 -0.00000000000E+00 -0.00000000000E+00 -0.74151537070E+03  0.74151537070E+03  0.00000000000E+00 0. -1.
         23    2    1    2    0    0  0.62773540371E+02  0.46228158291E+02 -0.40147111782E+03  0.42051832628E+03  0.97872592200E+02 0.  0.
         23    2    1    2    0    0 -0.42293426818E+02 -0.29668809001E+02 -0.27827244872E+03  0.29737019480E+03  0.91238724561E+02 0.  0.
        -13    1    3    3    0    0  0.84602962067E+02  0.14123822811E+02 -0.25782358540E+03  0.27171703066E+03  0.00000000000E+00 0. -1.
         13    1    3    3    0    0 -0.21829421697E+02  0.32104335480E+02 -0.14364753242E+03  0.14880129562E+03  0.00000000000E+00 0.  1.
        -13    1    4    4    0    0 -0.52892831108E+02  0.17444356688E+02 -0.16787974225E+03  0.17687725976E+03  0.00000000000E+00 0.  1.
         13    1    4    4    0    0  0.10599404291E+02 -0.47113165688E+02 -0.11039270647E+03  0.12049293504E+03  0.00000000000E+00 0. -1.
          1    1    1    2  501    0 -0.20480113553E+02 -0.16559349290E+02 -0.38638097179E+02  0.46760556602E+02  0.00000000000E+00 0. -1.
<scales pt_clust_5="13000.00000" pt_clust_6="13000.00000" pt_clust_7="13000.00000" pt_clust_8="13000.00000" pt_clust_9="26.33718"></scales>
<clustering>
<clus scale="   26.337">  1  9  2 -1</clus>
<clus scale="   91.239">  7  8 -1 -1</clus>
<clus scale="   97.873">  5  6 -1 -1</clus>
<clus scale="  111.922">  1  7  2 -1</clus>
<clus scale="   26.337">  1  5  2 -1</clus>
</clustering>
</event>
<event>
 9    1  0.1601012E-005  0.1826772E+03  0.7546771E-02  0.1165432E+00
          2   -1    0    0  502    0 -0.00000000000E+00  0.00000000000E+00  0.33775256700E+03  0.33775256700E+03  0.00000000000E+00 0. -1.
         21   -1    0    0  501  502  0.00000000000E+00 -0.00000000000E+00 -0.32222062179E+03  0.32222062179E+03  0.00000000000E+00 0.  1.
         23    2    1    2    0    0  0.96978508736E+02 -0.11933376875E+03  0.25461087159E+03  0.31118667464E+03  0.91460762193E+02 0.  0.
         23    2    1    2    0    0 -0.11503932126E+03  0.13935735063E+03 -0.14180633573E+03  0.24784547357E+03  0.93079671815E+02 0.  0.
        -11    1    3    3    0    0  0.65894494516E+02 -0.21703079012E+02  0.14728212328E+03  0.16280396765E+03  0.00000000000E+00 0. -1.
         11    1    3    3    0    0  0.31084014220E+02 -0.97630689739E+02  0.10732874831E+03  0.14838270699E+03  0.00000000000E+00 0.  1.
        -13    1    4    4    0    0  0.54324889570E+01  0.46435611669E+02 -0.56791979496E+02  0.73560226362E+02  0.00000000000E+00 0. -1.
         13    1    4    4    0    0 -0.12047181022E+03  0.92921738964E+02 -0.85014356235E+02  0.17428524721E+03  0.00000000000E+00 0.  1.
          2    1    1    2  501    0  0.18060812522E+02 -0.20023581882E+02 -0.97272590648E+02  0.10094104057E+03  0.00000000000E+00 0. -1.
<scales pt_clust_5="13000.00000" pt_clust_6="13000.00000" pt_clust_7="13000.00000" pt_clust_8="13000.00000" pt_clust_9="26.96547"></scales>
<clustering>
<clus scale="   26.965">  2  9  1 -1</clus>
<clus scale="   91.461">  5  6 -1 -1</clus>
<clus scale="   93.080">  7  8 -1 -1</clus>
<clus scale="  181.858">  1  5  2 -1</clus>
<clus scale="   26.965">  2  5  1 -1</clus>
</clustering>
</event>
<event>
 9    1  0.1601012E-005  0.1048273E+03  0.7546771E-02  0.1275341E+00
         21   -1    0    0  501  502  0.00000000000E+00  0.00000000000E+00  0.21230973756E+03  0.21230973756E+03  0.00000000000E+00 0. -1.
          4   -1    0    0  502    0 -0.00000000000E+00 -0.00000000000E+00 -0.22267905039E+03  0.22267905039E+03  0.00000000000E+00 0. -1.
         23    2    1    2    0    0  0.35707477036E+02 -0.84718293792E+01 -0.17470087485E+03  0.20451899593E+03  0.99803948902E+02 0.  0.
         23    2    1    2    0    0 -0.13563845330E+02 -0.20097944338E+02  0.40592009802E+02  0.10155877938E+03  0.89880860823E+02 0.  0.
        -11    1    4    4    0    0 -0.47139325446E+02 -0.97787020163E+01  0.45317720881E+02  0.66116827226E+02  0.00000000000E+00 0.  1.
         11    1    4    4    0    0  0.33575480116E+02 -0.10319242322E+02 -0.47257110795E+01  0.35441952152E+02  0.00000000000E+00 0. -1.
        -13    1    3    3    0    0 -0.27945993171E+02  0.29160571577E+00 -0.10937503290E+03  0.11288915532E+03  0.00000000000E+00 0.  1.
         13    1    3    3    0    0  0.63653470206E+02 -0.87634350950E+01 -0.65325841949E+02  0.91629840610E+02  0.00000000000E+00 0. -1.
          4    1    1    2  501    0 -0.22143631706E+02  0.28569773717E+02  0.12373955222E+03  0.12891101263E+03  0.00000000000E+00 0. -1.
<scales pt_clust_5="13000.00000" pt_clust_6="13000.00000" pt_clust_7="13000.00000" pt_clust_8="13000.00000" pt_clust_9="36.14654"></scales>
<clustering>
<clus scale="   36.147">  1  9  2 -1</clus>
<clus scale="   89.881">  5  6 -1 -1</clus>
<clus scale="   95.428">  1  5  2 -1</clus>
<clus scale="   99.804">  7  8 -1 -1</clus>
<clus scale="   36.147">  1  5  2 -1</clus>
</clustering>
</event>
<event>
 9    1  0.1601012E-005  0.9321799E+02  0.7546771E-02  0.1295871E+00
         21   -1    0    0  501  502  0.00000000000E+00  0.00000000000E+00  0.28079517772E+03  0.28079517772E+03  0.00000000000E+00 0. -1.
         -1   -1    0    0    0  501 -0.00000000000E+00 -0.00000000000E+00 -0.81727123458E+02  0.81727123458E+02  0.00000000000E+00 0.  1.
         23    2    1    2    0    0  0.14536565449E+02  0.15340680071E+02 -0.26026384080E+02  0.96483174660E+02  0.90470891032E+02 0.  0.
         23    2    1    2    0    0 -0.19969539739E+02  0.28109643581E+02  0.16137063784E+03  0.18872049626E+03  0.91575151492E+02 0.  0.
        -13    1    4    4    0    0 -0.47286927251E+02 -0.10847801364E+02  0.99235924124E+02  0.11046038620E+03  0.00000000000E+00 0. -1.
         13    1    4    4    0    0  0.27317387511E+02  0.38957444945E+02  0.62134713717E+02  0.78260110055E+02  0.00000000000E+00 0.  1.
        -13    1    3    3    0    0  0.31418154025E+02  0.37012048097E+02 -0.42438989804E+02  0.64483020728E+02  0.00000000000E+00 0.  1.
         13    1    3    3    0    0 -0.16881588576E+02 -0.21671368027E+02  0.16412605724E+02  0.32000153932E+02  0.00000000000E+00 0. -1.
         -1    1    1    2    0  502  0.54329742905E+01 -0.43450323652E+02  0.63723800503E+02  0.77318630262E+02  0.00000000000E+00 0.  1.
<scales pt_clust_5="13000.00000" pt_clust_6="13000.00000" pt_clust_7="13000.00000" pt_clust_8="13000.00000" pt_clust_9="43.78867"></scales>
<clustering>
<clus scale="   43.789">  1  9  2 -1</clus>
<clus scale="   90.471">  7  8 -1 -1</clus>
<clus scale="   91.575">  5  6 -1 -1</clus>
<clus scale="   92.133">  2  7  1 -1</clus>
<clus scale="   43.789">  1  5  2 -1</clus>
</clustering>
</event>
<event>
 9    1  0.1601012E-005  0.9285041E+02  0.7546771E-02  0.1298482E+00
          2   -1    0    0  502    0 -0.00000000000E+00  0.00000000000E+00  0.23851987606E+03  0.23851987606E+03  0.00000000000E+00 0. -1.
         21   -1    0    0  501  502  0.00000000000E+00 -0.00000000000E+00 -0.89598974520E+02  0.89598974520E+02  0.00000000000E+00 0. -1.
         23    2    1    2    0    0  0.25951533886E+00 -0.12953202123E+02  0.87332657185E+02  0.12283177988E+03  0.85397894261E+02 0.  0.
         23    2    1    2    0    0 -0.64192951800E+02 -0.14426841291E+02  0.75501774219E+02  0.13435937943E+03  0.89571513996E+02 0.  0.
        -13    1    4    4    0    0  0.14690545073E+02  0.19416822531E+02  0.97268849751E+01  0.26219027500E+02  0.00000000000E+00 0.  1.
         13    1    4    4    0    0 -0.78883496873E+02 -0.33843663822E+02  0.65774889244E+02  0.10814035193E+03  0.00000000000E+00 0. -1.
        -13    1    3    3    0    0  0.36168342378E+02  0.81771652834E+01  0.16352562731E+02  0.40526797681E+02  0.00000000000E+00 0.  1.
         13    1    3    3    0    0 -0.35908827039E+02 -0.21130367406E+02  0.70980094455E+02  0.82304982199E+02  0.00000000000E+00 0. -1.
          2    1    1    2  501    0  0.63933436461E+02  0.27380043414E+02 -0.13913529868E+02  0.70927691267E+02  0.00000000000E+00 0. -1.
<scales pt_clust_5="13000.00000" pt_clust_6="13000.00000" pt_clust_7="13000.00000" pt_clust_8="13000.00000" pt_clust_9="69.54963"></scales>
<clustering>
<clus scale="   69.550">  2  9  1 -1</clus>
<clus scale="   85.398">  7  8 -1 -1</clus>
<clus scale="   88.831">  1  7  2 -1</clus>
<clus scale="   89.572">  5  6 -1 -1</clus>
<clus scale="   69.550">  2  5  1 -1</clus>
</clustering>
</event>
<event>
 9    1  0.1601012E-005  0.1048137E+03  0.7546771E-02  0.1273884E+00
         -2   -1    0    0    0  501 -0.00000000000E+00  0.00000000000E+00  0.28911955662E+03  0.28911955662E+03  0.00000000000E+00 0.  1.
         21   -1    0    0  501  502  0.00000000000E+00 -0.00000000000E+00 -0.17146988554E+03  0.17146988554E+03  0.00000000000E+00 0.  1.
         23    2    1    2    0    0 -0.36495257666E+02  0.33166193822E+01  0.15558445174E+03  0.18759210032E+03  0.98190481633E+02 0.  0.
         23    2    1    2    0    0 -0.37129667863E+01 -0.84419004593E+02  0.61422456463E+02  0.13858693015E+03  0.91067362940E+02 0.  0.
        -11    1    3    3    0    0  0.28910692279E+02  0.15501012145E+02  0.25748292300E+02  0.41702326816E+02  0.00000000000E+00 0. -1.
         11    1    3    3    0    0 -0.65405949945E+02 -0.12184392762E+02  0.12983615944E+03  0.14588977350E+03  0.00000000000E+00 0.  1.
        -13    1    4    4    0    0  0.15635752087E+02 -0.63336133003E+02  0.80933342136E+02  0.10395262554E+03  0.00000000000E+00 0.  1.
         13    1    4    4    0    0 -0.19348718873E+02 -0.21082871589E+02 -0.19510885673E+02  0.34634304616E+02  0.00000000000E+00 0. -1.
         -2    1    1    2    0  502  0.40208224452E+02  0.81102385210E+02 -0.99357237121E+02  0.13441041168E+03  0.00000000000E+00 0.  1.
<scales pt_clust_5="13000.00000" pt_clust_6="13000.00000" pt_clust_7="13000.00000" pt_clust_8="13000.00000" pt_clust_9="90.52236"></scales>
<clustering>
<clus scale="   90.522">  2  9  1 -1</clus>
<clus scale="   91.067">  7  8 -1 -1</clus>
<clus scale="   98.172">  2  7  1 -1</clus>
<clus scale="   98.190">  5  6 -1 -1</clus>
<clus scale="   90.522">  2  5  1 -1</clus>
</clustering>
</event>
<event>
 9    1  0.1601012E-005  0.1346496E+03  0.7546771E-02  0.1221025E+00
         21   -1    0    0  501  502  0.00000000000E+00  0.00000000000E+00  0.67277622359E+02  0.67277622359E+02  0.00000000000E+00 0. -1.
          1   -1    0    0  502    0 -0.00000000000E+00 -0.00000000000E+00 -0.57594649082E+03  0.57594649082E+03  0.00000000000E+00 0. -1.
         23    2    1    2    0    0 -0.12414598188E+02  0.11026580065E+03 -0.42153772715E+03  0.44581529741E+03  0.93512325129E+02 0.  0.
         23    2    1    2    0    0 -0.26486855919E+02 -0.59662980283E+02 -0.61142812349E+02  0.12849320213E+03  0.92254185481E+02 0.  0.
        -11    1    3    3    0    0  0.32832347888E+02  0.88693871071E+02 -0.29107193291E+03  0.30605136163E+03  0.00000000000E+00 0. -1.
         11    1    3    3    0    0 -0.45246946076E+02  0.21571929581E+02 -0.13046579425E+03  0.13976393577E+03  0.00000000000E+00 0.  1.
        -13    1    4    4    0    0  0.78692969237E+01 -0.74912040661E+02 -0.38210255315E+02  0.84461608328E+02  0.00000000000E+00 0.  1.
         13    1    4    4    0    0 -0.34356152843E+02  0.15249060378E+02 -0.22932557034E+02  0.44031593802E+02  0.00000000000E+00 0. -1.
          1    1    1    2  501    0  0.38901454107E+02 -0.50602820370E+02 -0.25988328957E+02  0.68915613637E+02  0.00000000000E+00 0. -1.
<scales pt_clust_5="13000.00000" pt_clust_6="13000.00000" pt_clust_7="13000.00000" pt_clust_8="13000.00000" pt_clust_9="63.82765"></scales>
<clustering>
<clus scale="   63.828">  1  9  2 -1</clus>
<clus scale="   92.254">  7  8 -1 -1</clus>
<clus scale="   93.512">  5  6 -1 -1</clus>
<clus scale="  133.779">  1  7  2 -1</clus>
<clus scale="   63.828">  1  5  2 -1</clus>
</clustering>
</event>
<event>
 9    1  0.1601012E-005  0.2966111E+03  0.7546771E-02  0.1087128E+00
         -1   -1    0    0    0  501 -0.00000000000E+00  0.00000000000E+00  0.76828596163E+02  0.76828596163E+02  0.00000000000E+00 0.  1.
         21   -1    0    0  501  502  0.00000000000E+00 -0.00000000000E+00 -0.16455043330E+04  0.16455043330E+04  0.00000000000E+00 0.  1.
         23    2    1    2    0    0  0.17648525760E+03 -0.25046171168E+03 -0.50033285820E+03  0.59375191924E+03  0.91270244021E+02 0.  0.
         23    2    1    2    0    0 -0.12236621730E+03  0.21941153799E+03 -0.61819224148E+03  0.67412685388E+03  0.95762485115E+02 0.  0.
        -11    1    3    3    0    0  0.79013726895E+02 -0.16196827747E+03 -0.35180696720E+03  0.39527842607E+03  0.00000000000E+00 0.  1.
         11    1    3    3    0    0  0.97471530702E+02 -0.88493434210E+02 -0.14852589100E+03  0.19847349317E+03  0.00000000000E+00 0. -1.
        -13    1    4    4    0    0 -0.10062499813E+03  0.22157333800E+03 -0.52887196448E+03  0.58217324669E+03  0.00000000000E+00 0.  1.
         13    1    4    4    0    0 -0.21741219173E+02 -0.21618000011E+01 -0.89320277006E+02  0.91953607187E+02  0.00000000000E+00 0. -1.
         -1    1    1    2    0  502 -0.54119040295E+02  0.31050173684E+02 -0.45015063715E+03  0.45445415603E+03  0.00000000000E+00 0.  1.
<scales pt_clust_5="13000.00000" pt_clust_6="13000.00000" pt_clust_7="13000.00000" pt_clust_8="13000.00000" pt_clust_9="62.39378"></scales>
<clustering>
<clus scale="   62.394">  2  9  1 -1</clus>
<clus scale="   91.270">  5  6 -1 -1</clus>
<clus scale="   95.762">  7  8 -1 -1</clus>
<clus scale="  295.191">  1  5  2 -1</clus>
<clus scale="   62.394">  2  5  1 -1</clus>
</clustering>
</event>
<event>
 9    1  0.1772450E-005  0.9826075E+02  0.7546771E-02  0.1286721E+00
         21   -1    0    0  501  502  0.00000000000E+00  0.00000000000E+00  0.96057452418E+02  0.96057452418E+02  0.00000000000E+00 0. -1.
         -3   -1    0    0    0  501 -0.00000000000E+00 -0.00000000000E+00 -0.30786496764E+03  0.30786496764E+03  0.00000000000E+00 0.  1.
         23    2    1    2    0    0  0.10203799000E+02  0.33422547250E+01 -0.25695110813E+03  0.27501222308E+03  0.97429783386E+02 0.  0.
         23    2    1    2    0    0 -0.29612702903E+02  0.66947191291E+01  0.28386414162E+02  0.10137386763E+03  0.92461565482E+02 0.  0.
        -11    1    3    3    0    0  0.23791253099E+02 -0.41898455471E+02 -0.98218526120E+02  0.10940010589E+03  0.00000000000E+00 0.  1.
         11    1    3    3    0    0 -0.13587454099E+02  0.45240710196E+02 -0.15873258201E+03  0.16561211719E+03  0.00000000000E+00 0. -1.
        -13    1    4    4    0    0  0.27731413339E+02  0.11575019872E+02 -0.10595088371E+02  0.31863274603E+02  0.00000000000E+00 0.  1.
         13    1    4    4    0    0 -0.57344116242E+02 -0.48803007431E+01  0.38981502533E+02  0.69510593025E+02  0.00000000000E+00 0. -1.
         -3    1    1    2    0  502  0.19408903903E+02 -0.10036973854E+02  0.16757178746E+02  0.27536329356E+02  0.00000000000E+00 0.  1.
<scales pt_clust_5="13000.00000" pt_clust_6="13000.00000" pt_clust_7="13000.00000" pt_clust_8="13000.00000" pt_clust_9="21.85055"></scales>
<clustering>
<clus scale="   21.851">  1  9  2 -1</clus>
<clus scale="   92.462">  7  8 -1 -1</clus>
<clus scale="   93.337">  1  7  2 -1</clus>
<clus scale="   97.430">  5  6 -1 -1</clus>
<clus scale="   21.851">  1  5  2 -1</clus>
</clustering>
</event>
<event>
 9    1  0.1601012E-005  0.1162043E+03  0.7546771E-02  0.1252302E+00
          3   -1    0    0  502    0 -0.00000000000E+00  0.00000000000E+00  0.59193554906E+03  0.59193554906E+03  0.00000000000E+00 0. -1.
         21   -1    0    0  501  502  0.00000000000E+00 -0.00000000000E+00 -0.51606460364E+02  0.51606460364E+02  0.00000000000E+00 0.  1.
         23    2    1    2    0    0  0.53047937249E+02  0.45967970461E+02  0.46806293809E+03  0.48234937327E+03  0.93010031342E+02 0.  0.
         23    2    1    2    0    0 -0.29905616894E+02 -0.66338751989E+02  0.65483253642E+02  0.12962456014E+03  0.84966429534E+02 0.  0.
        -11    1    3    3    0    0 -0.17303674458E+02  0.40480476664E+02  0.13898398573E+03  0.14578969247E+03  0.00000000000E+00 0.  1.
         11    1    3    3    0    0  0.70351611707E+02  0.54874937975E+01  0.32907895236E+03  0.33655968080E+03  0.00000000000E+00 0. -1.
        -13    1    4    4    0    0 -0.58473786890E+02 -0.47266636374E+02  0.56696482117E+02  0.94169048799E+02  0.00000000000E+00 0.  1.
         13    1    4    4    0    0  0.28568169995E+02 -0.19072115615E+02  0.87867715257E+01  0.35455511345E+02  0.00000000000E+00 0. -1.
          3    1    1    2  501    0 -0.23142320355E+02  0.20370781528E+02  0.67828969651E+01  0.31568076006E+02  0.00000000000E+00 0. -1.
<scales pt_clust_5="13000.00000" pt_clust_6="13000.00000" pt_clust_7="13000.00000" pt_clust_8="13000.00000" pt_clust_9="30.83076"></scales>
<clustering>
<clus scale="   30.831">  2  9  1 -1</clus>
<clus scale="   84.966">  7  8 -1 -1</clus>
<clus scale="   93.010">  5  6 -1 -1</clus>
<clus scale="  109.872">  2  7  1 -1</clus>
<clus scale="   30.831">  2  5  1 -1</clus>
</clustering>
</event>
<event>
 9    1  0.1601012E-005  0.1632355E+03  0.7546771E-02  0.1201071E+00
         21   -1    0    0  501  502  0.00000000000E+00  0.00000000000E+00  0.78591220034E+02  0.78591220034E+02  0.00000000000E+00 0. -1.
          4   -1    0    0  502    0 -0.00000000000E+00 -0.00000000000E+00 -0.64677850567E+03  0.64677850567E+03  0.00000000000E+00 0. -1.
         23    2    1    2    0    0  0.68039584360E+02  0.15438550456E+02 -0.18802799744E+03  0.22035048019E+03  0.91280186330E+02 0.  0.
         23    2    1    2    0    0  0.60761798514E+01  0.99713774237E+02 -0.32860924483E+03  0.35869559275E+03  0.10343469313E+03 0.  0.
        -11    1    3    3    0    0 -0.14040353504E+02  0.21789702086E+02 -0.18361497164E+02  0.31765818447E+02  0.00000000000E+00 0.  1.
         11    1    3    3    0    0  0.82079937865E+02 -0.63511516299E+01 -0.16966650028E+03  0.18858466174E+03  0.00000000000E+00 0. -1.
        -13    1    4    4    0    0  0.52740307940E+02  0.63273890414E+02 -0.22135938766E+03  0.23618870378E+03  0.00000000000E+00 0.  1.
         13    1    4    4    0    0 -0.46664128089E+02  0.36439883823E+02 -0.10724985717E+03  0.12250688897E+03  0.00000000000E+00 0. -1.
          4    1    1    2  501    0 -0.74115764212E+02 -0.11515232469E+03 -0.51550043369E+02  0.14632365276E+03  0.00000000000E+00 0. -1.
<scales pt_clust_5="13000.00000" pt_clust_6="13000.00000" pt_clust_7="13000.00000" pt_clust_8="13000.00000" pt_clust_9="126.28177"></scales>
<clustering>
<clus scale="   91.280">  5  6 -1 -1</clus>
<clus scale="  103.435">  7  8 -1 -1</clus>
<clus scale="  114.890">  2  5  1 -1</clus>
<clus scale="  126.282">  1  9  2 -1</clus>
<clus scale="  126.282">  1  5  2 -1</clus>
</clustering>
</event>
<event>
 9    1  0.1601012E-005  0.1179201E+03  0.7546771E-02  0.1246601E+00
         21   -1    0    0  501  502  0.00000000000E+00  0.00000000000E+00  0.32019714658E+03  0.32019714658E+03  0.00000000000E+00 0.  1.
         -3   -1    0    0    0  501 -0.00000000000E+00 -0.00000000000E+00 -0.16171275006E+03  0.16171275006E+03  0.00000000000E+00 0.  1.
         23    2    1    2    0    0 -0.16840452221E+02 -0.38612069296E+02 -0.17093806868E+02  0.10219121368E+03  0.91522419079E+02 0.  0.
         23    2    1    2    0    0  0.17987723917E+02  0.12127553210E+03 -0.31927822789E+02  0.15635056702E+03  0.91623146867E+02 0.  0.
        -11    1    4    4    0    0  0.29858880572E+02  0.38490960235E+02 -0.51047237130E+02  0.70561513500E+02  0.00000000000E+00 0. -1.
         11    1    4    4    0    0 -0.11871156655E+02  0.82784571863E+02  0.19119414342E+02  0.85789053519E+02  0.00000000000E+00 0.  1.
        -13    1    3    3    0    0  0.35952886898E+02 -0.30717172501E+02 -0.59604795483E+01  0.47662166120E+02  0.00000000000E+00 0.  1.
         13    1    3    3    0    0 -0.52793339119E+02 -0.78948967943E+01 -0.11133327320E+02  0.54529047561E+02  0.00000000000E+00 0. -1.
         -3    1    1    2    0  502 -0.11472716959E+01 -0.82663462802E+02  0.20750602618E+03  0.22336811593E+03  0.00000000000E+00 0.  1.
<scales pt_clust_5="13000.00000" pt_clust_6="13000.00000" pt_clust_7="13000.00000" pt_clust_8="13000.00000" pt_clust_9="82.67142"></scales>
<clustering>
<clus scale="   82.671">  1  9  2 -1</clus>
<clus scale="   91.522">  7  8 -1 -1</clus>
<clus scale="   91.623">  5  6 -1 -1</clus>
<clus scale="  117.842">  2  7  1 -1</clus>
<clus scale="   82.671">  1  5  2 -1</clus>
</clustering>
</event>
<event>
 9    1  0.1601012E-005  0.3022437E+03  0.7546771E-02  0.1085300E+00
         21   -1    0    0  501  502  0.00000000000E+00  0.00000000000E+00  0.22154216391E+03  0.22154216391E+03  0.00000000000E+00 0. -1.
          4   -1    0    0  502    0 -0.00000000000E+00 -0.00000000000E+00 -0.60641769974E+03  0.60641769974E+03  0.00000000000E+00 0. -1.
         23    2    1    2    0    0  0.19205165996E+03  0.19041032182E+03 -0.28131645196E+03  0.40080758119E+03  0.91475899849E+02 0.  0.
         23    2    1    2    0    0 -0.21051257038E+03 -0.20015583350E+03 -0.17059713608E+03  0.35693917361E+03  0.11800123239E+03 0.  0.
        -11    1    3    3    0    0  0.13339906992E+03  0.14259965954E+03 -0.25394182242E+03  0.32033798390E+03  0.00000000000E+00 0. -1.
         11    1    3    3    0    0  0.58652590043E+02  0.47810662274E+02 -0.27374629534E+02  0.80469597290E+02  0.00000000000E+00 0.  1.
        -11    1    4    4    0    0 -0.51138632609E+02 -0.38417485574E+02  0.12593020241E+02  0.65189317390E+02  0.00000000000E+00 0. -1.
         11    1    4    4    0    0 -0.15937393777E+03 -0.16173834793E+03 -0.18319015632E+03  0.29174985622E+03  0.00000000000E+00 0.  1.
          4    1    1    2  501    0  0.18460910416E+02  0.97455116868E+01  0.67038052206E+02  0.70213108855E+02  0.00000000000E+00 0. -1.
<scales pt_clust_5="13000.00000" pt_clust_6="13000.00000" pt_clust_7="13000.00000" pt_clust_8="13000.00000" pt_clust_9="20.87535"></scales>
<clustering>
<clus scale="   20.875">  1  9  2 -1</clus>
<clus scale="   91.476">  5  6 -1 -1</clus>
<clus scale="  118.001">  7  8 -1 -1</clus>
<clus scale="  292.907">  2  5  1 -1</clus>
<clus scale="   20.875">  1  5  2 -1</clus>
</clustering>
</event>
<event>
 9    1  0.1601012E-005  0.2755141E+03  0.7546771E-02  0.1110851E+00
          2   -1    0    0  502    0 -0.00000000000E+00  0.00000000000E+00  0.13330793016E+04  0.13330793016E+04  0.00000000000E+00 0. -1.
         21   -1    0    0  501  502  0.00000000000E+00 -0.00000000000E+00 -0.45991407143E+03  0.45991407143E+03  0.00000000000E+00 0. -1.
         23    2    1    2    0    0 -0.37125513440E+02  0.17542340850E+03  0.56332538824E+03  0.59736738078E+03  0.85794047472E+02 0.  0.
         23    2    1    2    0    0  0.18352655953E+03 -0.37990211813E+03  0.64544163400E+03  0.77625339914E+03  0.89257040968E+02 0.  0.
        -11    1    3    3    0    0 -0.53297721072E+02  0.52866037201E+02  0.20430638192E+03  0.21766157827E+03  0.00000000000E+00 0. -1.
         11    1    3    3    0    0  0.16172207632E+02  0.12255737130E+03  0.35901900632E+03  0.37970580251E+03  0.00000000000E+00 0.  1.
        -13    1    4    4    0    0  0.10632909042E+03 -0.16022981756E+03  0.22802224943E+03  0.29828445507E+03  0.00000000000E+00 0. -1.
         13    1    4    4    0    0  0.77197469118E+02 -0.21967230057E+03  0.41741938458E+03  0.47796894407E+03  0.00000000000E+00 0.  1.
          2    1    1    2  501    0 -0.14640104609E+03  0.20447870963E+03 -0.33560179208E+03  0.41937259310E+03  0.00000000000E+00 0. -1.
<scales pt_clust_5="13000.00000" pt_clust_6="13000.00000" pt_clust_7="13000.00000" pt_clust_8="13000.00000" pt_clust_9="260.65535"></scales>
<clustering>
<clus scale="   85.794">  5  6 -1 -1</clus>
<clus scale="   89.257">  7  8 -1 -1</clus>
<clus scale="  198.777">  1  5  2 -1</clus>
<clus scale="  260.655">  2  9  1 -1</clus>
<clus scale="  260.655">  2  5  1 -1</clus>
</clustering>
</event>
<event>
 9    1  0.1601012E-005  0.1950442E+03  0.7546771E-02  0.1154086E+00
          3   -1    0    0  502    0 -0.00000000000E+00  0.00000000000E+00  0.17040872415E+03  0.17040872415E+03  0.00000000000E+00 0. -1.
         21   -1    0    0  501  502  0.00000000000E+00 -0.00000000000E+00 -0.31835761912E+03  0.31835761912E+03  0.00000000000E+00 0.  1.
         23    2    1    2    0    0 -0.15584935797E+03 -0.67289536821E+02 -0.94263432556E+01  0.19327314509E+03  0.91917074156E+02 0.  0.
         23    2    1    2    0    0  0.14532147446E+03  0.10096362176E+03 -0.57480026203E+02  0.20710388169E+03  0.90972965983E+02 0.  0.
        -11    1    3    3    0    0 -0.35348038814E+02 -0.62483302466E+02  0.41822352863E+01  0.71910625272E+02  0.00000000000E+00 0.  1.
         11    1    3    3    0    0 -0.12050131916E+03 -0.48062343543E+01 -0.13608578542E+02  0.12136251982E+03  0.00000000000E+00 0. -1.
        -13    1    4    4    0    0  0.17280771783E+02 -0.15574003865E+02 -0.18283592723E+02  0.29588248219E+02  0.00000000000E+00 0.  1.
         13    1    4    4    0    0  0.12804070268E+03  0.11653762563E+03 -0.39196433480E+02  0.17751563347E+03  0.00000000000E+00 0. -1.
          3    1    1    2  501    0  0.10527883509E+02 -0.33674084940E+02 -0.81042525512E+02  0.88389316487E+02  0.00000000000E+00 0. -1.
<scales pt_clust_5="13000.00000" pt_clust_6="13000.00000" pt_clust_7="13000.00000" pt_clust_8="13000.00000" pt_clust_9="35.28144"></scales>
<clustering>
<clus scale="   35.281">  2  9  1 -1</clus>
<clus scale="   90.973">  7  8 -1 -1</clus>
<clus scale="   91.917">  5  6 -1 -1</clus>
<clus scale="  194.601">  2  7  1 -1</clus>
<clus scale="   35.281">  2  5  1 -1</clus>
</clustering>
</event>
<event>
 9    1  0.1601012E-005  0.9891011E+02  0.7546771E-02  0.1287433E+00
         -4   -1    0    0    0  501 -0.00000000000E+00  0.00000000000E+00  0.51963954909E+03  0.51963954909E+03  0.00000000000E+00 0.  1.
         21   -1    0    0  501  502  0.00000000000E+00 -0.00000000000E+00 -0.24785049774E+02  0.24785049774E+02  0.00000000000E+00 0. -1.
         23    2    1    2    0    0 -0.15441478713E+01  0.16683498319E+02  0.30975214630E+03  0.32539520423E+03  0.98259469186E+02 0.  0.
         23    2    1    2    0    0 -0.16887494154E+02  0.10785226140E+01  0.15106943314E+03  0.17644472075E+03  0.89579100130E+02 0.  0.
        -11    1    4    4    0    0  0.33107681389E+02 -0.16652427509E+02  0.75633183938E+02  0.84224701967E+02  0.00000000000E+00 0. -1.
         11    1    4    4    0    0 -0.49995175543E+02  0.17730950123E+02  0.75436249202E+02  0.92220018779E+02  0.00000000000E+00 0.  1.
        -13    1    3    3    0    0 -0.47201552547E+02  0.67505469428E+01  0.20848529946E+03  0.21386836264E+03  0.00000000000E+00 0.  1.
         13    1    3    3    0    0  0.45657404675E+02  0.99329513767E+01  0.10126684684E+03  0.11152684159E+03  0.00000000000E+00 0. -1.
         -4    1    1    2    0  502  0.18431642025E+02 -0.17762020933E+02  0.34032919870E+02  0.42584673889E+02  0.00000000000E+00 0.  1.
<scales pt_clust_5="13000.00000" pt_clust_6="13000.00000" pt_clust_7="13000.00000" pt_clust_8="13000.00000" pt_clust_9="25.59716"></scales>
<clustering>
<clus scale="   25.597">  2  9  1 -1</clus>
<clus scale="   89.579">  5  6 -1 -1</clus>
<clus scale="   90.292">  2  5  1 -1</clus>
<clus scale="   98.259">  7  8 -1 -1</clus>
<clus scale="   25.597">  2  5  1 -1</clus>
</clustering>
</event>
<event>
 9    1  0.1601012E-005  0.1077993E+03  0.7546771E-02  0.1264860E+00
         21   -1    0    0  501  502  0.00000000000E+00  0.00000000000E+00  0.14449223448E+03  0.14449223448E+03  0.00000000000E+00 0.  1.
          1   -1    0    0  502    0 -0.00000000000E+00 -0.00000000000E+00 -0.14624289157E+03  0.14624289157E+03  0.00000000000E+00 0. -1.
         23    2    1    2    0    0  0.36572442297E+02 -0.64617903239E+02 -0.33939417856E+01  0.11793665210E+03  0.91567014329E+02 0.  0.
         23    2    1    2    0    0  0.19438019383E+02  0.45318474277E+02  0.28869945499E+02  0.10759931112E+03  0.91173117153E+02 0.  0.
        -11    1    4    4    0    0  0.55347393251E+02  0.19426940262E+02  0.22718823308E+02  0.62903774769E+02  0.00000000000E+00 0.  1.
         11    1    4    4    0    0 -0.35909373868E+02  0.25891534015E+02  0.61511221902E+01  0.44695536348E+02  0.00000000000E+00 0. -1.
        -13    1    3    3    0    0 -0.33266790013E+01  0.20427206699E+02 -0.11449938612E+02  0.23652455706E+02  0.00000000000E+00 0. -1.
         13    1    3    3    0    0  0.39899121298E+02 -0.85045109938E+02  0.80559968266E+01  0.94284196394E+02  0.00000000000E+00 0.  1.
          1    1    1    2  501    0 -0.56010461680E+02  0.19299428962E+02 -0.27226660796E+02  0.65199162832E+02  0.00000000000E+00 0. -1.
<scales pt_clust_5="13000.00000" pt_clust_6="13000.00000" pt_clust_7="13000.00000" pt_clust_8="13000.00000" pt_clust_9="59.24224"></scales>
<clustering>
<clus scale="   59.242">  1  9  2 -1</clus>
<clus scale="   91.173">  5  6 -1 -1</clus>
<clus scale="   91.567">  7  8 -1 -1</clus>
<clus scale="  107.465">  1  5  2 -1</clus>
<clus scale="   59.242">  1  5  2 -1</clus>
</clustering>
</event>
<event>
 9    1  0.1601012E-005  0.1933173E+03  0.7546771E-02  0.1155885E+00
         -3   -1    0    0    0  501 -0.00000000000E+00  0.00000000000E+00  0.13618668228E+03  0.13618668228E+03  0.00000000000E+00 0.  1.
         21   -1    0    0  501  502  0.00000000000E+00 -0.00000000000E+00 -0.56226660397E+03  0.56226660397E+03  0.00000000000E+00 0. -1.
         23    2    1    2    0    0 -0.16757079755E+03 -0.30715378493E+02 -0.11555166640E+02  0.19405663138E+03  0.92201126024E+02 0.  0.
         23    2    1    2    0    0  0.14680560589E+03  0.10738643082E+03 -0.24913013989E+03  0.32091635027E+03  0.88531044419E+02 0.  0.
        -11    1    4    4    0    0  0.10065093007E+03  0.10828147137E+03 -0.22391367509E+03  0.26831477905E+03  0.00000000000E+00 0. -1.
         11    1    4    4    0    0  0.46154675819E+02 -0.89504055027E+00 -0.25216464796E+02  0.52601571216E+02  0.00000000000E+00 0.  1.
        -13    1    3    3    0    0 -0.12549034102E+03  0.16230715103E+02 -0.26462165801E+02  0.12927299803E+03  0.00000000000E+00 0. -1.
         13    1    3    3    0    0 -0.42080456529E+02 -0.46946093596E+02  0.14906999161E+02  0.64783633347E+02  0.00000000000E+00 0.  1.
         -3    1    1    2    0  502  0.20765191661E+02 -0.76671052329E+02 -0.16539461516E+03  0.18348030460E+03  0.00000000000E+00 0.  1.
<scales pt_clust_5="13000.00000" pt_clust_6="13000.00000" pt_clust_7="13000.00000" pt_clust_8="13000.00000" pt_clust_9="79.43326"></scales>
<clustering>
<clus scale="   79.433">  2  9  1 -1</clus>
<clus scale="   88.531">  5  6 -1 -1</clus>
<clus scale="   92.201">  7  8 -1 -1</clus>
<clus scale="  191.594">  2  5  1 -1</clus>
<clus scale="   79.433">  2  5  1 -1</clus>
</clustering>
</event>
<event>
 9    1  0.1601012E-005  0.1268137E+03  0.7546771E-02  0.1240900E+00
          2   -1    0    0  502    0 -0.00000000000E+00  0.00000000000E+00  0.75179937017E+02  0.75179937017E+02  0.00000000000E+00 0. -1.
         21   -1    0    0  501  502  0.00000000000E+00 -0.00000000000E+00 -0.63183829190E+03  0.63183829190E+03  0.00000000000E+00 0. -1.
         23    2    1    2    0    0 -0.54594458502E+02 -0.10803753408E+02 -0.12427414933E+02  0.10702633679E+03  0.90569973715E+02 0.  0.
         23    2    1    2    0    0 -0.70843275786E+02  0.45863235313E+01 -0.35235966418E+03  0.37067144366E+03  0.90554856944E+02 0.  0.
        -11    1    4    4    0    0  0.14485390255E+02  0.18383316383E+02 -0.37862430941E+02  0.44512206515E+02  0.00000000000E+00 0.  1.
         11    1    4    4    0    0 -0.85328666041E+02 -0.13796992852E+02 -0.31449723324E+03  0.32615923714E+03  0.00000000000E+00 0. -1.
        -11    1    3    3    0    0 -0.27146692127E+02 -0.38378736694E+02  0.24824300526E+02  0.53161228543E+02  0.00000000000E+00 0.  1.
         11    1    3    3    0    0 -0.27447766375E+02  0.27574983286E+02 -0.37251715459E+02  0.53865108250E+02  0.00000000000E+00 0. -1.
          2    1    1    2  501    0  0.12543773429E+03  0.62174298763E+01 -0.19187127577E+03  0.22932044846E+03  0.00000000000E+00 0. -1.
<scales pt_clust_5="13000.00000" pt_clust_6="13000.00000" pt_clust_7="13000.00000" pt_clust_8="13000.00000" pt_clust_9="88.77810"></scales>
<clustering>
<clus scale="   90.555">  5  6 -1 -1</clus>
<clus scale="   90.570">  7  8 -1 -1</clus>
<clus scale="  106.302">  1  7  2 -1</clus>
<clus scale="   88.778">  2  9  1 -1</clus>
<clus scale="   88.778">  2  5  1 -1</clus>
</clustering>
</event>
<event>
 9    1  0.1601012E-005  0.1366757E+03  0.7546771E-02  0.1218221E+00
         21   -1    0    0  501  502  0.00000000000E+00  0.00000000000E+00  0.10822690256E+03  0.10822690256E+03  0.00000000000E+00 0.  1.
         -2   -1    0    0    0  501 -0.00000000000E+00 -0.00000000000E+00 -0.42841620549E+03  0.42841620549E+03  0.00000000000E+00 0.  1.
         23    2    1    2    0    0  0.86034391523E+02 -0.48955618971E+02 -0.31451038564E+03  0.34235545471E+03  0.92151535751E+02 0.  0.
         23    2    1    2    0    0 -0.10803808074E+03  0.28068271107E+02 -0.39222242046E+02  0.14905936267E+03  0.90665619709E+02 0.  0.
        -11    1    4    4    0    0 -0.24521434988E+02 -0.31935115207E+02 -0.17761065466E+02  0.44006906317E+02  0.00000000000E+00 0.  1.
         11    1    4    4    0    0 -0.83516645750E+02  0.60003386314E+02 -0.21461176580E+02  0.10505245636E+03  0.00000000000E+00 0. -1.
        -13    1    3    3    0    0  0.62013916855E+02 -0.74739736972E+02 -0.25894527614E+03  0.27655814976E+03  0.00000000000E+00 0.  1.
         13    1    3    3    0    0  0.24020474668E+02  0.25784118002E+02 -0.55565109505E+02  0.65797304950E+02  0.00000000000E+00 0. -1.
         -2    1    1    2    0  502  0.22003689214E+02  0.20887347864E+02  0.33543324767E+02  0.45228290662E+02  0.00000000000E+00 0.  1.
<scales pt_clust_5="13000.00000" pt_clust_6="13000.00000" pt_clust_7="13000.00000" pt_clust_8="13000.00000" pt_clust_9="30.33881"></scales>
<clustering>
<clus scale="   30.339">  1  9  2 -1</clus>
<clus scale="   90.666">  5  6 -1 -1</clus>
<clus scale="   92.152">  7  8 -1 -1</clus>
<clus scale="  135.678">  1  5  2 -1</clus>
<clus scale="   30.339">  1  5  2 -1</clus>
</clustering>
</event>
<event>
 9    1  0.1601012E-005  0.1061176E+03  0.7546771E-02  0.1267947E+00
         21   -1    0    0  501  502  0.00000000000E+00  0.00000000000E+00  0.56930361787E+03  0.56930361787E+03  0.00000000000E+00 0.  1.
          1   -1    0    0  502    0 -0.00000000000E+00 -0.00000000000E+00 -0.47614474449E+02  0.47614474449E+02  0.00000000000E+00 0. -1.
         23    2    1    2    0    0 -0.50071427635E+02 -0.11532129479E+02  0.33756988817E+02  0.10984159796E+03  0.91024746479E+02 0.  0.
         23    2    1    2    0    0  0.68507860510E+02  0.21302051125E+02  0.38604968181E+03  0.40307941898E+03  0.91057986168E+02 0.  0.
        -11    1    3    3    0    0  0.17553921737E+02 -0.29701496993E+02  0.11382670926E+02  0.36330211799E+02  0.00000000000E+00 0.  1.
         11    1    3    3    0    0 -0.67625349372E+02  0.18169367513E+02  0.22374317891E+02  0.73511386156E+02  0.00000000000E+00 0. -1.
        -13    1    4    4    0    0  0.74499641508E+02  0.45970615851E+02  0.25540275509E+03  0.26998900239E+03  0.00000000000E+00 0.  1.
         13    1    4    4    0    0 -0.59917809984E+01 -0.24668564725E+02  0.13064692672E+03  0.13309041658E+03  0.00000000000E+00 0. -1.
          1    1    1    2  501    0 -0.18436432874E+02 -0.97699216459E+01  0.10188247279E+03  0.10399707539E+03  0.00000000000E+00 0. -1.
<scales pt_clust_5="13000.00000" pt_clust_6="13000.00000" pt_clust_7="13000.00000" pt_clust_8="13000.00000" pt_clust_9="20.86512"></scales>
<clustering>
<clus scale="   20.865">  1  9  2 -1</clus>
<clus scale="   91.025">  5  6 -1 -1</clus>
<clus scale="   91.058">  7  8 -1 -1</clus>
<clus scale="  106.089">  2  5  1 -1</clus>
<clus scale="   20.865">  1  5  2 -1</clus>
</clustering>
</event>
<event>
 9    1  0.1601012E-005  0.1148245E+03  0.7546771E-02  0.1253612E+00
          1   -1    0    0  502    0 -0.00000000000E+00  0.00000000000E+00  0.19878901640E+03  0.19878901640E+03  0.00000000000E+00 0. -1.
         21   -1    0    0  501  502  0.00000000000E+00 -0.00000000000E+00 -0.12475338187E+03  0.12475338187E+03  0.00000000000E+00 0. -1.
         23    2    1    2    0    0  0.35718589611E+01  0.70057179623E+02  0.79907015824E+02  0.13985278871E+03  0.90845499285E+02 0.  0.
         23    2    1    2    0    0 -0.31061596904E+02 -0.51221487089E+02  0.46207277063E+02  0.12186198093E+03  0.95534111186E+02 0.  0.
        -11    1    3    3    0    0  0.33448401076E+02  0.26349622210E+02 -0.16569076870E+01  0.42612714866E+02  0.00000000000E+00 0.  1.
         11    1    3    3    0    0 -0.29876542115E+02  0.43707557413E+02  0.81563923511E+02  0.97240073849E+02  0.00000000000E+00 0. -1.
        -11    1    4    4    0    0 -0.63449344224E+02 -0.17956430906E+02  0.32092891798E+02  0.73336255681E+02  0.00000000000E+00 0. -1.
         11    1    4    4    0    0  0.32387747320E+02 -0.33265056182E+02  0.14114385266E+02  0.48525725246E+02  0.00000000000E+00 0.  1.
          1    1    1    2  501    0  0.27489737943E+02 -0.18835692534E+02 -0.52078658358E+02  0.61827628629E+02  0.00000000000E+00 0. -1.
<scales pt_clust_5="13000.00000" pt_clust_6="13000.00000" pt_clust_7="13000.00000" pt_clust_8="13000.00000" pt_clust_9="33.32370"></scales>
<clustering>
<clus scale="   33.324">  2  9  1 -1</clus>
<clus scale="   90.845">  5  6 -1 -1</clus>
<clus scale="   95.534">  7  8 -1 -1</clus>
<clus scale="  110.954">  1  5  2 -1</clus>
<clus scale="   33.324">  2  5  1 -1</clus>
</clustering>
</event>
<event>
 9    1  0.1601012E-005  0.9399039E+02  0.7546771E-02  0.1295712E+00
         21   -1    0    0  501  502  0.00000000000E+00  0.00000000000E+00  0.10766169882E+03  0.10766169882E+03  0.00000000000E+00 0.  1.
          2   -1    0    0  502    0 -0.00000000000E+00 -0.00000000000E+00 -0.16689592514E+03  0.16689592514E+03  0.00000000000E+00 0. -1.
         23    2    1    2    0    0  0.22547066547E+02 -0.63199526820E+00 -0.53420434357E+02  0.10610277965E+03  0.88855429855E+02 0.  0.
         23    2    1    2    0    0  0.89569430265E+01 -0.28696779595E+02 -0.47568307327E+02  0.10848719297E+03  0.92752332521E+02 0.  0.
        -11    1    3    3    0    0  0.56550675992E+02  0.19420381902E+01 -0.40723588464E+02  0.69714855840E+02  0.00000000000E+00 0.  1.
         11    1    3    3    0    0 -0.34003609445E+02 -0.25740334584E+01 -0.12696845893E+02  0.36387923810E+02  0.00000000000E+00 0. -1.
        -11    1    4    4    0    0  0.41324545279E+02 -0.31609869294E+01  0.49276602553E+01  0.41737174275E+02  0.00000000000E+00 0.  1.
         11    1    4    4    0    0 -0.32367602253E+02 -0.25535792666E+02 -0.52495967582E+02  0.66750018690E+02  0.00000000000E+00 0. -1.
          2    1    1    2  501    0 -0.31504009573E+02  0.29328774864E+02  0.41754515369E+02  0.59967651345E+02  0.00000000000E+00 0. -1.
<scales pt_clust_5="13000.00000" pt_clust_6="13000.00000" pt_clust_7="13000.00000" pt_clust_8="13000.00000" pt_clust_9="43.04277"></scales>
<clustering>
<clus scale="   43.043">  1  9  2 -1</clus>
<clus scale="   88.855">  5  6 -1 -1</clus>
<clus scale="   90.147">  2  5  1 -1</clus>
<clus scale="   92.752">  7  8 -1 -1</clus>
<clus scale="   43.043">  1  5  2 -1</clus>
</clustering>
</event>
<event>
 9    1  0.1601012E-005  0.1230217E+03  0.7546771E-02  0.1239730E+00
         21   -1    0    0  501  502  0.00000000000E+00  0.00000000000E+00  0.21269407853E+03  0.21269407853E+03  0.00000000000E+00 0. -1.
         -2   -1    0    0    0  501 -0.00000000000E+00 -0.00000000000E+00 -0.10495348815E+03  0.10495348815E+03  0.00000000000E+00 0.  1.
         23    2    1    2    0    0  0.19937853487E+02  0.81390528308E+02  0.12989289544E+02  0.12658594052E+03  0.93985863808E+02 0.  0.
         23    2    1    2    0    0 -0.50604305449E+02 -0.60280843829E+02  0.40977754306E+02  0.12565792320E+03  0.88972812995E+02 0.  0.
        -11    1    4    4    0    0 -0.67899311820E+02 -0.23067577241E+02  0.44622278714E+02  0.84460508067E+02  0.00000000000E+00 0.  1.
         11    1    4    4    0    0  0.17295006370E+02 -0.37213266588E+02 -0.36445244075E+01  0.41197415133E+02  0.00000000000E+00 0. -1.
        -11    1    3    3    0    0  0.55393884115E+02  0.59877886033E+02  0.21262711365E+02  0.84296776497E+02  0.00000000000E+00 0. -1.
         11    1    3    3    0    0 -0.35456030628E+02  0.21512642275E+02 -0.82734218213E+01  0.42289164028E+02  0.00000000000E+00 0.  1.
         -2    1    1    2    0  502  0.30666451963E+02 -0.21109684479E+02  0.53773546524E+02  0.65403702958E+02  0.00000000000E+00 0.  1.
<scales pt_clust_5="13000.00000" pt_clust_6="13000.00000" pt_clust_7="13000.00000" pt_clust_8="13000.00000" pt_clust_9="37.22969"></scales>
<clustering>
<clus scale="   37.230">  1  9  2 -1</clus>
<clus scale="   88.973">  5  6 -1 -1</clus>
<clus scale="   93.986">  7  8 -1 -1</clus>
<clus scale="  119.236">  1  5  2 -1</clus>
<clus scale="   37.230">  1  5  2 -1</clus>
</clustering>
</event>
<event>
 9    1  0.1601012E-005  0.1759386E+03  0.7546771E-02  0.1171883E+00
         -2   -1    0    0    0  501 -0.00000000000E+00  0.00000000000E+00  0.69803058712E+03  0.69803058712E+03  0.00000000000E+00 0.  1.
         21   -1    0    0  501  502  0.00000000000E+00 -0.00000000000E+00 -0.10431967809E+03  0.10431967809E+03  0.00000000000E+00 0.  1.
         23    2    1    2    0    0 -0.95102117780E+02 -0.11134075638E+03  0.52838135769E+03  0.55582009073E+03  0.91147886816E+02 0.  0.
         23    2    1    2    0    0  0.13567183432E+03  0.11077269405E+03  0.53020871325E+02  0.20413054950E+03  0.90446846644E+02 0.  0.
        -11    1    3    3    0    0 -0.99133741494E+02 -0.63246941720E+02  0.43615731776E+03  0.45173098208E+03  0.00000000000E+00 0.  1.
         11    1    3    3    0    0  0.40316237134E+01 -0.48093814660E+02  0.92224039930E+02  0.10408910865E+03  0.00000000000E+00 0. -1.
        -13    1    4    4    0    0  0.13672728346E+03  0.65100375223E+02  0.41374388722E+02  0.15698486850E+03  0.00000000000E+00 0.  1.
         13    1    4    4    0    0 -0.10554491367E+01  0.45672318827E+02  0.11646482604E+02  0.47145681000E+02  0.00000000000E+00 0. -1.
         -2    1    1    2    0  502 -0.40569716539E+02  0.56806232985E+00  0.12308680018E+02  0.42399624982E+02  0.00000000000E+00 0.  1.
<scales pt_clust_5="13000.00000" pt_clust_6="13000.00000" pt_clust_7="13000.00000" pt_clust_8="13000.00000" pt_clust_9="40.57369"></scales>
<clustering>
<clus scale="   40.574">  2  9  1 -1</clus>
<clus scale="   90.447">  7  8 -1 -1</clus>
<clus scale="   91.148">  5  6 -1 -1</clus>
<clus scale="  175.576">  2  7  1 -1</clus>
<clus scale="   40.574">  2  5  1 -1</clus>
</clustering>
</event>
<event>
 9    1  0.1601012E-005  0.1139398E+03  0.7546771E-02  0.1253708E+00
         21   -1    0    0  501  502  0.00000000000E+00  0.00000000000E+00  0.24637733658E+03  0.24637733658E+03  0.00000000000E+00 0.  1.
          2   -1    0    0  502    0 -0.00000000000E+00 -0.00000000000E+00 -0.46000120693E+03  0.46000120693E+03  0.00000000000E+00 0. -1.
         23    2    1    2    0    0  0.20561878951E+02  0.63737882857E+02 -0.41303999838E+03  0.42843367390E+03  0.92022084797E+02 0.  0.
         23    2    1    2    0    0 -0.60797582888E+02 -0.53070374694E+02  0.66803567331E+02  0.13895278761E+03  0.91281705844E+02 0.  0.
        -11    1    4    4    0    0 -0.63536187112E+02 -0.75811482262E+02  0.55220937253E+02  0.11328539106E+03  0.00000000000E+00 0.  1.
         11    1    4    4    0    0  0.27386042233E+01  0.22741107568E+02  0.11582630078E+02  0.25667396557E+02  0.00000000000E+00 0. -1.
        -13    1    3    3    0    0  0.52917121200E+02  0.28078945369E+02 -0.15986027862E+03  0.17071601440E+03  0.00000000000E+00 0.  1.
         13    1    3    3    0    0 -0.32355242249E+02  0.35658937488E+02 -0.25317971976E+03  0.25771765950E+03  0.00000000000E+00 0. -1.
          2    1    1    2  501    0  0.40235703938E+02 -0.10667508163E+02  0.13261256070E+03  0.13899208200E+03  0.00000000000E+00 0. -1.
<scales pt_clust_5="13000.00000" pt_clust_6="13000.00000" pt_clust_7="13000.00000" pt_clust_8="13000.00000" pt_clust_9="41.62580"></scales>
<clustering>
<clus scale="   41.626">  1  9  2 -1</clus>
<clus scale="   91.282">  5  6 -1 -1</clus>
<clus scale="   92.022">  7  8 -1 -1</clus>
<clus scale="  113.343">  1  5  2 -1</clus>
<clus scale="   41.626">  1  5  2 -1</clus>
</clustering>
</event>
<event>
 9    1  0.1601012E-005  0.2684158E+03  0.7546771E-02  0.1102381E+00
         -4   -1    0    0    0  501 -0.00000000000E+00  0.00000000000E+00  0.92493876116E+03  0.92493876116E+03  0.00000000000E+00 0.  1.
         21   -1    0    0  501  502  0.00000000000E+00 -0.00000000000E+00 -0.16879287926E+03  0.16879287926E+03  0.00000000000E+00 0.  1.
         23    2    1    2    0    0  0.92917832789E+02  0.15366728380E+03  0.15112837467E+03  0.25093646413E+03  0.88780435001E+02 0.  0.
         23    2    1    2    0    0 -0.16952064454E+03 -0.33656739394E+03  0.36458829034E+03  0.53114368922E+03  0.84700280744E+02 0.  0.
        -11    1    4    4    0    0 -0.66031814197E+02 -0.22313672216E+03  0.21888065479E+03  0.31946664662E+03  0.00000000000E+00 0. -1.
         11    1    4    4    0    0 -0.10348883034E+03 -0.11343067178E+03  0.14570763555E+03  0.21167704260E+03  0.00000000000E+00 0.  1.
        -13    1    3    3    0    0  0.13998727715E+02  0.10004263873E+03  0.53034930522E+02  0.11409293491E+03  0.00000000000E+00 0.  1.
         13    1    3    3    0    0  0.78919105074E+02  0.53624645079E+02  0.98093444145E+02  0.13684352922E+03  0.00000000000E+00 0. -1.
         -4    1    1    2    0  502  0.76602811752E+02  0.18290011014E+03  0.24042921689E+03  0.31165148707E+03  0.00000000000E+00 0.  1.
<scales pt_clust_5="13000.00000" pt_clust_6="13000.00000" pt_clust_7="13000.00000" pt_clust_8="13000.00000" pt_clust_9="198.29392"></scales>
<clustering>
<clus scale="   84.700">  5  6 -1 -1</clus>
<clus scale="   88.780">  7  8 -1 -1</clus>
<clus scale="  198.294">  2  9  1 -1</clus>
<clus scale="  267.094">  2  5  1 -1</clus>
<clus scale="  198.294">  2  5  1 -1</clus>
</clustering>
</event>
<event>
 9    1  0.1601012E-005  0.1006090E+03  0.7546771E-02  0.1280248E+00
         -1   -1    0    0    0  501 -0.00000000000E+00  0.00000000000E+00  0.35616505885E+03  0.35616505885E+03  0.00000000000E+00 0.  1.
         21   -1    0    0  501  502  0.00000000000E+00 -0.00000000000E+00 -0.47457615864E+02  0.47457615864E+02  0.00000000000E+00 0. -1.
         23    2    1    2    0    0  0.40108319893E+02  0.93132505149E+01  0.24862087940E+03  0.26902445917E+03  0.94161584533E+02 0.  0.
         23    2    1    2    0    0 -0.18583810196E+02  0.32666592091E+01  0.37076336977E+02  0.10067139466E+03  0.91673583303E+02 0.  0.
        -11    1    3    3    0    0 -0.18973726395E+02 -0.27026608589E+02  0.69628467787E+02  0.77062074924E+02  0.00000000000E+00 0.  1.
         11    1    3    3    0    0  0.59082046287E+02  0.36339859104E+02  0.17899241161E+03  0.19196238425E+03  0.00000000000E+00 0. -1.
        -11    1    4    4    0    0 -0.29263509465E+01 -0.32171221938E+02 -0.15120367268E+02  0.35667584123E+02  0.00000000000E+00 0. -1.
         11    1    4    4    0    0 -0.15657459250E+02  0.35437881147E+02  0.52196704245E+02  0.65003810538E+02  0.00000000000E+00 0.  1.
         -1    1    1    2    0  502 -0.21524509696E+02 -0.12579909724E+02  0.23010226611E+02  0.33926820880E+02  0.00000000000E+00 0.  1.
<scales pt_clust_5="13000.00000" pt_clust_6="13000.00000" pt_clust_7="13000.00000" pt_clust_8="13000.00000" pt_clust_9="24.93108"></scales>
<clustering>
<clus scale="   24.931">  2  9  1 -1</clus>
<clus scale="   91.674">  7  8 -1 -1</clus>
<clus scale="   94.162">  5  6 -1 -1</clus>
<clus scale="   98.284">  2  7  1 -1</clus>
<clus scale="   24.931">  2  5  1 -1</clus>
</clustering>
</event>
<event>
 9    1  0.1601012E-005  0.8904806E+02  0.7546771E-02  0.1305822E+00
         21   -1    0    0  501  502  0.00000000000E+00  0.00000000000E+00  0.89658848892E+02  0.89658848892E+02  0.00000000000E+00 0. -1.
          1   -1    0    0  502    0 -0.00000000000E+00 -0.00000000000E+00 -0.24835149596E+03  0.24835149596E+03  0.00000000000E+00 0. -1.
         23    2    1    2    0    0 -0.90287218176E+01  0.19323302802E+02 -0.11449939212E+03  0.14659999211E+03  0.89031112773E+02 0.  0.
         23    2    1    2    0    0 -0.30498977947E+02  0.50473063118E+02 -0.21905897107E+02  0.10815953855E+03  0.87982382866E+02 0.  0.
        -11    1    4    4    0    0 -0.98307034491E+01 -0.17422065940E+02  0.17851260724E+02  0.26811165982E+02  0.00000000000E+00 0.  1.
         11    1    4    4    0    0 -0.20668274498E+02  0.67895129058E+02 -0.39757157831E+02  0.81348372567E+02  0.00000000000E+00 0. -1.
        -11    1    3    3    0    0 -0.49976904511E+01 -0.23165523241E+02  0.74114791578E+00  0.23710075435E+02  0.00000000000E+00 0.  1.
         11    1    3    3    0    0 -0.40310313665E+01  0.42488826043E+02 -0.11524054003E+03  0.12288991667E+03  0.00000000000E+00 0. -1.
          1    1    1    2  501    0  0.39527699764E+02 -0.69796365920E+02 -0.22287357838E+02  0.83250814192E+02  0.00000000000E+00 0. -1.
<scales pt_clust_5="13000.00000" pt_clust_6="13000.00000" pt_clust_7="13000.00000" pt_clust_8="13000.00000" pt_clust_9="80.21204"></scales>
<clustering>
<clus scale="   80.212">  1  9  2 -1</clus>
<clus scale="   87.982">  5  6 -1 -1</clus>
<clus scale="   88.000">  1  5  2 -1</clus>
<clus scale="   89.031">  7  8 -1 -1</clus>
<clus scale="   80.212">  1  5  2 -1</clus>
</clustering>
</event>
<event>
 9    1  0.1601012E-005  0.1056747E+03  0.7546771E-02  0.1273641E+00
          3   -1    0    0  502    0 -0.00000000000E+00  0.00000000000E+00  0.15696429887E+03  0.15696429887E+03  0.00000000000E+00 0. -1.
         21   -1    0    0  501  502  0.00000000000E+00 -0.00000000000E+00 -0.86005082251E+02  0.86005082251E+02  0.00000000000E+00 0.  1.
         23    2    1    2    0    0  0.37541804650E+01 -0.43671090327E+02  0.47685733047E+02  0.10337479630E+03  0.80567743991E+02 0.  0.
         23    2    1    2    0    0 -0.52631577811E+01  0.66886272777E+02  0.24932009143E+02  0.11627136858E+03  0.91629426257E+02 0.  0.
        -11    1    3    3    0    0  0.27382125023E+02 -0.24460419435E+02 -0.10079098673E+02  0.38074678197E+02  0.00000000000E+00 0.  1.
         11    1    3    3    0    0 -0.23627944558E+02 -0.19210670892E+02  0.57764831721E+02  0.65300118100E+02  0.00000000000E+00 0. -1.
        -13    1    4    4    0    0 -0.18797356610E+02 -0.15735539910E+02  0.21290938422E+02  0.32469245305E+02  0.00000000000E+00 0. -1.
         13    1    4    4    0    0  0.13534198829E+02  0.82621812688E+02  0.36410707210E+01  0.83802123277E+02  0.00000000000E+00 0.  1.
          3    1    1    2  501    0  0.15089773161E+01 -0.23215182450E+02 -0.16585255738E+01  0.23323216241E+02  0.00000000000E+00 0. -1.
<scales pt_clust_5="13000.00000" pt_clust_6="13000.00000" pt_clust_7="13000.00000" pt_clust_8="13000.00000" pt_clust_9="23.26417"></scales>
<clustering>
<clus scale="   23.264">  2  9  1 -1</clus>
<clus scale="   80.568">  5  6 -1 -1</clus>
<clus scale="   91.629">  7  8 -1 -1</clus>
<clus scale="   96.241">  1  5  2 -1</clus>
<clus scale="   23.264">  2  5  1 -1</clus>
</clustering>
</event>
<event>
 9    1  0.1601012E-005  0.1038336E+03  0.7546771E-02  0.1273198E+00
         21   -1    0    0  501  502  0.00000000000E+00  0.00000000000E+00  0.18754087071E+03  0.18754087071E+03  0.00000000000E+00 0. -1.
         -3   -1    0    0    0  501 -0.00000000000E+00 -0.00000000000E+00 -0.24316956159E+03  0.24316956159E+03  0.00000000000E+00 0.  1.
         23    2    1    2    0    0 -0.49968906519E+02 -0.41799215002E+02 -0.12569623487E+03  0.16763478535E+03  0.89765315145E+02 0.  0.
         23    2    1    2    0    0  0.40943946683E+02 -0.17685945847E+02 -0.61139150959E+02  0.11873185228E+03  0.91488018423E+02 0.  0.
        -11    1    3    3    0    0 -0.40437465490E+02  0.18340932297E+02 -0.27927786490E+02  0.52455120541E+02  0.00000000000E+00 0. -1.
         11    1    3    3    0    0 -0.95314410287E+01 -0.60140147298E+02 -0.97768448384E+02  0.11517966481E+03  0.00000000000E+00 0.  1.
        -11    1    4    4    0    0  0.64609530618E+02 -0.12666298816E+02 -0.16369329651E+02  0.67843802412E+02  0.00000000000E+00 0. -1.
         11    1    4    4    0    0 -0.23665583935E+02 -0.50196470311E+01 -0.44769821308E+02  0.50888049867E+02  0.00000000000E+00 0.  1.
         -3    1    1    2    0  502  0.90249598353E+01  0.59485160849E+02  0.13120669495E+03  0.14434379468E+03  0.00000000000E+00 0.  1.
<scales pt_clust_5="13000.00000" pt_clust_6="13000.00000" pt_clust_7="13000.00000" pt_clust_8="13000.00000" pt_clust_9="60.16589"></scales>
<clustering>
<clus scale="   60.166">  1  9  2 -1</clus>
<clus scale="   89.765">  5  6 -1 -1</clus>
<clus scale="   91.488">  7  8 -1 -1</clus>
<clus scale="  102.319">  2  5  1 -1</clus>
<clus scale="   60.166">  1  5  2 -1</clus>
</clustering>
</event>
<event>
 9    1  0.1601012E-005  0.9311971E+02  0.7546771E-02  0.1295862E+00
         21   -1    0    0  501  502  0.00000000000E+00  0.00000000000E+00  0.49495805787E+02  0.49495805787E+02  0.00000000000E+00 0. -1.
         -3   -1    0    0    0  501 -0.00000000000E+00 -0.00000000000E+00 -0.34978315027E+03  0.34978315027E+03  0.00000000000E+00 0.  1.
         23    2    1    2    0    0  0.17429629584E+02  0.31069103226E+02 -0.20991671709E+03  0.23128541252E+03  0.90326257338E+02 0.  0.
         23    2    1    2    0    0  0.11955705480E+02 -0.51592359254E+01 -0.91577375919E+02  0.12879819455E+03  0.89627018981E+02 0.  0.
        -11    1    4    4    0    0 -0.86330036472E+01  0.28633231688E+02 -0.83116644594E+02  0.88333274124E+02  0.00000000000E+00 0.  1.
         11    1    4    4    0    0  0.20588709127E+02 -0.33792467614E+02 -0.84607313254E+01  0.40464920431E+02  0.00000000000E+00 0. -1.
        -11    1    3    3    0    0 -0.25599104213E+02  0.17189208749E+02 -0.16389700605E+03  0.16677233472E+03  0.00000000000E+00 0.  1.
         11    1    3    3    0    0  0.43028733797E+02  0.13879894476E+02 -0.46019711041E+02  0.64513077799E+02  0.00000000000E+00 0. -1.
         -3    1    1    2    0  502 -0.29385335064E+02 -0.25909867300E+02  0.12067485272E+01  0.39195348989E+02  0.00000000000E+00 0.  1.
<scales pt_clust_5="13000.00000" pt_clust_6="13000.00000" pt_clust_7="13000.00000" pt_clust_8="13000.00000" pt_clust_9="39.17677"></scales>
<clustering>
<clus scale="   39.177">  1  9  2 -1</clus>
<clus scale="   89.627">  5  6 -1 -1</clus>
<clus scale="   90.326">  7  8 -1 -1</clus>
<clus scale="   92.442">  1  5  2 -1</clus>
<clus scale="   39.177">  1  5  2 -1</clus>
</clustering>
</event>
<event>
 9    1  0.1601012E-005  0.1493467E+03  0.7546771E-02  0.1201598E+00
         21   -1    0    0  501  502  0.00000000000E+00  0.00000000000E+00  0.55239254281E+02  0.55239254281E+02  0.00000000000E+00 0.  1.
          2   -1    0    0  502    0 -0.00000000000E+00 -0.00000000000E+00 -0.12519589993E+04  0.12519589993E+04  0.00000000000E+00 0. -1.
         23    2    1    2    0    0 -0.90136095346E+02 -0.34646270694E+02 -0.63854820328E+03  0.65241994838E+03  0.92645028887E+02 0.  0.
         23    2    1    2    0    0  0.17581007092E+03 -0.44616213715E+01 -0.51276695441E+03  0.55022672051E+03  0.94288956544E+02 0.  0.
        -11    1    3    3    0    0 -0.49573036416E+02  0.27731386467E+02 -0.34166954212E+03  0.34635905033E+03  0.00000000000E+00 0.  1.
         11    1    3    3    0    0 -0.40563058931E+02 -0.62377657161E+02 -0.29687866116E+03  0.30606089805E+03  0.00000000000E+00 0. -1.
        -13    1    4    4    0    0  0.77241461820E+02  0.24435418776E+02 -0.12400185430E+03  0.14812087288E+03  0.00000000000E+00 0.  1.
         13    1    4    4    0    0  0.98568609100E+02 -0.28897040147E+02 -0.38876510011E+03  0.40210584762E+03  0.00000000000E+00 0. -1.
          2    1    1    2  501    0 -0.85673975573E+02  0.39107892065E+02 -0.45404587347E+02  0.10455158471E+03  0.00000000000E+00 0. -1.
<scales pt_clust_5="13000.00000" pt_clust_6="13000.00000" pt_clust_7="13000.00000" pt_clust_8="13000.00000" pt_clust_9="94.17780"></scales>
<clustering>
<clus scale="   92.645">  5  6 -1 -1</clus>
<clus scale="   94.178">  1  9  2 -1</clus>
<clus scale="   94.289">  7  8 -1 -1</clus>
<clus scale="  148.314">  2  5  1 -1</clus>
<clus scale="   94.178">  1  5  2 -1</clus>
</clustering>
</event>
<event>
 9    1  0.1601012E-005  0.9981221E+02  0.7546771E-02  0.1281452E+00
         21   -1    0    0  501  502  0.00000000000E+00  0.00000000000E+00  0.23343737927E+03  0.23343737927E+03  0.00000000000E+00 0.  1.
         -1   -1    0    0    0  501 -0.00000000000E+00 -0.00000000000E+00 -0.32628044899E+03  0.32628044899E+03  0.00000000000E+00 0.  1.
         23    2    1    2    0    0 -0.32617145000E+02  0.24474913075E+02 -0.25704384923E+03  0.27557109728E+03  0.90581398250E+02 0.  0.
         23    2    1    2    0    0  0.48678321709E+02  0.35173041827E+02  0.13661649560E+01  0.10998889561E+03  0.92135600474E+02 0.  0.
        -11    1    3    3    0    0 -0.11596610154E+02 -0.31502455495E+02 -0.51240629545E+02  0.61257556150E+02  0.00000000000E+00 0. -1.
         11    1    3    3    0    0 -0.21020534846E+02  0.55977368570E+02 -0.20580321969E+03  0.21431354113E+03  0.00000000000E+00 0.  1.
        -11    1    4    4    0    0 -0.10044296737E+02 -0.24171766366E+02 -0.32350852757E+01  0.26374759959E+02  0.00000000000E+00 0. -1.
         11    1    4    4    0    0  0.58722618447E+02  0.59344808193E+02  0.46012502317E+01  0.83614135649E+02  0.00000000000E+00 0.  1.
         -1    1    1    2    0  502 -0.16061176709E+02 -0.59647954902E+02  0.16283461456E+03  0.17415783537E+03  0.00000000000E+00 0.  1.
<scales pt_clust_5="13000.00000" pt_clust_6="13000.00000" pt_clust_7="13000.00000" pt_clust_8="13000.00000" pt_clust_9="61.77249"></scales>
<clustering>
<clus scale="   61.772">  1  9  2 -1</clus>
<clus scale="   90.581">  5  6 -1 -1</clus>
<clus scale="   92.136">  7  8 -1 -1</clus>
<clus scale="   98.379">  2  5  1 -1</clus>
<clus scale="   61.772">  1  5  2 -1</clus>
</clustering>
</event>
<event>
 9    1  0.1601012E-005  0.2124191E+03  0.7546771E-02  0.1140928E+00
         21   -1    0    0  501  502  0.00000000000E+00  0.00000000000E+00  0.13180264960E+03  0.13180264960E+03  0.00000000000E+00 0. -1.
          2   -1    0    0  502    0 -0.00000000000E+00 -0.00000000000E+00 -0.43981857171E+03  0.43981857171E+03  0.00000000000E+00 0. -1.
         23    2    1    2    0    0  0.10399101976E+03  0.16184952717E+03 -0.19880419199E+03  0.28680587681E+03  0.75664407631E+02 0.  0.
         23    2    1    2    0    0 -0.12588501227E+03 -0.14473190724E+03 -0.13082898461E+03  0.24960646051E+03  0.91612229684E+02 0.  0.
        -11    1    3    3    0    0  0.55860552740E+02  0.10665291065E+03 -0.71743980016E+02  0.14015150150E+03  0.00000000000E+00 0. -1.
         11    1    3    3    0    0  0.48130467019E+02  0.55196616514E+02 -0.12706021198E+03  0.14665437531E+03  0.00000000000E+00 0.  1.
        -13    1    4    4    0    0 -0.62351906885E+01 -0.66751011282E+02 -0.23824486673E+02  0.71149007550E+02  0.00000000000E+00 0.  1.
         13    1    4    4    0    0 -0.11964982158E+03 -0.77980895956E+02 -0.10700449794E+03  0.17845745296E+03  0.00000000000E+00 0. -1.
          2    1    1    2  501    0  0.21893992509E+02 -0.17117619927E+02  0.21617254492E+02  0.35208883989E+02  0.00000000000E+00 0. -1.
<scales pt_clust_5="13000.00000" pt_clust_6="13000.00000" pt_clust_7="13000.00000" pt_clust_8="13000.00000" pt_clust_9="27.79136"></scales>
<clustering>
<clus scale="   27.791">  1  9  2 -1</clus>
<clus scale="   75.664">  5  6 -1 -1</clus>
<clus scale="   91.612">  7  8 -1 -1</clus>
<clus scale="  206.044">  2  5  1 -1</clus>
<clus scale="   27.791">  1  5  2 -1</clus>
</clustering>
</event>
<event>
 9    1  0.1601012E-005  0.1227469E+03  0.7546771E-02  0.1239359E+00
         -1   -1    0    0    0  501 -0.00000000000E+00  0.00000000000E+00  0.24009712849E+03  0.24009712849E+03  0.00000000000E+00 0.  1.
         21   -1    0    0  501  502  0.00000000000E+00 -0.00000000000E+00 -0.26025599126E+03  0.26025599126E+03  0.00000000000E+00 0.  1.
         23    2    1    2    0    0  0.40721054470E+01  0.58241701891E+02  0.96519111142E+02  0.14573905281E+03  0.92278138347E+02 0.  0.
         23    2    1    2    0    0  0.29026258656E+02 -0.15520478663E+03  0.21115644104E+02  0.18290377991E+03  0.89871423696E+02 0.  0.
        -11    1    4    4    0    0 -0.15528438273E+01 -0.65326717714E+02 -0.33442962067E+02  0.73405879077E+02  0.00000000000E+00 0. -1.
         11    1    4    4    0    0  0.30579102483E+02 -0.89878068911E+02  0.54558606171E+02  0.10949790083E+03  0.00000000000E+00 0.  1.
        -13    1    3    3    0    0 -0.40046014114E+01  0.76807051161E+02  0.98974295606E+02  0.12534460950E+03  0.00000000000E+00 0.  1.
         13    1    3    3    0    0  0.80767068584E+01 -0.18565349269E+02 -0.24551844637E+01  0.20394443310E+02  0.00000000000E+00 0. -1.
         -1    1    1    2    0  502 -0.33098364103E+02  0.96963084734E+02 -0.13779361801E+03  0.17171028703E+03  0.00000000000E+00 0.  1.
<scales pt_clust_5="13000.00000" pt_clust_6="13000.00000" pt_clust_7="13000.00000" pt_clust_8="13000.00000" pt_clust_9="102.45653"></scales>
<clustering>
<clus scale="   89.871">  5  6 -1 -1</clus>
<clus scale="   92.278">  7  8 -1 -1</clus>
<clus scale="  102.457">  2  9  1 -1</clus>
<clus scale="  120.948">  2  5  1 -1</clus>
<clus scale="  102.457">  2  5  1 -1</clus>
</clustering>
</event>
<event>
 9    1  0.1601012E-005  0.9538927E+02  0.7546771E-02  0.1291888E+00
         -3   -1    0    0    0  501 -0.00000000000E+00  0.00000000000E+00  0.25041731346E+03  0.25041731346E+03  0.00000000000E+00 0.  1.
         21   -1    0    0  501  502  0.00000000000E+00 -0.00000000000E+00 -0.13235893964E+03  0.13235893964E+03  0.00000000000E+00 0.  1.
         23    2    1    2    0    0  0.22813863774E+02 -0.14113578563E+02  0.16263034690E+03  0.18688392306E+03  0.88075566907E+02 0.  0.
         23    2    1    2    0    0 -0.13479746326E+02  0.57398139851E+02 -0.83560788413E+02  0.13689396806E+03  0.91001665427E+02 0.  0.
        -11    1    4    4    0    0 -0.38322918547E+02  0.97923669507E+01 -0.71722472232E+02  0.81906346272E+02  0.00000000000E+00 0.  1.
         11    1    4    4    0    0  0.24843172221E+02  0.47605772900E+02 -0.11838316180E+02  0.54987621784E+02  0.00000000000E+00 0. -1.
        -11    1    3    3    0    0 -0.21260758477E+02 -0.88168993407E+01  0.55840587868E+01  0.23684156678E+02  0.00000000000E+00 0. -1.
         11    1    3    3    0    0  0.44074622251E+02 -0.52966792222E+01  0.15704628812E+03  0.16319976639E+03  0.00000000000E+00 0.  1.
         -3    1    1    2    0  502 -0.93341174478E+01 -0.43284561288E+02  0.38988815330E+02  0.58998361971E+02  0.00000000000E+00 0.  1.
<scales pt_clust_5="13000.00000" pt_clust_6="13000.00000" pt_clust_7="13000.00000" pt_clust_8="13000.00000" pt_clust_9="44.27958"></scales>
<clustering>
<clus scale="   44.280">  2  9  1 -1</clus>
<clus scale="   88.076">  7  8 -1 -1</clus>
<clus scale="   91.002">  5  6 -1 -1</clus>
<clus scale="   92.602">  1  7  2 -1</clus>
<clus scale="   44.280">  2  5  1 -1</clus>
</clustering>
</event>
<event>
 9    1  0.1601012E-005  0.1138218E+03  0.7546771E-02  0.1254725E+00
         -1   -1    0    0    0  501 -0.00000000000E+00  0.00000000000E+00  0.59495410251E+02  0.59495410251E+02  0.00000000000E+00 0.  1.
         21   -1    0    0  501  502  0.00000000000E+00 -0.00000000000E+00 -0.34715322202E+03  0.34715322202E+03  0.00000000000E+00 0. -1.
         23    2    1    2    0    0 -0.64687429054E+02 -0.14257672452E+02 -0.38718957989E+02  0.11850321800E+03  0.90311185721E+02 0.  0.
         23    2    1    2    0    0  0.65386973159E+02 -0.10318976482E+02 -0.16556150025E+03  0.20121852478E+03  0.93254205357E+02 0.  0.
        -13    1    4    4    0    0  0.60906721451E+02 -0.38111587364E+02 -0.15554713752E+03  0.17133894420E+03  0.00000000000E+00 0. -1.
         13    1    4    4    0    0  0.44802517086E+01  0.27792610881E+02 -0.10014362730E+02  0.29879580584E+02  0.00000000000E+00 0.  1.
        -13    1    3    3    0    0 -0.38318420190E+02  0.25476855342E+02  0.13334215671E+02  0.47907961672E+02  0.00000000000E+00 0.  1.
         13    1    3    3    0    0 -0.26369008864E+02 -0.39734527794E+02 -0.52053173660E+02  0.70595256325E+02  0.00000000000E+00 0. -1.
         -1    1    1    2    0  502 -0.69954410491E+00  0.24576648935E+02 -0.83377353529E+02  0.86926889489E+02  0.00000000000E+00 0.  1.
<scales pt_clust_5="13000.00000" pt_clust_6="13000.00000" pt_clust_7="13000.00000" pt_clust_8="13000.00000" pt_clust_9="24.58660"></scales>
<clustering>
<clus scale="   24.587">  2  9  1 -1</clus>
<clus scale="   90.311">  7  8 -1 -1</clus>
<clus scale="   93.254">  5  6 -1 -1</clus>
<clus scale="  111.423">  1  7  2 -1</clus>
<clus scale="   24.587">  2  5  1 -1</clus>
</clustering>
</event>
<event>
 9    1  0.1601012E-005  0.1137932E+03  0.7546771E-02  0.1256484E+00
         21   -1    0    0  501  502  0.00000000000E+00  0.00000000000E+00  0.26468915143E+03  0.26468915143E+03  0.00000000000E+00 0.  1.
          2   -1    0    0  502    0 -0.00000000000E+00 -0.00000000000E+00 -0.10853681414E+03  0.10853681414E+03  0.00000000000E+00 0. -1.
         23    2    1    2    0    0  0.33859017686E+02  0.32143061016E+01  0.11365231734E+01  0.98253765485E+02  0.92172370614E+02 0.  0.
         23    2    1    2    0    0 -0.96631827757E+02  0.79903343240E+01  0.41568808335E+02  0.14483307156E+03  0.99232541098E+02 0.  0.
        -11    1    4    4    0    0 -0.28645368120E+02  0.42770882752E+02 -0.10325886773E+02  0.52502661492E+02  0.00000000000E+00 0. -1.
         11    1    4    4    0    0 -0.67986459637E+02 -0.34780548428E+02  0.51894695108E+02  0.92330410067E+02  0.00000000000E+00 0.  1.
        -13    1    3    3    0    0  0.16672739163E+02  0.23317715132E+02  0.41234154396E+02  0.50219035822E+02  0.00000000000E+00 0.  1.
         13    1    3    3    0    0  0.17186278523E+02 -0.20103409030E+02 -0.40097631222E+02  0.48034729663E+02  0.00000000000E+00 0. -1.
          2    1    1    2  501    0  0.62772810071E+02 -0.11204640426E+02  0.11344700579E+03  0.13013912853E+03  0.00000000000E+00 0. -1.
<scales pt_clust_5="13000.00000" pt_clust_6="13000.00000" pt_clust_7="13000.00000" pt_clust_8="13000.00000" pt_clust_9="63.76496"></scales>
<clustering>
<clus scale="   63.765">  1  9  2 -1</clus>
<clus scale="   92.172">  7  8 -1 -1</clus>
<clus scale="   99.233">  5  6 -1 -1</clus>
<clus scale="  107.692">  2  7  1 -1</clus>
<clus scale="   63.765">  1  5  2 -1</clus>
</clustering>
</event>
<event>
 9    1  0.1601012E-005  0.1842925E+03  0.7546771E-02  0.1164571E+00
         21   -1    0    0  501  502  0.00000000000E+00  0.00000000000E+00  0.44029383598E+03  0.44029383598E+03  0.00000000000E+00 0.  1.
          4   -1    0    0  502    0 -0.00000000000E+00 -0.00000000000E+00 -0.13772294384E+03  0.13772294384E+03  0.00000000000E+00 0. -1.
         23    2    1    2    0    0 -0.63341315379E+02  0.10553642147E+03  0.67326465857E+02  0.17039054452E+03  0.96695533344E+02 0.  0.
         23    2    1    2    0    0  0.91888884975E+02 -0.18162552661E+03  0.87469729836E+02  0.23897903976E+03  0.89602615527E+02 0.  0.
        -13    1    4    4    0    0  0.10060154002E+03 -0.11295881265E+03  0.45182195083E+02  0.15786638009E+03  0.00000000000E+00 0.  1.
         13    1    4    4    0    0 -0.87126550424E+01 -0.68666713962E+02  0.42287534753E+02  0.81112659676E+02  0.00000000000E+00 0. -1.
        -13    1    3    3    0    0 -0.76575032741E+02  0.43742775208E+02  0.17482351905E+02  0.89904386157E+02  0.00000000000E+00 0. -1.
         13    1    3    3    0    0  0.13233717362E+02  0.61793646259E+02  0.49844113952E+02  0.80486158368E+02  0.00000000000E+00 0.  1.
          4    1    1    2  501    0 -0.28547569596E+02  0.76089105147E+02  0.14777469645E+03  0.16864719554E+03  0.00000000000E+00 0. -1.
<scales pt_clust_5="13000.00000" pt_clust_6="13000.00000" pt_clust_7="13000.00000" pt_clust_8="13000.00000" pt_clust_9="81.26817"></scales>
<clustering>
<clus scale="   81.268">  1  9  2 -1</clus>
<clus scale="   89.603">  5  6 -1 -1</clus>
<clus scale="   96.696">  7  8 -1 -1</clus>
<clus scale="  180.672">  1  5  2 -1</clus>
<clus scale="   81.268">  1  5  2 -1</clus>
</clustering>
</event>
<event>
 9    1  0.1601012E-005  0.2038429E+03  0.7546771E-02  0.1148653E+00
         21   -1    0    0  501  502  0.00000000000E+00  0.00000000000E+00  0.19066972130E+03  0.19066972130E+03  0.00000000000E+00 0. -1.
          2   -1    0    0  502    0 -0.00000000000E+00 -0.00000000000E+00 -0.90104805293E+03  0.90104805293E+03  0.00000000000E+00 0. -1.
         23    2    1    2    0    0 -0.16429725413E+03  0.52395980143E+02 -0.73406626871E+03  0.75912111435E+03  0.87593680946E+02 0.  0.
         23    2    1    2    0    0  0.15782936022E+03 -0.81507468855E+02 -0.81494362773E+02  0.22326858193E+03  0.10795348112E+03 0.  0.
        -11    1    3    3    0    0 -0.52077197342E+01  0.32705210979E+02 -0.12580147162E+03  0.13008751451E+03  0.00000000000E+00 0.  1.
         11    1    3    3    0    0 -0.15908953440E+03  0.19690769163E+02 -0.60826479708E+03  0.62903359983E+03  0.00000000000E+00 0. -1.
        -11    1    4    4    0    0  0.12246127889E+03 -0.32089244244E+02 -0.65270985853E+01  0.12676390432E+03  0.00000000000E+00 0.  1.
         11    1    4    4    0    0  0.35368081337E+02 -0.49418224611E+02 -0.74967264187E+02  0.96504677611E+02  0.00000000000E+00 0. -1.
          2    1    1    2  501    0  0.64678939056E+01  0.29111488712E+02  0.10518229985E+03  0.10932807795E+03  0.00000000000E+00 0. -1.
<scales pt_clust_5="13000.00000" pt_clust_6="13000.00000" pt_clust_7="13000.00000" pt_clust_8="13000.00000" pt_clust_9="29.82134"></scales>
<clustering>
<clus scale="   29.821">  1  9  2 -1</clus>
<clus scale="   87.594">  5  6 -1 -1</clus>
<clus scale="  107.953">  7  8 -1 -1</clus>
<clus scale="  193.831">  2  5  1 -1</clus>
<clus scale="   29.821">  1  5  2 -1</clus>
</clustering>
</event>
<event>
 9    1  0.1601012E-005  0.1363221E+03  0.7546771E-02  0.1218613E+00
         -2   -1    0    0    0  501 -0.00000000000E+00  0.00000000000E+00  0.85963940033E+02  0.85963940033E+02  0.00000000000E+00 0.  1.
         21   -1    0    0  501  502  0.00000000000E+00 -0.00000000000E+00 -0.36786745570E+03  0.36786745570E+03  0.00000000000E+00 0.  1.
         23    2    1    2    0    0 -0.25097512625E+02  0.74473755594E+02 -0.84263271468E+02  0.14717043243E+03  0.91556604623E+02 0.  0.
         23    2    1    2    0    0  0.69085332998E+02 -0.10616673436E+03 -0.75471054313E+02  0.17300212820E+03  0.90496948032E+02 0.  0.
        -13    1    3    3    0    0 -0.41758759649E+02  0.16447846776E+01 -0.49458455900E+02  0.64750584430E+02  0.00000000000E+00 0. -1.
         13    1    3    3    0    0  0.16661247024E+02  0.72828970916E+02 -0.34804815569E+02  0.82419847997E+02  0.00000000000E+00 0.  1.
        -13    1    4    4    0    0  0.46472009121E+02 -0.12028575555E+03 -0.64366558930E+02  0.14412274119E+03  0.00000000000E+00 0.  1.
         13    1    4    4    0    0  0.22613323876E+02  0.14119021194E+02 -0.11104495383E+02  0.28879387007E+02  0.00000000000E+00 0. -1.
         -2    1    1    2    0  502 -0.43987820373E+02  0.31692978764E+02 -0.12216918988E+03  0.13365883510E+03  0.00000000000E+00 0.  1.
<scales pt_clust_5="13000.00000" pt_clust_6="13000.00000" pt_clust_7="13000.00000" pt_clust_8="13000.00000" pt_clust_9="54.21599"></scales>
<clustering>
<clus scale="   54.216">  2  9  1 -1</clus>
<clus scale="   90.497">  7  8 -1 -1</clus>
<clus scale="   91.557">  5  6 -1 -1</clus>
<clus scale="  135.613">  2  7  1 -1</clus>
<clus scale="   54.216">  2  5  1 -1</clus>
</clustering>
</event>
<event>
 9    1  0.1601012E-005  0.1045112E+03  0.7546771E-02  0.1271731E+00
          3   -1    0    0  502    0 -0.00000000000E+00  0.00000000000E+00  0.53894141841E+02  0.53894141841E+02  0.00000000000E+00 0. -1.
         21   -1    0    0  501  502  0.00000000000E+00 -0.00000000000E+00 -0.53049219493E+03  0.53049219493E+03  0.00000000000E+00 0. -1.
         23    2    1    2    0    0  0.37596733928E+02 -0.13679999424E+02 -0.78828751851E+02  0.12702723911E+03  0.91221108139E+02 0.  0.
         23    2    1    2    0    0 -0.67122003206E+02 -0.55216559151E+02 -0.13424192136E+03  0.18337888442E+03  0.89736782200E+02 0.  0.
        -11    1    3    3    0    0 -0.20621045686E+02  0.21405457119E+02 -0.36010230882E+02  0.46692160454E+02  0.00000000000E+00 0.  1.
         11    1    3    3    0    0  0.58217779614E+02 -0.35085456543E+02 -0.42818520968E+02  0.80335078651E+02  0.00000000000E+00 0. -1.
        -13    1    4    4    0    0 -0.12661013145E+01 -0.46217558084E+02 -0.18278263872E+02  0.49716804181E+02  0.00000000000E+00 0.  1.
         13    1    4    4    0    0 -0.65855901891E+02 -0.89990010671E+01 -0.11596365749E+03  0.13366208024E+03  0.00000000000E+00 0. -1.
          3    1    1    2  501    0  0.29525269278E+02  0.68896558575E+02 -0.26352737987E+03  0.27398021325E+03  0.00000000000E+00 0. -1.
<scales pt_clust_5="13000.00000" pt_clust_6="13000.00000" pt_clust_7="13000.00000" pt_clust_8="13000.00000" pt_clust_9="74.95650"></scales>
<clustering>
<clus scale="   74.957">  2  9  1 -1</clus>
<clus scale="   89.737">  7  8 -1 -1</clus>
<clus scale="   91.221">  5  6 -1 -1</clus>
<clus scale="  103.218">  2  7  1 -1</clus>
<clus scale="   74.957">  2  5  1 -1</clus>
</clustering>
</event>
<event>
 9    1  0.1601012E-005  0.1294159E+03  0.7546771E-02  0.1231124E+00
         -3   -1    0    0    0  501 -0.00000000000E+00  0.00000000000E+00  0.46171328279E+03  0.46171328279E+03  0.00000000000E+00 0.  1.
         21   -1    0    0  501  502  0.00000000000E+00 -0.00000000000E+00 -0.42088967794E+02  0.42088967794E+02  0.00000000000E+00 0. -1.
         23    2    1    2    0    0 -0.79661461906E+02  0.48526571591E+02  0.22623174237E+03  0.26466436700E+03  0.10082484436E+03 0.  0.
         23    2    1    2    0    0  0.63665643207E+02 -0.28251992930E+02  0.15769145414E+03  0.19507548899E+03  0.91303682668E+02 0.  0.
        -11    1    4    4    0    0  0.20456486839E+02  0.18645664942E+02  0.31046798557E+01  0.27852606914E+02  0.00000000000E+00 0. -1.
         11    1    4    4    0    0  0.43209156368E+02 -0.46897657873E+02  0.15458677428E+03  0.16722288208E+03  0.00000000000E+00 0.  1.
        -13    1    3    3    0    0 -0.17354311232E+02 -0.24429317803E+02  0.10970098534E+03  0.11372013837E+03  0.00000000000E+00 0.  1.
         13    1    3    3    0    0 -0.62307150674E+02  0.72955889394E+02  0.11653075703E+03  0.15094422863E+03  0.00000000000E+00 0. -1.
         -3    1    1    2    0  502  0.15995818699E+02 -0.20274578661E+02  0.35701118491E+02  0.44062394592E+02  0.00000000000E+00 0.  1.
<scales pt_clust_5="13000.00000" pt_clust_6="13000.00000" pt_clust_7="13000.00000" pt_clust_8="13000.00000" pt_clust_9="25.82489"></scales>
<clustering>
<clus scale="   25.825">  2  9  1 -1</clus>
<clus scale="   91.304">  5  6 -1 -1</clus>
<clus scale="  100.825">  7  8 -1 -1</clus>
<clus scale="  122.144">  2  5  1 -1</clus>
<clus scale="   25.825">  2  5  1 -1</clus>
</clustering>
</event>
<event>
 9    1  0.1601012E-005  0.9704904E+02  0.7546771E-02  0.1300316E+00
         21   -1    0    0  501  502  0.00000000000E+00  0.00000000000E+00  0.17113042912E+03  0.17113042912E+03  0.00000000000E+00 0.  1.
          2   -1    0    0  502    0 -0.00000000000E+00 -0.00000000000E+00 -0.10917029714E+03  0.10917029714E+03  0.00000000000E+00 0. -1.
         23    2    1    2    0    0  0.20904289823E+02 -0.52272910395E+01 -0.61101778033E+02  0.11409401400E+03  0.93913273012E+02 0.  0.
         23    2    1    2    0    0 -0.36747434086E+02 -0.16146071150E+02  0.73076763881E+02  0.10958215341E+03  0.71112343524E+02 0.  0.
        -11    1    4    4    0    0  0.13555972094E+02 -0.26753575062E+02  0.31171824564E+02  0.43257378615E+02  0.00000000000E+00 0. -1.
         11    1    4    4    0    0 -0.50303406180E+02  0.10607503912E+02  0.41904939317E+02  0.66324774796E+02  0.00000000000E+00 0.  1.
        -13    1    3    3    0    0  0.23752237854E+02  0.32218489330E+02 -0.65002313639E+02  0.76338068067E+02  0.00000000000E+00 0. -1.
         13    1    3    3    0    0 -0.28479480308E+01 -0.37445780370E+02  0.39005356062E+01  0.37755945936E+02  0.00000000000E+00 0.  1.
          2    1    1    2  501    0  0.15843144264E+02  0.21373362190E+02  0.49985146126E+02  0.56624558847E+02  0.00000000000E+00 0. -1.
<scales pt_clust_5="13000.00000" pt_clust_6="13000.00000" pt_clust_7="13000.00000" pt_clust_8="13000.00000" pt_clust_9="26.60500"></scales>
<clustering>
<clus scale="   26.605">  1  9  2 -1</clus>
<clus scale="   71.112">  5  6 -1 -1</clus>
<clus scale="   75.205">  1  5  2 -1</clus>
<clus scale="   93.913">  7  8 -1 -1</clus>
<clus scale="   26.605">  1  5  2 -1</clus>
</clustering>
</event>
<event>
 9    1  0.1601012E-005  0.1440829E+03  0.7546771E-02  0.1208052E+00
         21   -1    0    0  501  502  0.00000000000E+00  0.00000000000E+00  0.65312945915E+02  0.65312945915E+02  0.00000000000E+00 0. -1.
          2   -1    0    0  502    0 -0.00000000000E+00 -0.00000000000E+00 -0.69233212497E+03  0.69233212497E+03  0.00000000000E+00 0. -1.
         23    2    1    2    0    0  0.76180650964E+02 -0.10644409911E+03 -0.49238506344E+03  0.51760513420E+03  0.91313670568E+02 0.  0.
         23    2    1    2    0    0 -0.70122158533E+02  0.36005960282E+02 -0.11570914396E+03  0.16685256561E+03  0.90761370425E+02 0.  0.
        -11    1    4    4    0    0  0.15723632719E+02  0.29625670000E+02 -0.40121390807E+02  0.52293775434E+02  0.00000000000E+00 0.  1.
         11    1    4    4    0    0 -0.85845791253E+02  0.63802902818E+01 -0.75587753155E+02  0.11455879018E+03  0.00000000000E+00 0. -1.
        -13    1    3    3    0    0 -0.47750990382E+01 -0.67652484296E+02 -0.17221616482E+03  0.18508935038E+03  0.00000000000E+00 0.  1.
         13    1    3    3    0    0  0.80955750002E+02 -0.38791614816E+02 -0.32016889863E+03  0.33251578382E+03  0.00000000000E+00 0. -1.
          2    1    1    2  501    0 -0.60584924303E+01  0.70438138829E+02 -0.18924971648E+02  0.73187371070E+02  0.00000000000E+00 0. -1.
<scales pt_clust_5="13000.00000" pt_clust_6="13000.00000" pt_clust_7="13000.00000" pt_clust_8="13000.00000" pt_clust_9="70.69821"></scales>
<clustering>
<clus scale="   70.698">  1  9  2 -1</clus>
<clus scale="   90.761">  5  6 -1 -1</clus>
<clus scale="   91.314">  7  8 -1 -1</clus>
<clus scale="  143.734">  1  5  2 -1</clus>
<clus scale="   70.698">  1  5  2 -1</clus>
</clustering>
</event>
<event>
 9    1  0.1601012E-005  0.9617952E+02  0.7546771E-02  0.1290143E+00
          1   -1    0    0  502    0 -0.00000000000E+00  0.00000000000E+00  0.80430669286E+02  0.80430669286E+02  0.00000000000E+00 0. -1.
         21   -1    0    0  501  502  0.00000000000E+00 -0.00000000000E+00 -0.26415762974E+03  0.26415762974E+03  0.00000000000E+00 0. -1.
         23    2    1    2    0    0 -0.23248349805E+02  0.12180410857E+02 -0.15246812566E+02  0.95897710902E+02  0.90967342962E+02 0.  0.
         23    2    1    2    0    0 -0.84926807301E+01 -0.27025788067E+02 -0.25287381149E+02  0.10127265607E+03  0.93883866430E+02 0.  0.
        -11    1    4    4    0    0 -0.39016013395E+02 -0.21386598052E+00 -0.42014565448E+02  0.57336888211E+02  0.00000000000E+00 0.  1.
         11    1    4    4    0    0  0.30523332665E+02 -0.26811922086E+02  0.16727184299E+02  0.43935767861E+02  0.00000000000E+00 0. -1.
        -13    1    3    3    0    0 -0.91259179801E+00  0.49702935338E+02 -0.20290335070E+00  0.49711726733E+02  0.00000000000E+00 0.  1.
         13    1    3    3    0    0 -0.22335758007E+02 -0.37522524481E+02 -0.15043909216E+02  0.46185984169E+02  0.00000000000E+00 0. -1.
          1    1    1    2  501    0  0.31741030535E+02  0.14845377210E+02 -0.14319276674E+03  0.14741793205E+03  0.00000000000E+00 0. -1.
<scales pt_clust_5="13000.00000" pt_clust_6="13000.00000" pt_clust_7="13000.00000" pt_clust_8="13000.00000" pt_clust_9="35.04109"></scales>
<clustering>
<clus scale="   35.041">  2  9  1 -1</clus>
<clus scale="   90.967">  7  8 -1 -1</clus>
<clus scale="   93.335">  1  7  2 -1</clus>
<clus scale="   93.884">  5  6 -1 -1</clus>
<clus scale="   35.041">  2  5  1 -1</clus>
</clustering>
</event>
<event>
 9    1  0.1601012E-005  0.9321959E+02  0.7546771E-02  0.1299846E+00
         21   -1    0    0  501  502  0.00000000000E+00  0.00000000000E+00  0.15690173842E+03  0.15690173842E+03  0.00000000000E+00 0. -1.
          3   -1    0    0  502    0 -0.00000000000E+00 -0.00000000000E+00 -0.20001591295E+03  0.20001591295E+03  0.00000000000E+00 0. -1.
         23    2    1    2    0    0 -0.18239604695E+02  0.33206867825E+01 -0.95338254008E+02  0.12902462910E+03  0.84936812376E+02 0.  0.
         23    2    1    2    0    0 -0.92407446604E+01 -0.14245928275E+02 -0.60125909451E+02  0.11171621514E+03  0.92612363668E+02 0.  0.
        -13    1    3    3    0    0  0.32678205082E+02 -0.79467335979E+01 -0.27403098340E+02  0.43381395332E+02  0.00000000000E+00 0. -1.
         13    1    3    3    0    0 -0.50917809777E+02  0.11267420380E+02 -0.67935155668E+02  0.85643233767E+02  0.00000000000E+00 0.  1.
        -13    1    4    4    0    0 -0.26876713520E+01 -0.52466331020E+02 -0.47799132879E+02  0.71026027426E+02  0.00000000000E+00 0. -1.
         13    1    4    4    0    0 -0.65530733084E+01  0.38220402745E+02 -0.12326776572E+02  0.40690187716E+02  0.00000000000E+00 0.  1.
          3    1    1    2  501    0  0.27480349355E+02  0.10925241492E+02  0.11234998893E+03  0.11617680713E+03  0.00000000000E+00 0. -1.
<scales pt_clust_5="13000.00000" pt_clust_6="13000.00000" pt_clust_7="13000.00000" pt_clust_8="13000.00000" pt_clust_9="29.57246"></scales>
<clustering>
<clus scale="   29.572">  1  9  2 -1</clus>
<clus scale="   84.937">  5  6 -1 -1</clus>
<clus scale="   85.599">  2  5  1 -1</clus>
<clus scale="   92.612">  7  8 -1 -1</clus>
<clus scale="   29.572">  1  5  2 -1</clus>
</clustering>
</event>
<event>
 9    1  0.1601012E-005  0.1691775E+03  0.7546771E-02  0.1180652E+00
          2   -1    0    0  502    0 -0.00000000000E+00  0.00000000000E+00  0.87930851692E+03  0.87930851692E+03  0.00000000000E+00 0. -1.
         21   -1    0    0  501  502  0.00000000000E+00 -0.00000000000E+00 -0.66779962028E+02  0.66779962028E+02  0.00000000000E+00 0.  1.
         23    2    1    2    0    0 -0.14161923671E+03 -0.43658544547E+02  0.46446415657E+03  0.49836672243E+03  0.10334582998E+03 0.  0.
         23    2    1    2    0    0  0.12546963676E+03 -0.23069062589E+02  0.34508663813E+03  0.37900312594E+03  0.91015219906E+02 0.  0.
        -11    1    3    3    0    0 -0.24447169035E+02 -0.56214692488E+02  0.19089089602E+03  0.20049211932E+03  0.00000000000E+00 0. -1.
         11    1    3    3    0    0 -0.11717206767E+03  0.12556147941E+02  0.27357326055E+03  0.29787460311E+03  0.00000000000E+00 0.  1.
        -13    1    4    4    0    0  0.20080304132E+02  0.28849241214E+02  0.12079678715E+03  0.12580684050E+03  0.00000000000E+00 0.  1.
         13    1    4    4    0    0  0.10538933263E+03 -0.51918303803E+02  0.22428985099E+03  0.25319628543E+03  0.00000000000E+00 0. -1.
          2    1    1    2  501    0  0.16149599948E+02  0.66727607136E+02  0.29777601900E+01  0.68718630577E+02  0.00000000000E+00 0. -1.
<scales pt_clust_5="13000.00000" pt_clust_6="13000.00000" pt_clust_7="13000.00000" pt_clust_8="13000.00000" pt_clust_9="68.65408"></scales>
<clustering>
<clus scale="   68.654">  2  9  1 -1</clus>
<clus scale="   91.015">  7  8 -1 -1</clus>
<clus scale="  103.346">  5  6 -1 -1</clus>
<clus scale="  161.940">  2  7  1 -1</clus>
<clus scale="   68.654">  2  5  1 -1</clus>
</clustering>
</event>
<event>
 9    1  0.1601012E-005  0.1253433E+03  0.7546771E-02  0.1236309E+00
         -1   -1    0    0    0  501 -0.00000000000E+00  0.00000000000E+00  0.18291033549E+03  0.18291033549E+03  0.00000000000E+00 0.  1.
         21   -1    0    0  501  502  0.00000000000E+00 -0.00000000000E+00 -0.13339460849E+03  0.13339460849E+03  0.00000000000E+00 0. -1.
         23    2    1    2    0    0 -0.97114085943E+02 -0.11104945875E+02  0.53765332130E+02  0.14464674993E+03  0.92073371911E+02 0.  0.
         23    2    1    2    0    0  0.66689661397E+02  0.36195599643E+02  0.31045042205E+02  0.11873467711E+03  0.85886532887E+02 0.  0.
        -11    1    4    4    0    0  0.51916862495E+02  0.59899816926E+02  0.40797425847E+02  0.89150314833E+02  0.00000000000E+00 0.  1.
         11    1    4    4    0    0  0.14772798901E+02 -0.23704217283E+02 -0.97523836418E+01  0.29584362273E+02  0.00000000000E+00 0. -1.
        -13    1    3    3    0    0 -0.68019566994E+02  0.37470793529E+02  0.30610145525E+02  0.83472767240E+02  0.00000000000E+00 0.  1.
         13    1    3    3    0    0 -0.29094518949E+02 -0.48575739404E+02  0.23155186605E+02  0.61173982691E+02  0.00000000000E+00 0. -1.
         -1    1    1    2    0  502  0.30424424546E+02 -0.25090653768E+02 -0.35294647330E+02  0.52923516943E+02  0.00000000000E+00 0.  1.
<scales pt_clust_5="13000.00000" pt_clust_6="13000.00000" pt_clust_7="13000.00000" pt_clust_8="13000.00000" pt_clust_9="39.43585"></scales>
<clustering>
<clus scale="   39.436">  2  9  1 -1</clus>
<clus scale="   85.887">  5  6 -1 -1</clus>
<clus scale="   92.073">  7  8 -1 -1</clus>
<clus scale="  120.872">  2  5  1 -1</clus>
<clus scale="   39.436">  2  5  1 -1</clus>
</clustering>
</event>
<event>
 9    1  0.1601012E-005  0.1749711E+03  0.7546771E-02  0.1172877E+00
          1   -1    0    0  502    0 -0.00000000000E+00  0.00000000000E+00  0.15143046981E+04  0.15143046981E+04  0.00000000000E+00 0. -1.
         21   -1    0    0  501  502  0.00000000000E+00 -0.00000000000E+00 -0.31677523214E+02  0.31677523214E+02  0.00000000000E+00 0. -1.
         23    2    1    2    0    0  0.10302461337E+03  0.10743655525E+03  0.85109477744E+03  0.86884472240E+03  0.91499437701E+02 0.  0.
         23    2    1    2    0    0 -0.14375489132E+03 -0.63367390047E+02  0.51611757829E+03  0.54705434341E+03  0.90610182230E+02 0.  0.
        -11    1    4    4    0    0 -0.69133209865E+02 -0.39240805549E+01  0.33775004084E+03  0.34477512845E+03  0.00000000000E+00 0.  1.
         11    1    4    4    0    0 -0.74621681456E+02 -0.59443309492E+02  0.17836753746E+03  0.20227921496E+03  0.00000000000E+00 0. -1.
        -13    1    3    3    0    0  0.12279698650E+01  0.59367012570E+02  0.22465347408E+03  0.23236852951E+03  0.00000000000E+00 0.  1.
         13    1    3    3    0    0  0.10179664351E+03  0.48069542678E+02  0.62644130336E+03  0.63647619289E+03  0.00000000000E+00 0. -1.
          1    1    1    2  501    0  0.40730277949E+02 -0.44069165201E+02  0.11541481913E+03  0.13008315548E+03  0.00000000000E+00 0. -1.
<scales pt_clust_5="13000.00000" pt_clust_6="13000.00000" pt_clust_7="13000.00000" pt_clust_8="13000.00000" pt_clust_9="60.00872"></scales>
<clustering>
<clus scale="   60.009">  2  9  1 -1</clus>
<clus scale="   90.610">  5  6 -1 -1</clus>
<clus scale="   91.499">  7  8 -1 -1</clus>
<clus scale="  174.508">  2  5  1 -1</clus>
<clus scale="   60.009">  2  5  1 -1</clus>
</clustering>
</event>
<event>
 9    1  0.1601012E-005  0.1354027E+03  0.7546771E-02  0.1219849E+00
         21   -1    0    0  501  502  0.00000000000E+00  0.00000000000E+00  0.40231434131E+02  0.40231434131E+02  0.00000000000E+00 0.  1.
          1   -1    0    0  502    0 -0.00000000000E+00 -0.00000000000E+00 -0.84539033049E+03  0.84539033049E+03  0.00000000000E+00 0. -1.
         23    2    1    2    0    0 -0.76113836752E+02  0.69348502947E+02 -0.57884032310E+03  0.59475599867E+03  0.89866830973E+02 0.  0.
         23    2    1    2    0    0  0.36586178461E+02 -0.94350195725E+02 -0.16557981922E+03  0.21420601996E+03  0.90703001980E+02 0.  0.
        -13    1    4    4    0    0  0.22216111446E+02 -0.42088591184E+02 -0.15064630308E+03  0.15798516939E+03  0.00000000000E+00 0. -1.
         13    1    4    4    0    0  0.14370067015E+02 -0.52261604541E+02 -0.14933516144E+02  0.56220850577E+02  0.00000000000E+00 0.  1.
        -13    1    3    3    0    0 -0.17128195698E+02  0.75409423719E+02 -0.33500968687E+03  0.34381891538E+03  0.00000000000E+00 0. -1.
         13    1    3    3    0    0 -0.58985641054E+02 -0.60609207713E+01 -0.24383063622E+03  0.25093708329E+03  0.00000000000E+00 0.  1.
          1    1    1    2  501    0  0.39527658290E+02  0.25001692777E+02 -0.60738754042E+02  0.76659745983E+02  0.00000000000E+00 0. -1.
<scales pt_clust_5="13000.00000" pt_clust_6="13000.00000" pt_clust_7="13000.00000" pt_clust_8="13000.00000" pt_clust_9="46.77094"></scales>
<clustering>
<clus scale="   46.771">  1  9  2 -1</clus>
<clus scale="   89.867">  7  8 -1 -1</clus>
<clus scale="   90.703">  5  6 -1 -1</clus>
<clus scale="  134.844">  2  7  1 -1</clus>
<clus scale="   46.771">  1  5  2 -1</clus>
</clustering>
</event>
<event>
 9    1  0.1601012E-005  0.1212696E+03  0.7546771E-02  0.1241517E+00
          1   -1    0    0  502    0 -0.00000000000E+00  0.00000000000E+00  0.47131021317E+03  0.47131021317E+03  0.00000000000E+00 0. -1.
         21   -1    0    0  501  502  0.00000000000E+00 -0.00000000000E+00 -0.17770399317E+03  0.17770399317E+03  0.00000000000E+00 0.  1.
         23    2    1    2    0    0  0.22108525572E+02  0.84768479652E+02  0.39597315673E+03  0.41529515558E+03  0.89447433478E+02 0.  0.
         23    2    1    2    0    0  0.48980122122E+02 -0.41703316768E+02 -0.13962388241E+02  0.11237833920E+03  0.91080864316E+02 0.  0.
        -11    1    3    3    0    0  0.37334294500E+02  0.64768451318E+01  0.20270623689E+03  0.20621740358E+03  0.00000000000E+00 0. -1.
         11    1    3    3    0    0 -0.15225768928E+02  0.78291634520E+02  0.19326691984E+03  0.20907775200E+03  0.00000000000E+00 0.  1.
        -13    1    4    4    0    0  0.42118350392E+02 -0.67381897586E+02 -0.25427278166E+02  0.83431541020E+02  0.00000000000E+00 0.  1.
         13    1    4    4    0    0  0.68617717304E+01  0.25678580819E+02  0.11464889925E+02  0.28946798185E+02  0.00000000000E+00 0. -1.
          1    1    1    2  501    0 -0.71088647694E+02 -0.43065162884E+02 -0.88404548488E+02  0.12134071155E+03  0.00000000000E+00 0. -1.
<scales pt_clust_5="13000.00000" pt_clust_6="13000.00000" pt_clust_7="13000.00000" pt_clust_8="13000.00000" pt_clust_9="83.11561"></scales>
<clustering>
<clus scale="   83.116">  2  9  1 -1</clus>
<clus scale="   89.447">  5  6 -1 -1</clus>
<clus scale="   91.081">  7  8 -1 -1</clus>
<clus scale="  120.048">  1  5  2 -1</clus>
<clus scale="   83.116">  2  5  1 -1</clus>
</clustering>
</event>
<event>
 9    1  0.1601012E-005  0.1466629E+03  0.7546771E-02  0.1207217E+00
         21   -1    0    0  501  502  0.00000000000E+00  0.00000000000E+00  0.73110211690E+03  0.73110211690E+03  0.00000000000E+00 0. -1.
          1   -1    0    0  502    0 -0.00000000000E+00 -0.00000000000E+00 -0.52013733055E+02  0.52013733055E+02  0.00000000000E+00 0. -1.
         23    2    1    2    0    0  0.73317956498E+02  0.72290112130E+02  0.18100096672E+03  0.22688289520E+03  0.90072832320E+02 0.  0.
         23    2    1    2    0    0 -0.12578816690E+03 -0.49458391037E+02  0.20272824426E+03  0.25538174325E+03  0.76500316275E+02 0.  0.
        -11    1    3    3    0    0 -0.21200084163E+02  0.16908410938E+02  0.40053921984E+02  0.48369976176E+02  0.00000000000E+00 0. -1.
         11    1    3    3    0    0  0.94518040661E+02  0.55381701192E+02  0.14094704474E+03  0.17851291902E+03  0.00000000000E+00 0.  1.
        -11    1    4    4    0    0 -0.39415655131E+02 -0.36977436303E+02  0.29888654326E+02  0.61759665822E+02  0.00000000000E+00 0.  1.
         11    1    4    4    0    0 -0.86372511774E+02 -0.12480954734E+02  0.17283958993E+03  0.19362207743E+03  0.00000000000E+00 0. -1.
          1    1    1    2  501    0  0.52470210406E+02 -0.22831721093E+02  0.29535917286E+03  0.30085121150E+03  0.00000000000E+00 0. -1.
<scales pt_clust_5="13000.00000" pt_clust_6="13000.00000" pt_clust_7="13000.00000" pt_clust_8="13000.00000" pt_clust_9="57.22246"></scales>
<clustering>
<clus scale="   57.222">  1  9  2 -1</clus>
<clus scale="   76.500">  7  8 -1 -1</clus>
<clus scale="   90.073">  5  6 -1 -1</clus>
<clus scale="  138.741">  1  7  2 -1</clus>
<clus scale="   57.222">  1  5  2 -1</clus>
</clustering>
</event>
<event>
 9    1  0.1601012E-005  0.9739671E+02  0.7546771E-02  0.1290541E+00
         21   -1    0    0  501  502  0.00000000000E+00  0.00000000000E+00  0.53876012843E+03  0.53876012843E+03  0.00000000000E+00 0.  1.
          3   -1    0    0  502    0 -0.00000000000E+00 -0.00000000000E+00 -0.36404686940E+02  0.36404686940E+02  0.00000000000E+00 0. -1.
         23    2    1    2    0    0 -0.39246725238E+02  0.24846885697E+02  0.70569363725E+02  0.12346374109E+03  0.90031034078E+02 0.  0.
         23    2    1    2    0    0 -0.77076614890E+01 -0.26439756893E+02  0.27634232002E+03  0.28931260949E+03  0.81106346179E+02 0.  0.
        -11    1    4    4    0    0 -0.23919202675E+02 -0.47529161862E+02  0.12823879600E+03  0.13883925339E+03  0.00000000000E+00 0.  1.
         11    1    4    4    0    0  0.16211541186E+02  0.21089404970E+02  0.14810352402E+03  0.15047335610E+03  0.00000000000E+00 0. -1.
        -11    1    3    3    0    0 -0.56629738577E+02 -0.31682540318E+01  0.14701217124E+02  0.58592584086E+02  0.00000000000E+00 0. -1.
         11    1    3    3    0    0  0.17383013339E+02  0.28015139728E+02  0.55868146601E+02  0.64871157006E+02  0.00000000000E+00 0.  1.
          3    1    1    2  501    0  0.46954386727E+02  0.15928711961E+01  0.15544375775E+03  0.16238846479E+03  0.00000000000E+00 0. -1.
<scales pt_clust_5="13000.00000" pt_clust_6="13000.00000" pt_clust_7="13000.00000" pt_clust_8="13000.00000" pt_clust_9="46.98140"></scales>
<clustering>
<clus scale="   46.981">  1  9  2 -1</clus>
<clus scale="   81.106">  5  6 -1 -1</clus>
<clus scale="   89.212">  1  5  2 -1</clus>
<clus scale="   90.031">  7  8 -1 -1</clus>
<clus scale="   46.981">  1  5  2 -1</clus>
</clustering>
</event>
<event>
 9    1  0.1601012E-005  0.1000812E+03  0.7546771E-02  0.1281089E+00
         21   -1    0    0  501  502  0.00000000000E+00  0.00000000000E+00  0.38315364839E+02  0.38315364839E+02  0.00000000000E+00 0.  1.
         -3   -1    0    0    0  501 -0.00000000000E+00 -0.00000000000E+00 -0.48746779840E+03  0.48746779840E+03  0.00000000000E+00 0.  1.
         23    2    1    2    0    0 -0.10072247739E+02  0.37614173147E+02 -0.31109611245E+03  0.32678855247E+03  0.92161220948E+02 0.  0.
         23    2    1    2    0    0 -0.28485760004E+02 -0.43160677061E+02 -0.93629054646E+02  0.13990767759E+03  0.90185784955E+02 0.  0.
        -11    1    3    3    0    0 -0.40409052693E+02 -0.10003661660E+02 -0.16477322405E+03  0.16995052266E+03  0.00000000000E+00 0.  1.
         11    1    3    3    0    0  0.30336804954E+02  0.47617834807E+02 -0.14632288840E+03  0.15683802981E+03  0.00000000000E+00 0. -1.
        -11    1    4    4    0    0 -0.44519815305E+02  0.61833737188E+01 -0.18502723837E+02  0.48606572135E+02  0.00000000000E+00 0.  1.
         11    1    4    4    0    0  0.16034055301E+02 -0.49344050779E+02 -0.75126330809E+02  0.91301105457E+02  0.00000000000E+00 0. -1.
         -3    1    1    2    0  502  0.38558007744E+02  0.55465039141E+01 -0.44427266459E+02  0.59086933173E+02  0.00000000000E+00 0.  1.
<scales pt_clust_5="13000.00000" pt_clust_6="13000.00000" pt_clust_7="13000.00000" pt_clust_8="13000.00000" pt_clust_9="38.95489"></scales>
<clustering>
<clus scale="   38.955">  1  9  2 -1</clus>
<clus scale="   90.186">  7  8 -1 -1</clus>
<clus scale="   92.161">  5  6 -1 -1</clus>
<clus scale="   98.265">  1  7  2 -1</clus>
<clus scale="   38.955">  1  5  2 -1</clus>
</clustering>
</event>
<event>
 9    1  0.1601012E-005  0.9354231E+02  0.7546771E-02  0.1295208E+00
         21   -1    0    0  501  502  0.00000000000E+00  0.00000000000E+00  0.31846679779E+02  0.31846679779E+02  0.00000000000E+00 0.  1.
          1   -1    0    0  502    0 -0.00000000000E+00 -0.00000000000E+00 -0.57219715855E+03  0.57219715855E+03  0.00000000000E+00 0. -1.
         23    2    1    2    0    0  0.16285749423E+02  0.11051569969E+02 -0.35747936600E+03  0.36961545058E+03  0.91851626891E+02 0.  0.
         23    2    1    2    0    0  0.61555208941E+01  0.11774774089E+02 -0.17898371685E+03  0.20218300910E+03  0.93092763042E+02 0.  0.
        -11    1    3    3    0    0 -0.36804630332E+02  0.91921950674E+01 -0.10592459475E+03  0.11251265279E+03  0.00000000000E+00 0.  1.
         11    1    3    3    0    0  0.53090379755E+02  0.18593749017E+01 -0.25155477125E+03  0.25710279780E+03  0.00000000000E+00 0. -1.
        -13    1    4    4    0    0  0.96351910925E+01  0.51345915260E+02 -0.12205037733E+03  0.13276119360E+03  0.00000000000E+00 0.  1.
         13    1    4    4    0    0 -0.34796701983E+01 -0.39571141171E+02 -0.56933339522E+02  0.69421815500E+02  0.00000000000E+00 0. -1.
          1    1    1    2  501    0 -0.22441270317E+02 -0.22826344058E+02 -0.38873959194E+01  0.32245378638E+02  0.00000000000E+00 0. -1.
<scales pt_clust_5="13000.00000" pt_clust_6="13000.00000" pt_clust_7="13000.00000" pt_clust_8="13000.00000" pt_clust_9="32.01020"></scales>
<clustering>
<clus scale="   32.010">  1  9  2 -1</clus>
<clus scale="   91.852">  5  6 -1 -1</clus>
<clus scale="   92.307">  2  5  1 -1</clus>
<clus scale="   93.093">  7  8 -1 -1</clus>
<clus scale="   32.010">  1  5  2 -1</clus>
</clustering>
</event>
<event>
 9    1  0.1601012E-005  0.1022660E+03  0.7546771E-02  0.1276580E+00
         21   -1    0    0  501  502  0.00000000000E+00  0.00000000000E+00  0.17778679930E+03  0.17778679930E+03  0.00000000000E+00 0.  1.
         -3   -1    0    0    0  501 -0.00000000000E+00 -0.00000000000E+00 -0.16016417380E+03  0.16016417380E+03  0.00000000000E+00 0.  1.
         23    2    1    2    0    0  0.83992518029E+02  0.15001445266E+02 -0.55253924852E+02  0.13665275007E+03  0.91330123429E+02 0.  0.
         23    2    1    2    0    0 -0.31436359327E+01  0.12197559601E+02  0.15373202102E+01  0.90097443547E+02  0.89199344578E+02 0.  0.
        -11    1    3    3    0    0  0.65219288889E+01 -0.24707109319E+02  0.10428391259E+02  0.27599423030E+02  0.00000000000E+00 0.  1.
         11    1    3    3    0    0  0.77470589140E+02  0.39708554585E+02 -0.65682316111E+02  0.10905332704E+03  0.00000000000E+00 0. -1.
        -11    1    4    4    0    0  0.93996667372E+01 -0.23272051611E+02  0.32716397405E+02  0.41234752092E+02  0.00000000000E+00 0.  1.
         11    1    4    4    0    0 -0.12543302670E+02  0.35469611213E+02 -0.31179077195E+02  0.48862691454E+02  0.00000000000E+00 0. -1.
         -3    1    1    2    0  502 -0.80848882096E+02 -0.27199004867E+02  0.71339230140E+02  0.11120077949E+03  0.00000000000E+00 0.  1.
<scales pt_clust_5="13000.00000" pt_clust_6="13000.00000" pt_clust_7="13000.00000" pt_clust_8="13000.00000" pt_clust_9="85.30139"></scales>
<clustering>
<clus scale="   85.301">  1  9  2 -1</clus>
<clus scale="   89.199">  7  8 -1 -1</clus>
<clus scale="   91.330">  5  6 -1 -1</clus>
<clus scale="  100.368">  1  7  2 -1</clus>
<clus scale="   85.301">  1  5  2 -1</clus>
</clustering>
</event>
<event>
 9    1  0.1601012E-005  0.1488932E+03  0.7546771E-02  0.1202050E+00
         -1   -1    0    0    0  501 -0.00000000000E+00  0.00000000000E+00  0.26472939580E+03  0.26472939580E+03  0.00000000000E+00 0.  1.
         21   -1    0    0  501  502  0.00000000000E+00 -0.00000000000E+00 -0.16599185480E+03  0.16599185480E+03  0.00000000000E+00 0. -1.
         23    2    1    2    0    0 -0.58334488952E+02 -0.11177329223E+03  0.18070537638E+03  0.23798560573E+03  0.89925157906E+02 0.  0.
         23    2    1    2    0    0  0.19244441480E+02  0.90033196461E+02 -0.56519604143E+02  0.14127424139E+03  0.91036369843E+02 0.  0.
        -11    1    3    3    0    0 -0.45232020583E+02 -0.38259844892E+02  0.14203395394E+03  0.15389410479E+03  0.00000000000E+00 0.  1.
         11    1    3    3    0    0 -0.13102468370E+02 -0.73513447334E+02  0.38671422440E+02  0.84091500937E+02  0.00000000000E+00 0. -1.
        -11    1    4    4    0    0  0.38657476787E+01  0.50731091446E+02  0.19368504542E+02  0.54440119514E+02  0.00000000000E+00 0.  1.
         11    1    4    4    0    0  0.15378693801E+02  0.39302105015E+02 -0.75888108686E+02  0.86834121873E+02  0.00000000000E+00 0. -1.
         -1    1    1    2    0  502  0.39090047472E+02  0.21740095764E+02 -0.25448231246E+02  0.51461403486E+02  0.00000000000E+00 0.  1.
<scales pt_clust_5="13000.00000" pt_clust_6="13000.00000" pt_clust_7="13000.00000" pt_clust_8="13000.00000" pt_clust_9="44.72878"></scales>
<clustering>
<clus scale="   44.729">  2  9  1 -1</clus>
<clus scale="   89.925">  5  6 -1 -1</clus>
<clus scale="   91.036">  7  8 -1 -1</clus>
<clus scale="  148.216">  1  5  2 -1</clus>
<clus scale="   44.729">  2  5  1 -1</clus>
</clustering>
</event>
<event>
 9    1  0.1601012E-005  0.1220797E+03  0.7546771E-02  0.1240457E+00
         21   -1    0    0  501  502  0.00000000000E+00  0.00000000000E+00  0.84644274504E+02  0.84644274504E+02  0.00000000000E+00 0.  1.
         -2   -1    0    0    0  501 -0.00000000000E+00 -0.00000000000E+00 -0.28938499258E+03  0.28938499258E+03  0.00000000000E+00 0.  1.
         23    2    1    2    0    0  0.92201819426E+01  0.97366182874E+02 -0.16086120102E+03  0.21069403068E+03  0.94606887961E+02 0.  0.
         23    2    1    2    0    0  0.74123188677E+01 -0.46487227357E+02 -0.33453601164E+02  0.10880077097E+03  0.92208782417E+02 0.  0.
        -11    1    3    3    0    0  0.94215179360E+01  0.53358123705E+02 -0.15749738651E+03  0.16655714072E+03  0.00000000000E+00 0.  1.
         11    1    3    3    0    0 -0.20133599340E+00  0.44008059169E+02 -0.33638145084E+01  0.44136889968E+02  0.00000000000E+00 0. -1.
        -13    1    4    4    0    0 -0.32886587581E+02 -0.53284536737E+02 -0.21821204943E+02  0.66309384579E+02  0.00000000000E+00 0.  1.
         13    1    4    4    0    0  0.40298906449E+02  0.67973093797E+01 -0.11632396221E+02  0.42491386393E+02  0.00000000000E+00 0. -1.
         -2    1    1    2    0  502 -0.16632500810E+02 -0.50878955517E+02 -0.10425915898E+02  0.54534465433E+02  0.00000000000E+00 0.  1.
<scales pt_clust_5="13000.00000" pt_clust_6="13000.00000" pt_clust_7="13000.00000" pt_clust_8="13000.00000" pt_clust_9="53.52857"></scales>
<clustering>
<clus scale="   53.529">  1  9  2 -1</clus>
<clus scale="   92.209">  7  8 -1 -1</clus>
<clus scale="   94.607">  5  6 -1 -1</clus>
<clus scale="  120.231">  1  7  2 -1</clus>
<clus scale="   53.529">  1  5  2 -1</clus>
</clustering>
</event>
<event>
 9    1  0.1601012E-005  0.9245758E+02  0.7546771E-02  0.1297313E+00
         -4   -1    0    0    0  501 -0.00000000000E+00  0.00000000000E+00  0.28888380511E+03  0.28888380511E+03  0.00000000000E+00 0.  1.
         21   -1    0    0  501  502  0.00000000000E+00 -0.00000000000E+00 -0.12192996940E+03  0.12192996940E+03  0.00000000000E+00 0.  1.
         23    2    1    2    0    0  0.41398946306E+01  0.26475894355E+01  0.14581865526E+03  0.17212130620E+03  0.91315471684E+02 0.  0.
         23    2    1    2    0    0  0.18871459736E+02  0.26178322483E+02  0.10735257432E+03  0.14491670046E+03  0.91841375751E+02 0.  0.
        -13    1    4    4    0    0 -0.15091948279E+02  0.51217403349E+02  0.73349259624E+02  0.90725427505E+02  0.00000000000E+00 0.  1.
         13    1    4    4    0    0  0.33963408015E+02 -0.25039080866E+02  0.34003314696E+02  0.54191272959E+02  0.00000000000E+00 0. -1.
        -13    1    3    3    0    0  0.28954916708E+02  0.15009090728E+02  0.10905005231E+02  0.34388648493E+02  0.00000000000E+00 0.  1.
         13    1    3    3    0    0 -0.24815022078E+02 -0.12361501293E+02  0.13491365003E+03  0.13773265771E+03  0.00000000000E+00 0. -1.
         -4    1    1    2    0  502 -0.23011354367E+02 -0.28825911919E+02 -0.86217393871E+02  0.93775767838E+02  0.00000000000E+00 0.  1.
<scales pt_clust_5="13000.00000" pt_clust_6="13000.00000" pt_clust_7="13000.00000" pt_clust_8="13000.00000" pt_clust_9="36.88435"></scales>
<clustering>
<clus scale="   36.884">  2  9  1 -1</clus>
<clus scale="   91.315">  7  8 -1 -1</clus>
<clus scale="   91.841">  5  6 -1 -1</clus>
<clus scale="   91.935">  1  7  2 -1</clus>
<clus scale="   36.884">  2  5  1 -1</clus>
</clustering>
</event>
<event>
 9    1  0.1601012E-005  0.1100679E+03  0.7546771E-02  0.1261731E+00
          4   -1    0    0  502    0 -0.00000000000E+00  0.00000000000E+00  0.19666782011E+03  0.19666782011E+03  0.00000000000E+00 0. -1.
         21   -1    0    0  501  502  0.00000000000E+00 -0.00000000000E+00 -0.14863933177E+03  0.14863933177E+03  0.00000000000E+00 0. -1.
         23    2    1    2    0    0  0.39382639309E+02 -0.42429721118E+02  0.12184823906E+03  0.16349420293E+03  0.92369299643E+02 0.  0.
         23    2    1    2    0    0 -0.62017075523E+02  0.30262599745E+02 -0.10133385729E+02  0.11313755575E+03  0.89081302275E+02 0.  0.
        -11    1    3    3    0    0  0.45245188778E+02 -0.68560691779E+02  0.94637129732E+02  0.12531513033E+03  0.00000000000E+00 0. -1.
         11    1    3    3    0    0 -0.58625494692E+01  0.26130970662E+02  0.27211109332E+02  0.38179072606E+02  0.00000000000E+00 0.  1.
        -13    1    4    4    0    0 -0.18647870547E+02  0.31111346222E+02 -0.44776083362E+02  0.57624270763E+02  0.00000000000E+00 0.  1.
         13    1    4    4    0    0 -0.43369204976E+02 -0.84874647641E+00  0.34642697633E+02  0.55513284987E+02  0.00000000000E+00 0. -1.
          4    1    1    2  501    0  0.22634436214E+02  0.12167121372E+02 -0.63686364990E+02  0.68675393197E+02  0.00000000000E+00 0. -1.
<scales pt_clust_5="13000.00000" pt_clust_6="13000.00000" pt_clust_7="13000.00000" pt_clust_8="13000.00000" pt_clust_9="25.69740"></scales>
<clustering>
<clus scale="   25.697">  2  9  1 -1</clus>
<clus scale="   89.081">  7  8 -1 -1</clus>
<clus scale="   92.369">  5  6 -1 -1</clus>
<clus scale="  107.324">  2  7  1 -1</clus>
<clus scale="   25.697">  2  5  1 -1</clus>
</clustering>
</event>
<event>
 9    1  0.1601012E-005  0.1403664E+03  0.7546771E-02  0.1222800E+00
         -1   -1    0    0    0  501 -0.00000000000E+00  0.00000000000E+00  0.29070911342E+03  0.29070911342E+03  0.00000000000E+00 0.  1.
         21   -1    0    0  501  502  0.00000000000E+00 -0.00000000000E+00 -0.16378138445E+03  0.16378138445E+03  0.00000000000E+00 0.  1.
         23    2    1    2    0    0 -0.10919000998E+01  0.10642723523E+03  0.14706108870E+03  0.20337506906E+03  0.91687001604E+02 0.  0.
         23    2    1    2    0    0  0.23565328844E+02  0.41566281302E+01  0.27845367385E+02  0.12849485920E+03  0.12313797982E+03 0.  0.
        -11    1    3    3    0    0 -0.28481807029E+02 -0.74329062080E+00  0.42469870589E+02  0.51141526380E+02  0.00000000000E+00 0.  1.
         11    1    3    3    0    0  0.27389906929E+02  0.10717052585E+03  0.10459121811E+03  0.15223354268E+03  0.00000000000E+00 0. -1.
        -13    1    4    4    0    0 -0.18864159195E+02  0.41863375404E+02  0.49704836894E+02  0.67668083415E+02  0.00000000000E+00 0.  1.
         13    1    4    4    0    0  0.42429488039E+02 -0.37706747274E+02 -0.21859469509E+02  0.60826775785E+02  0.00000000000E+00 0. -1.
         -1    1    1    2    0  502 -0.22473428744E+02 -0.11058386336E+03 -0.47978727115E+02  0.12262056961E+03  0.00000000000E+00 0.  1.
<scales pt_clust_5="13000.00000" pt_clust_6="13000.00000" pt_clust_7="13000.00000" pt_clust_8="13000.00000" pt_clust_9="112.84434"></scales>
<clustering>
<clus scale="   91.687">  5  6 -1 -1</clus>
<clus scale="  112.844">  2  9  1 -1</clus>
<clus scale="  113.782">  1  5  2 -1</clus>
<clus scale="  123.138">  7  8 -1 -1</clus>
<clus scale="  112.844">  2  5  1 -1</clus>
</clustering>
</event>
<event>
 9    1  0.1601012E-005  0.1709674E+03  0.7546771E-02  0.1177102E+00
         21   -1    0    0  501  502  0.00000000000E+00  0.00000000000E+00  0.81611602459E+02  0.81611602459E+02  0.00000000000E+00 0.  1.
          1   -1    0    0  502    0 -0.00000000000E+00 -0.00000000000E+00 -0.75505573191E+03  0.75505573191E+03  0.00000000000E+00 0. -1.
         23    2    1    2    0    0 -0.11924518345E+03 -0.81217266197E+02 -0.59602261208E+03  0.62028905930E+03  0.93273280576E+02 0.  0.
         23    2    1    2    0    0  0.12508716683E+03  0.60759093161E+02 -0.36684857045E+02  0.17042023869E+03  0.91426540507E+02 0.  0.
        -11    1    4    4    0    0  0.10484560388E+03  0.81695575817E+02 -0.44673434974E+02  0.14022297798E+03  0.00000000000E+00 0.  1.
         11    1    4    4    0    0  0.20241562949E+02 -0.20936482656E+02  0.79885779294E+01  0.30197260703E+02  0.00000000000E+00 0. -1.
        -13    1    3    3    0    0 -0.72814966159E+02 -0.72720945117E+02 -0.52514178818E+03  0.53513012702E+03  0.00000000000E+00 0. -1.
         13    1    3    3    0    0 -0.46430217288E+02 -0.84963210801E+01 -0.70880823903E+02  0.85158932276E+02  0.00000000000E+00 0.  1.
          1    1    1    2  501    0 -0.58419833863E+01  0.20458173036E+02 -0.40736660324E+02  0.45958036384E+02  0.00000000000E+00 0. -1.
<scales pt_clust_5="13000.00000" pt_clust_6="13000.00000" pt_clust_7="13000.00000" pt_clust_8="13000.00000" pt_clust_9="21.27595"></scales>
<clustering>
<clus scale="   21.276">  1  9  2 -1</clus>
<clus scale="   91.427">  5  6 -1 -1</clus>
<clus scale="   93.273">  7  8 -1 -1</clus>
<clus scale="  169.967">  1  5  2 -1</clus>
<clus scale="   21.276">  1  5  2 -1</clus>
</clustering>
</event>
<event>
 9    1  0.1601012E-005  0.1563565E+03  0.7546771E-02  0.1205945E+00
         21   -1    0    0  501  502  0.00000000000E+00  0.00000000000E+00  0.22617459922E+03  0.22617459922E+03  0.00000000000E+00 0.  1.
          1   -1    0    0  502    0 -0.00000000000E+00 -0.00000000000E+00 -0.40833711733E+03  0.40833711733E+03  0.00000000000E+00 0. -1.
         23    2    1    2    0    0  0.68045177092E+02  0.25075770989E+02  0.78192549868E+02  0.14128397496E+03  0.92672252100E+02 0.  0.
         23    2    1    2    0    0 -0.17912167537E+03 -0.64547640295E+02 -0.30145064492E+03  0.36838839130E+03  0.92663601652E+02 0.  0.
        -11    1    4    4    0    0 -0.83030878201E+02 -0.60036786751E+02 -0.91180615239E+02  0.13715847438E+03  0.00000000000E+00 0. -1.
         11    1    4    4    0    0 -0.96090797165E+02 -0.45108535436E+01 -0.21027002968E+03  0.23122991693E+03  0.00000000000E+00 0.  1.
        -11    1    3    3    0    0  0.60482472851E+02 -0.92261970279E+01  0.65979812650E+01  0.61536863672E+02  0.00000000000E+00 0. -1.
         11    1    3    3    0    0  0.75627042411E+01  0.34301968017E+02  0.71594568603E+02  0.79747111287E+02  0.00000000000E+00 0.  1.
          1    1    1    2  501    0  0.11107649827E+03  0.39471869305E+02  0.41095576947E+02  0.12483935029E+03  0.00000000000E+00 0. -1.
<scales pt_clust_5="13000.00000" pt_clust_6="13000.00000" pt_clust_7="13000.00000" pt_clust_8="13000.00000" pt_clust_9="125.93966"></scales>
<clustering>
<clus scale="   92.664">  5  6 -1 -1</clus>
<clus scale="   92.672">  7  8 -1 -1</clus>
<clus scale="  117.674">  2  7  1 -1</clus>
<clus scale="  125.940">  1  9  2 -1</clus>
<clus scale="  125.940">  1  5  2 -1</clus>
</clustering>
</event>
<event>
 9    1  0.1601012E-005  0.9453648E+02  0.7546771E-02  0.1298752E+00
          1   -1    0    0  502    0 -0.00000000000E+00  0.00000000000E+00  0.60546679513E+03  0.60546679513E+03  0.00000000000E+00 0. -1.
         21   -1    0    0  501  502  0.00000000000E+00 -0.00000000000E+00 -0.28205627639E+02  0.28205627639E+02  0.00000000000E+00 0.  1.
         23    2    1    2    0    0 -0.22046549958E+02  0.19302542271E+02  0.46671748748E+03  0.47621829720E+03  0.90000083125E+02 0.  0.
         23    2    1    2    0    0  0.25947070171E+01 -0.35428718371E+02  0.78260184469E+02  0.11645837172E+03  0.78587335372E+02 0.  0.
        -11    1    3    3    0    0 -0.52814597711E+02 -0.72543690460E+01  0.23580301730E+03  0.24175415316E+03  0.00000000000E+00 0.  1.
         11    1    3    3    0    0  0.30768047753E+02  0.26556911317E+02  0.23091447018E+03  0.23446414404E+03  0.00000000000E+00 0. -1.
        -13    1    4    4    0    0 -0.12669568888E+02 -0.53316455719E+02  0.29296186761E+02  0.62140397368E+02  0.00000000000E+00 0.  1.
         13    1    4    4    0    0  0.15264275905E+02  0.17887737348E+02  0.48963997708E+02  0.54317974353E+02  0.00000000000E+00 0. -1.
          1    1    1    2  501    0  0.19451842941E+02  0.16126176100E+02  0.32283495546E+02  0.40995753854E+02  0.00000000000E+00 0. -1.
<scales pt_clust_5="13000.00000" pt_clust_6="13000.00000" pt_clust_7="13000.00000" pt_clust_8="13000.00000" pt_clust_9="25.26713"></scales>
<clustering>
<clus scale="   25.267">  2  9  1 -1</clus>
<clus scale="   78.587">  7  8 -1 -1</clus>
<clus scale="   83.744">  2  7  1 -1</clus>
<clus scale="   90.000">  5  6 -1 -1</clus>
<clus scale="   25.267">  2  5  1 -1</clus>
</clustering>
</event>
<event>
 9    1  0.1601012E-005  0.9360738E+02  0.7546771E-02  0.1295410E+00
         -2   -1    0    0    0  501 -0.00000000000E+00  0.00000000000E+00  0.19503422610E+03  0.19503422610E+03  0.00000000000E+00 0.  1.
         21   -1    0    0  501  502  0.00000000000E+00 -0.00000000000E+00 -0.11283695190E+03  0.11283695190E+03  0.00000000000E+00 0.  1.
         23    2    1    2    0    0 -0.10475355999E+02 -0.30996045810E+02  0.10102049288E+03  0.13790488559E+03  0.87989371791E+02 0.  0.
         23    2    1    2    0    0  0.32750709327E+02  0.17109011408E+02  0.42826096482E+02  0.10296122431E+03  0.86032621364E+02 0.  0.
        -11    1    4    4    0    0 -0.18853658732E+02 -0.12207120754E+02 -0.89721190608E+01  0.24186218496E+02  0.00000000000E+00 0. -1.
         11    1    4    4    0    0  0.51604368058E+02  0.29316132162E+02  0.51798215543E+02  0.78775005815E+02  0.00000000000E+00 0.  1.
        -13    1    3    3    0    0 -0.37571230502E+00 -0.56551059535E+02  0.35284948494E+02  0.66657265804E+02  0.00000000000E+00 0.  1.
         13    1    3    3    0    0 -0.10099643694E+02  0.25555013724E+02  0.65735544386E+02  0.71247619784E+02  0.00000000000E+00 0. -1.
         -2    1    1    2    0  502 -0.22275353328E+02  0.13887034402E+02 -0.61649315166E+02  0.67005068098E+02  0.00000000000E+00 0.  1.
<scales pt_clust_5="13000.00000" pt_clust_6="13000.00000" pt_clust_7="13000.00000" pt_clust_8="13000.00000" pt_clust_9="26.24959"></scales>
<clustering>
<clus scale="   26.250">  2  9  1 -1</clus>
<clus scale="   86.033">  5  6 -1 -1</clus>
<clus scale="   87.989">  7  8 -1 -1</clus>
<clus scale="   91.770">  2  5  1 -1</clus>
<clus scale="   26.250">  2  5  1 -1</clus>
</clustering>
</event>
<event>
 9    1  0.1601012E-005  0.1727354E+03  0.7546771E-02  0.1175198E+00
         -3   -1    0    0    0  501 -0.00000000000E+00  0.00000000000E+00  0.19844622515E+03  0.19844622515E+03  0.00000000000E+00 0.  1.
         21   -1    0    0  501  502  0.00000000000E+00 -0.00000000000E+00 -0.27902894865E+03  0.27902894865E+03  0.00000000000E+00 0. -1.
         23    2    1    2    0    0 -0.12648870887E+03  0.82221016241E+02  0.11404945663E+03  0.20967248981E+03  0.90529472780E+02 0.  0.
         23    2    1    2    0    0  0.10222711857E+03 -0.82610390609E+02 -0.17681911236E+03  0.23770149199E+03  0.89230826476E+02 0.  0.
        -11    1    3    3    0    0 -0.11144954720E+03  0.39195488661E+02  0.11388392805E+03  0.16409398822E+03  0.00000000000E+00 0.  1.
         11    1    3    3    0    0 -0.15039161669E+02  0.43025527580E+02  0.16552858041E+00  0.45578501588E+02  0.00000000000E+00 0. -1.
        -13    1    4    4    0    0  0.24313385212E+02 -0.48655615560E+02 -0.17513985094E+02  0.57142359943E+02  0.00000000000E+00 0.  1.
         13    1    4    4    0    0  0.77913733360E+02 -0.33954775049E+02 -0.15930512726E+03  0.18055913205E+03  0.00000000000E+00 0. -1.
         -3    1    1    2    0  502  0.24261590297E+02  0.38937436797E+00 -0.17813067773E+02  0.30101191997E+02  0.00000000000E+00 0.  1.
<scales pt_clust_5="13000.00000" pt_clust_6="13000.00000" pt_clust_7="13000.00000" pt_clust_8="13000.00000" pt_clust_9="24.26471"></scales>
<clustering>
<clus scale="   24.265">  2  9  1 -1</clus>
<clus scale="   89.231">  7  8 -1 -1</clus>
<clus scale="   90.529">  5  6 -1 -1</clus>
<clus scale="  172.058">  2  7  1 -1</clus>
<clus scale="   24.265">  2  5  1 -1</clus>
</clustering>
</event>
<event>
 9    1  0.1601012E-005  0.9619943E+02  0.7546771E-02  0.1290410E+00
         21   -1    0    0  501  502  0.00000000000E+00  0.00000000000E+00  0.81889611010E+02  0.81889611010E+02  0.00000000000E+00 0. -1.
          1   -1    0    0  502    0 -0.00000000000E+00 -0.00000000000E+00 -0.37503825970E+03  0.37503825970E+03  0.00000000000E+00 0. -1.
         23    2    1    2    0    0 -0.13278957179E+02  0.19636330018E+02 -0.28802471523E+03  0.30292166736E+03  0.90782067657E+02 0.  0.
         23    2    1    2    0    0  0.13384202942E+01 -0.17967105326E+01 -0.48199573658E+02  0.10587784141E+03  0.94243826662E+02 0.  0.
        -11    1    3    3    0    0  0.17795500183E+02 -0.27898872374E+02 -0.67123293010E+02  0.74836911822E+02  0.00000000000E+00 0.  1.
         11    1    3    3    0    0 -0.31074457362E+02  0.47535202392E+02 -0.22090142222E+03  0.22808475553E+03  0.00000000000E+00 0. -1.
        -13    1    4    4    0    0 -0.23183348206E+02 -0.40022911644E+02 -0.11955272232E+02  0.47772687015E+02  0.00000000000E+00 0.  1.
         13    1    4    4    0    0  0.24521768500E+02  0.38226201111E+02 -0.36244301426E+02  0.58105154398E+02  0.00000000000E+00 0. -1.
          1    1    1    2  501    0  0.11940536884E+02 -0.17839619485E+02  0.43075640201E+02  0.48128361941E+02  0.00000000000E+00 0. -1.
<scales pt_clust_5="13000.00000" pt_clust_6="13000.00000" pt_clust_7="13000.00000" pt_clust_8="13000.00000" pt_clust_9="21.46692"></scales>
<clustering>
<clus scale="   21.467">  1  9  2 -1</clus>
<clus scale="   90.782">  5  6 -1 -1</clus>
<clus scale="   92.811">  2  5  1 -1</clus>
<clus scale="   94.244">  7  8 -1 -1</clus>
<clus scale="   21.467">  1  5  2 -1</clus>
</clustering>
</event>
<event>
 9    1  0.1601012E-005  0.1015934E+03  0.7546771E-02  0.1277745E+00
         21   -1    0    0  501  502  0.00000000000E+00  0.00000000000E+00  0.24404552330E+03  0.24404552330E+03  0.00000000000E+00 0.  1.
          1   -1    0    0  502    0 -0.00000000000E+00 -0.00000000000E+00 -0.89108236968E+02  0.89108236968E+02  0.00000000000E+00 0. -1.
         23    2    1    2    0    0 -0.43007541813E+02  0.48853189658E+01 -0.24524697435E+02  0.10386199329E+03  0.91172023517E+02 0.  0.
         23    2    1    2    0    0  0.32399262902E+02 -0.23757197768E+02  0.84138738606E+02  0.13154104084E+03  0.92787937847E+02 0.  0.
        -13    1    4    4    0    0 -0.63410404663E+01 -0.45153976907E+02  0.12406187263E+02  0.47254670744E+02  0.00000000000E+00 0.  1.
         13    1    4    4    0    0  0.38740303369E+02  0.21396779139E+02  0.71732551343E+02  0.84286370101E+02  0.00000000000E+00 0. -1.
        -13    1    3    3    0    0 -0.38922361503E+02 -0.30470327714E+02  0.14038034143E+02  0.51385382149E+02  0.00000000000E+00 0.  1.
         13    1    3    3    0    0 -0.40851803096E+01  0.35355646680E+02 -0.38562731578E+02  0.52476611143E+02  0.00000000000E+00 0. -1.
          1    1    1    2  501    0  0.10608278910E+02  0.18871878802E+02  0.95323245157E+02  0.97750726127E+02  0.00000000000E+00 0. -1.
<scales pt_clust_5="13000.00000" pt_clust_6="13000.00000" pt_clust_7="13000.00000" pt_clust_8="13000.00000" pt_clust_9="21.64910"></scales>
<clustering>
<clus scale="   21.649">  1  9  2 -1</clus>
<clus scale="   91.172">  7  8 -1 -1</clus>
<clus scale="   92.788">  5  6 -1 -1</clus>
<clus scale="  100.120">  2  7  1 -1</clus>
<clus scale="   21.649">  1  5  2 -1</clus>
</clustering>
</event>
<event>
 9    1  0.1601012E-005  0.1643883E+03  0.7546771E-02  0.1184073E+00
         21   -1    0    0  501  502  0.00000000000E+00  0.00000000000E+00  0.92602572496E+02  0.92602572496E+02  0.00000000000E+00 0. -1.
         -2   -1    0    0    0  501 -0.00000000000E+00 -0.00000000000E+00 -0.34986926507E+03  0.34986926507E+03  0.00000000000E+00 0.  1.
         23    2    1    2    0    0 -0.11367431255E+03  0.56561631651E+02 -0.12792100907E+03  0.20151691132E+03  0.90134418943E+02 0.  0.
         23    2    1    2    0    0  0.13664444200E+03 -0.61837208535E+02 -0.13009335819E+03  0.21737490131E+03  0.88498711757E+02 0.  0.
        -11    1    3    3    0    0 -0.34340912262E+02  0.66793147427E+02 -0.70899111957E+02  0.10328265524E+03  0.00000000000E+00 0.  1.
         11    1    3    3    0    0 -0.79333400291E+02 -0.10231515776E+02 -0.57021897116E+02  0.98234256079E+02  0.00000000000E+00 0. -1.
        -11    1    4    4    0    0  0.10770087331E+03 -0.74019686620E+02 -0.13221417077E+03  0.18590045473E+03  0.00000000000E+00 0.  1.
         11    1    4    4    0    0  0.28943568697E+02  0.12182478084E+02  0.21208125745E+01  0.31474446575E+02  0.00000000000E+00 0. -1.
         -2    1    1    2    0  502 -0.22970129449E+02  0.52755768847E+01  0.74767469315E+00  0.23580024933E+02  0.00000000000E+00 0.  1.
<scales pt_clust_5="13000.00000" pt_clust_6="13000.00000" pt_clust_7="13000.00000" pt_clust_8="13000.00000" pt_clust_9="23.56817"></scales>
<clustering>
<clus scale="   23.568">  1  9  2 -1</clus>
<clus scale="   88.499">  7  8 -1 -1</clus>
<clus scale="   90.134">  5  6 -1 -1</clus>
<clus scale="  163.497">  1  7  2 -1</clus>
<clus scale="   23.568">  1  5  2 -1</clus>
</clustering>
</event>
<event>
 9    1  0.1601012E-005  0.9695555E+02  0.7546771E-02  0.1287576E+00
          2   -1    0    0  502    0 -0.00000000000E+00  0.00000000000E+00  0.75412832603E+03  0.75412832603E+03  0.00000000000E+00 0. -1.
         21   -1    0    0  501  502  0.00000000000E+00 -0.00000000000E+00 -0.32178135871E+02  0.32178135871E+02  0.00000000000E+00 0. -1.
         23    2    1    2    0    0 -0.23032057707E+01 -0.18712679012E+02  0.27937882916E+03  0.29395242193E+03  0.89442870371E+02 0.  0.
         23    2    1    2    0    0 -0.84181317425E+02  0.87391850886E+01  0.30780973303E+03  0.33191794769E+03  0.90883577693E+02 0.  0.
        -11    1    3    3    0    0 -0.35333379980E+02 -0.29394040084E+02  0.86283242972E+02  0.97761215985E+02  0.00000000000E+00 0.  1.
         11    1    3    3    0    0  0.33030174209E+02  0.10681361072E+02  0.19309558619E+03  0.19619120594E+03  0.00000000000E+00 0. -1.
        -11    1    4    4    0    0 -0.92492871011E+02 -0.17715452646E+02  0.26150278054E+03  0.27794329040E+03  0.00000000000E+00 0. -1.
         11    1    4    4    0    0  0.83115535869E+01  0.26454637735E+02  0.46306952491E+02  0.53974657291E+02  0.00000000000E+00 0.  1.
          2    1    1    2  501    0  0.86484523195E+02  0.99734939232E+01  0.13476162796E+03  0.16043609227E+03  0.00000000000E+00 0. -1.
<scales pt_clust_5="13000.00000" pt_clust_6="13000.00000" pt_clust_7="13000.00000" pt_clust_8="13000.00000" pt_clust_9="87.05770"></scales>
<clustering>
<clus scale="   87.058">  2  9  1 -1</clus>
<clus scale="   89.443">  5  6 -1 -1</clus>
<clus scale="   90.884">  7  8 -1 -1</clus>
<clus scale="   95.606">  1  5  2 -1</clus>
<clus scale="   87.058">  2  5  1 -1</clus>
</clustering>
</event>
<event>
 9    1  0.1601012E-005  0.2597100E+03  0.7546771E-02  0.1107672E+00
          1   -1    0    0  502    0 -0.00000000000E+00  0.00000000000E+00  0.57323633855E+03  0.57323633855E+03  0.00000000000E+00 0. -1.
         21   -1    0    0  501  502  0.00000000000E+00 -0.00000000000E+00 -0.27637096389E+03  0.27637096389E+03  0.00000000000E+00 0. -1.
         23    2    1    2    0    0  0.26279017655E+03 -0.10103832468E+02  0.29719464608E+03  0.40676657579E+03  0.89295157746E+02 0.  0.
         23    2    1    2    0    0 -0.17040388652E+03  0.16354342423E+03 -0.54026897713E+02  0.25585845483E+03  0.82223519036E+02 0.  0.
        -11    1    3    3    0    0  0.83541232398E+02  0.37091897305E+02  0.82543965684E+02  0.12316027211E+03  0.00000000000E+00 0.  1.
         11    1    3    3    0    0  0.17924894415E+03 -0.47195729774E+02  0.21465068040E+03  0.28360630368E+03  0.00000000000E+00 0. -1.
        -11    1    4    4    0    0 -0.47648037577E+02  0.12050595501E+02  0.10910280194E+02  0.50344677482E+02  0.00000000000E+00 0.  1.
         11    1    4    4    0    0 -0.12275584894E+03  0.15149282873E+03 -0.64937177908E+02  0.20551377735E+03  0.00000000000E+00 0. -1.
          1    1    1    2  501    0 -0.92386290033E+02 -0.15343959176E+03  0.53697626285E+02  0.18698227182E+03  0.00000000000E+00 0. -1.
<scales pt_clust_5="13000.00000" pt_clust_6="13000.00000" pt_clust_7="13000.00000" pt_clust_8="13000.00000" pt_clust_9="179.10593"></scales>
<clustering>
<clus scale="   82.224">  7  8 -1 -1</clus>
<clus scale="   89.295">  5  6 -1 -1</clus>
<clus scale="  179.106">  2  9  1 -1</clus>
<clus scale="  257.364">  2  7  1 -1</clus>
<clus scale="  179.106">  2  5  1 -1</clus>
</clustering>
</event>
<event>
 9    1  0.1715456E-005  0.1055038E+03  0.7546771E-02  0.1269171E+00
         21   -1    0    0  501  502  0.00000000000E+00  0.00000000000E+00  0.26189527724E+03  0.26189527724E+03  0.00000000000E+00 0.  1.
         -1   -1    0    0    0  501 -0.00000000000E+00 -0.00000000000E+00 -0.21950994179E+03  0.21950994179E+03  0.00000000000E+00 0.  1.
         23    2    1    2    0    0  0.28343119463E+02  0.48824078332E+02 -0.98822826115E+02  0.14570928637E+03  0.90984186134E+02 0.  0.
         23    2    1    2    0    0 -0.63607206686E+02 -0.75919240559E+01 -0.60660405326E+02  0.12666348376E+03  0.90886958861E+02 0.  0.
        -11    1    4    4    0    0 -0.69528899074E+02  0.16763715714E+02 -0.69845448707E+02  0.99968378381E+02  0.00000000000E+00 0.  1.
         11    1    4    4    0    0  0.59216923884E+01 -0.24355639770E+02  0.91850433813E+01  0.26695105380E+02  0.00000000000E+00 0. -1.
        -13    1    3    3    0    0 -0.73046287067E+01  0.48603277358E+02 -0.98475289328E+02  0.11005916036E+03  0.00000000000E+00 0.  1.
         13    1    3    3    0    0  0.35647748170E+02  0.22080097460E+00 -0.34753678684E+00  0.35650126009E+02  0.00000000000E+00 0. -1.
         -1    1    1    2    0  502  0.35264087223E+02 -0.41232154277E+02  0.20186856689E+03  0.20903244890E+03  0.00000000000E+00 0.  1.
<scales pt_clust_5="13000.00000" pt_clust_6="13000.00000" pt_clust_7="13000.00000" pt_clust_8="13000.00000" pt_clust_9="54.25538"></scales>
<clustering>
<clus scale="   54.255">  1  9  2 -1</clus>
<clus scale="   90.887">  5  6 -1 -1</clus>
<clus scale="   90.984">  7  8 -1 -1</clus>
<clus scale="  105.420">  1  5  2 -1</clus>
<clus scale="   54.255">  1  5  2 -1</clus>
</clustering>
</event>
<event>
 9    1  0.1601012E-005  0.9480250E+02  0.7546771E-02  0.1291979E+00
         21   -1    0    0  501  502  0.00000000000E+00  0.00000000000E+00  0.32926572314E+03  0.32926572314E+03  0.00000000000E+00 0.  1.
         -1   -1    0    0    0  501 -0.00000000000E+00 -0.00000000000E+00 -0.10912046424E+03  0.10912046424E+03  0.00000000000E+00 0.  1.
         23    2    1    2    0    0  0.25731699612E+01  0.20981112284E+02 -0.51643058834E+02  0.10738257248E+03  0.91745207339E+02 0.  0.
         23    2    1    2    0    0 -0.64262619868E+02 -0.14301887367E+02  0.10806852122E+03  0.15591971489E+03  0.91092941091E+02 0.  0.
        -13    1    4    4    0    0 -0.86104286291E+02 -0.72308579146E+00  0.76324310775E+02  0.11506464003E+03  0.00000000000E+00 0.  1.
         13    1    4    4    0    0  0.21841666423E+02 -0.13578801575E+02  0.31744210449E+02  0.40855074855E+02  0.00000000000E+00 0. -1.
        -13    1    3    3    0    0 -0.62407621850E+01 -0.29755382003E+02  0.50207089805E+01  0.30814564567E+02  0.00000000000E+00 0. -1.
         13    1    3    3    0    0  0.88139321462E+01  0.50736494287E+02 -0.56663767814E+02  0.76568007910E+02  0.00000000000E+00 0.  1.
         -1    1    1    2    0  502  0.61689449907E+02 -0.66792249178E+01  0.16371979651E+03  0.17508390002E+03  0.00000000000E+00 0.  1.
<scales pt_clust_5="13000.00000" pt_clust_6="13000.00000" pt_clust_7="13000.00000" pt_clust_8="13000.00000" pt_clust_9="62.04998"></scales>
<clustering>
<clus scale="   62.050">  1  9  2 -1</clus>
<clus scale="   91.093">  5  6 -1 -1</clus>
<clus scale="   91.745">  7  8 -1 -1</clus>
<clus scale="   94.171">  1  5  2 -1</clus>
<clus scale="   62.050">  1  5  2 -1</clus>
</clustering>
</event>
<event>
 9    1  0.1601012E-005  0.1230853E+03  0.7546771E-02  0.1238835E+00
         21   -1    0    0  501  502  0.00000000000E+00  0.00000000000E+00  0.94669139368E+03  0.94669139368E+03  0.00000000000E+00 0. -1.
         -1   -1    0    0    0  501 -0.00000000000E+00 -0.00000000000E+00 -0.10947011939E+03  0.10947011939E+03  0.00000000000E+00 0.  1.
         23    2    1    2    0    0  0.64991890981E+02  0.49087252093E+02 -0.53973319317E+02  0.13288913716E+03  0.90071634640E+02 0.  0.
         23    2    1    2    0    0 -0.99178330566E+01 -0.11040295328E+03  0.40120988304E+03  0.42640440183E+03  0.92542790909E+02 0.  0.
        -11    1    4    4    0    0 -0.16392782521E+02  0.12770430735E+02  0.67676711129E+02  0.70795087747E+02  0.00000000000E+00 0.  1.
         11    1    4    4    0    0  0.64749494640E+01 -0.12317338402E+03  0.33353317191E+03  0.35560931408E+03  0.00000000000E+00 0. -1.
        -13    1    3    3    0    0  0.48016953690E+01  0.29466449375E+02  0.19687167805E+02  0.35761886043E+02  0.00000000000E+00 0. -1.
         13    1    3    3    0    0  0.60190195612E+02  0.19620802718E+02 -0.73660487122E+02  0.97127251121E+02  0.00000000000E+00 0.  1.
         -1    1    1    2    0  502 -0.55074057924E+02  0.61315701191E+02  0.48998471057E+03  0.49686797407E+03  0.00000000000E+00 0.  1.
<scales pt_clust_5="13000.00000" pt_clust_6="13000.00000" pt_clust_7="13000.00000" pt_clust_8="13000.00000" pt_clust_9="82.41824"></scales>
<clustering>
<clus scale="   82.418">  1  9  2 -1</clus>
<clus scale="   90.072">  7  8 -1 -1</clus>
<clus scale="   92.543">  5  6 -1 -1</clus>
<clus scale="  121.238">  2  7  1 -1</clus>
<clus scale="   82.418">  1  5  2 -1</clus>
</clustering>
</event>
<event>
 9    1  0.1601012E-005  0.9419716E+02  0.7546771E-02  0.1293728E+00
         21   -1    0    0  501  502  0.00000000000E+00  0.00000000000E+00  0.56781821787E+03  0.56781821787E+03  0.00000000000E+00 0. -1.
          1   -1    0    0  502    0 -0.00000000000E+00 -0.00000000000E+00 -0.14573467608E+03  0.14573467608E+03  0.00000000000E+00 0. -1.
         23    2    1    2    0    0  0.41101367107E+02  0.31529429027E+02 -0.60076300152E+02  0.12114093858E+03  0.91556200703E+02 0.  0.
         23    2    1    2    0    0  0.72674716314E+01  0.26170137100E+02 -0.97785605483E+01  0.94745223162E+02  0.90240483409E+02 0.  0.
        -11    1    4    4    0    0 -0.28507678365E+02 -0.10693837538E+02  0.18974909974E+02  0.35876079713E+02  0.00000000000E+00 0.  1.
         11    1    4    4    0    0  0.35775149996E+02  0.36863974638E+02 -0.28753470523E+02  0.58869143449E+02  0.00000000000E+00 0. -1.
        -13    1    3    3    0    0  0.57679059024E+02  0.21641644742E+01 -0.68405093624E+01  0.58123575476E+02  0.00000000000E+00 0.  1.
         13    1    3    3    0    0 -0.16577691917E+02  0.29365264552E+02 -0.53235790790E+02  0.63017363104E+02  0.00000000000E+00 0. -1.
          1    1    1    2  501    0 -0.48368838738E+02 -0.57699566127E+02  0.49193840249E+03  0.49766673220E+03  0.00000000000E+00 0. -1.
<scales pt_clust_5="13000.00000" pt_clust_6="13000.00000" pt_clust_7="13000.00000" pt_clust_8="13000.00000" pt_clust_9="75.29133"></scales>
<clustering>
<clus scale="   75.291">  1  9  2 -1</clus>
<clus scale="   90.240">  5  6 -1 -1</clus>
<clus scale="   91.556">  7  8 -1 -1</clus>
<clus scale="   92.919">  1  5  2 -1</clus>
<clus scale="   75.291">  1  5  2 -1</clus>
</clustering>
</event>
<event>
 9    1  0.1601012E-005  0.9406156E+02  0.7546771E-02  0.1293630E+00
         21   -1    0    0  501  502  0.00000000000E+00  0.00000000000E+00  0.44368659214E+02  0.44368659214E+02  0.00000000000E+00 0. -1.
         -2   -1    0    0    0  501 -0.00000000000E+00 -0.00000000000E+00 -0.33558400027E+03  0.33558400027E+03  0.00000000000E+00 0.  1.
         23    2    1    2    0    0 -0.16189797842E+02  0.19092891022E+02 -0.21192990085E+03  0.23208827879E+03  0.91236167374E+02 0.  0.
         23    2    1    2    0    0  0.19092827918E+02  0.62141223106E+01 -0.78367775913E+02  0.12237488059E+03  0.91820214033E+02 0.  0.
        -11    1    3    3    0    0  0.24128388553E+02  0.10179167353E+02 -0.13605784300E+02  0.29511217335E+02  0.00000000000E+00 0.  1.
         11    1    3    3    0    0 -0.40318186395E+02  0.89137236687E+01 -0.19832411655E+03  0.20257706146E+03  0.00000000000E+00 0. -1.
        -13    1    4    4    0    0 -0.10329971940E+02 -0.20494150696E+02  0.10341088027E+02  0.25172537310E+02  0.00000000000E+00 0. -1.
         13    1    4    4    0    0  0.29422799859E+02  0.26708273007E+02 -0.88708863940E+02  0.97202343285E+02  0.00000000000E+00 0.  1.
         -2    1    1    2    0  502 -0.29030300763E+01 -0.25307013332E+02 -0.91766429327E+00  0.25489500097E+02  0.00000000000E+00 0.  1.
<scales pt_clust_5="13000.00000" pt_clust_6="13000.00000" pt_clust_7="13000.00000" pt_clust_8="13000.00000" pt_clust_9="25.47298"></scales>
<clustering>
<clus scale="   25.473">  1  9  2 -1</clus>
<clus scale="   91.236">  5  6 -1 -1</clus>
<clus scale="   91.820">  7  8 -1 -1</clus>
<clus scale="   93.492">  2  5  1 -1</clus>
<clus scale="   25.473">  1  5  2 -1</clus>
</clustering>
</event>
<event>
 9    1  0.1601012E-005  0.1968878E+03  0.7546771E-02  0.1152710E+00
          1   -1    0    0  502    0 -0.00000000000E+00  0.00000000000E+00  0.67866286135E+03  0.67866286135E+03  0.00000000000E+00 0. -1.
         21   -1    0    0  501  502  0.00000000000E+00 -0.00000000000E+00 -0.11533349738E+03  0.11533349738E+03  0.00000000000E+00 0. -1.
         23    2    1    2    0    0 -0.15712616145E+03 -0.11029852523E+03  0.41010024919E+03  0.46194502560E+03  0.91414424531E+02 0.  0.
         23    2    1    2    0    0  0.14796423211E+03  0.45880851707E+02  0.18732922962E+03  0.25859117085E+03  0.88196864090E+02 0.  0.
        -13    1    3    3    0    0 -0.20691411036E+02 -0.63667275651E+02  0.10557423062E+03  0.12501029817E+03  0.00000000000E+00 0.  1.
         13    1    3    3    0    0 -0.13643475042E+03 -0.46631249580E+02  0.30452601857E+03  0.33693472743E+03  0.00000000000E+00 0. -1.
        -13    1    4    4    0    0  0.11440306458E+03  0.72266452741E+02  0.14815666861E+03  0.20065118946E+03  0.00000000000E+00 0. -1.
         13    1    4    4    0    0  0.33561167525E+02 -0.26385601034E+02  0.39172561005E+02  0.57939981388E+02  0.00000000000E+00 0.  1.
          1    1    1    2  501    0  0.91619293455E+01  0.64417673524E+02 -0.34100114829E+02  0.73460162285E+02  0.00000000000E+00 0. -1.
<scales pt_clust_5="13000.00000" pt_clust_6="13000.00000" pt_clust_7="13000.00000" pt_clust_8="13000.00000" pt_clust_9="65.06595"></scales>
<clustering>
<clus scale="   65.066">  2  9  1 -1</clus>
<clus scale="   88.197">  7  8 -1 -1</clus>
<clus scale="   91.414">  5  6 -1 -1</clus>
<clus scale="  195.415">  2  7  1 -1</clus>
<clus scale="   65.066">  2  5  1 -1</clus>
</clustering>
</event>
<event>
 9    1  0.1601012E-005  0.1274691E+03  0.7546771E-02  0.1231484E+00
         21   -1    0    0  501  502  0.00000000000E+00  0.00000000000E+00  0.72573218752E+02  0.72573218752E+02  0.00000000000E+00 0. -1.
          2   -1    0    0  502    0 -0.00000000000E+00 -0.00000000000E+00 -0.50603881913E+03  0.50603881913E+03  0.00000000000E+00 0. -1.
         23    2    1    2    0    0 -0.82151117297E+02  0.14654049893E+02 -0.31318863418E+03  0.33655764910E+03  0.90666329656E+02 0.  0.
         23    2    1    2    0    0  0.10485157527E+03  0.18960480943E+02 -0.13880844152E+03  0.19745996028E+03  0.91483877276E+02 0.  0.
        -11    1    4    4    0    0  0.38960507151E+02 -0.62146582748E+01  0.24923593263E+01  0.39531695511E+02  0.00000000000E+00 0.  1.
         11    1    4    4    0    0  0.65891068123E+02  0.25175139217E+02 -0.14130080085E+03  0.15792826477E+03  0.00000000000E+00 0. -1.
        -13    1    3    3    0    0 -0.45269666840E+01 -0.26117605422E+02 -0.13946117965E+03  0.14195789295E+03  0.00000000000E+00 0.  1.
         13    1    3    3    0    0 -0.77624150613E+02  0.40771655315E+02 -0.17372745453E+03  0.19459975615E+03  0.00000000000E+00 0. -1.
          2    1    1    2  501    0 -0.22700457977E+02 -0.33614530835E+02  0.18531475328E+02  0.44594428503E+02  0.00000000000E+00 0. -1.
<scales pt_clust_5="13000.00000" pt_clust_6="13000.00000" pt_clust_7="13000.00000" pt_clust_8="13000.00000" pt_clust_9="40.56165"></scales>
<clustering>
<clus scale="   40.562">  1  9  2 -1</clus>
<clus scale="   90.666">  7  8 -1 -1</clus>
<clus scale="   91.484">  5  6 -1 -1</clus>
<clus scale="  126.884">  2  7  1 -1</clus>
<clus scale="   40.562">  1  5  2 -1</clus>
</clustering>
</event>
<event>
 9    1  0.1601012E-005  0.2059579E+03  0.7546771E-02  0.1145084E+00
          1   -1    0    0  502    0 -0.00000000000E+00  0.00000000000E+00  0.74078528079E+03  0.74078528079E+03  0.00000000000E+00 0. -1.
         21   -1    0    0  501  502  0.00000000000E+00 -0.00000000000E+00 -0.36734790444E+03  0.36734790444E+03  0.00000000000E+00 0. -1.
         23    2    1    2    0    0 -0.79759662115E+02 -0.19478400279E+03  0.63781491079E+03  0.67797174887E+03  0.92387338933E+02 0.  0.
         23    2    1    2    0    0  0.58496130599E+02  0.83422100992E+02  0.73860497312E+01  0.13569742052E+03  0.89320725349E+02 0.  0.
        -13    1    4    4    0    0  0.56148904766E+02  0.43518539943E+01  0.86389849307E+00  0.56323924403E+02  0.00000000000E+00 0.  1.
         13    1    4    4    0    0  0.23472258327E+01  0.79070246998E+02  0.65221512381E+01  0.79373496119E+02  0.00000000000E+00 0. -1.
        -13    1    3    3    0    0 -0.84815677174E+02 -0.95950763375E+02  0.41146680519E+03  0.43093523859E+03  0.00000000000E+00 0.  1.
         13    1    3    3    0    0  0.50560150589E+01 -0.98833239412E+02  0.22634810560E+03  0.24703651027E+03  0.00000000000E+00 0. -1.
          1    1    1    2  501    0  0.21263531516E+02  0.11136190179E+03 -0.27176358418E+03  0.29446401585E+03  0.00000000000E+00 0. -1.
<scales pt_clust_5="13000.00000" pt_clust_6="13000.00000" pt_clust_7="13000.00000" pt_clust_8="13000.00000" pt_clust_9="113.37377"></scales>
<clustering>
<clus scale="   89.321">  5  6 -1 -1</clus>
<clus scale="   92.387">  7  8 -1 -1</clus>
<clus scale="  113.374">  2  9  1 -1</clus>
<clus scale="  204.601">  2  5  1 -1</clus>
<clus scale="  113.374">  2  5  1 -1</clus>
</clustering>
</event>
<event>
 9    1  0.1601012E-005  0.1173416E+03  0.7546771E-02  0.1247763E+00
         -3   -1    0    0    0  501 -0.00000000000E+00  0.00000000000E+00  0.20810083492E+03  0.20810083492E+03  0.00000000000E+00 0.  1.
         21   -1    0    0  501  502  0.00000000000E+00 -0.00000000000E+00 -0.10774373349E+03  0.10774373349E+03  0.00000000000E+00 0. -1.
         23    2    1    2    0    0  0.59510141128E+02  0.59436429412E+02  0.10545710734E+03  0.16329323773E+03  0.92028984350E+02 0.  0.
         23    2    1    2    0    0 -0.40751990913E+02 -0.38917557156E+02  0.26378130842E+02  0.11055412350E+03  0.91384393732E+02 0.  0.
        -13    1    4    4    0    0  0.25570293309E+02  0.25012371395E+01  0.19117596794E+02  0.32024656037E+02  0.00000000000E+00 0. -1.
         13    1    4    4    0    0 -0.66322284222E+02 -0.41418794296E+02  0.72605340483E+01  0.78529467462E+02  0.00000000000E+00 0.  1.
        -13    1    3    3    0    0  0.23082180779E+02  0.93652904480E+01 -0.14121287511E+02  0.28634009423E+02  0.00000000000E+00 0. -1.
         13    1    3    3    0    0  0.36427960349E+02  0.50071138964E+02  0.11957839485E+03  0.13465922830E+03  0.00000000000E+00 0.  1.
         -3    1    1    2    0  502 -0.18758150216E+02 -0.20518872256E+02 -0.31478136753E+02  0.41997207188E+02  0.00000000000E+00 0.  1.
<scales pt_clust_5="13000.00000" pt_clust_6="13000.00000" pt_clust_7="13000.00000" pt_clust_8="13000.00000" pt_clust_9="27.80094"></scales>
<clustering>
<clus scale="   27.801">  2  9  1 -1</clus>
<clus scale="   91.384">  5  6 -1 -1</clus>
<clus scale="   92.029">  7  8 -1 -1</clus>
<clus scale="  116.837">  2  5  1 -1</clus>
<clus scale="   27.801">  2  5  1 -1</clus>
</clustering>
</event>
<event>
 9    1  0.1601012E-005  0.9579150E+02  0.7546771E-02  0.1290326E+00
         21   -1    0    0  501  502  0.00000000000E+00  0.00000000000E+00  0.24784526904E+03  0.24784526904E+03  0.00000000000E+00 0. -1.
          2   -1    0    0  502    0 -0.00000000000E+00 -0.00000000000E+00 -0.28111984019E+03  0.28111984019E+03  0.00000000000E+00 0. -1.
         23    2    1    2    0    0  0.84068437295E+01 -0.25351851769E+02 -0.22562613881E+03  0.24541622223E+03  0.92782413262E+02 0.  0.
         23    2    1    2    0    0  0.17029904385E+02  0.14018064579E+02  0.46945565656E+01  0.93836903453E+02  0.91086781754E+02 0.  0.
        -11    1    4    4    0    0  0.51300332470E+02  0.55160061697E+00 -0.13088069271E+02  0.52946443998E+02  0.00000000000E+00 0. -1.
         11    1    4    4    0    0 -0.34270428085E+02  0.13466463962E+02  0.17782625837E+02  0.40890459455E+02  0.00000000000E+00 0.  1.
        -11    1    3    3    0    0  0.39416660290E+02  0.78241281690E+01 -0.50716109520E+02  0.64707139134E+02  0.00000000000E+00 0.  1.
         11    1    3    3    0    0 -0.31009816561E+02 -0.33175979938E+02 -0.17491002929E+03  0.18070908310E+03  0.00000000000E+00 0. -1.
          2    1    1    2  501    0 -0.25436748114E+02  0.11333787190E+02  0.18765701110E+03  0.18971198355E+03  0.00000000000E+00 0. -1.
<scales pt_clust_5="13000.00000" pt_clust_6="13000.00000" pt_clust_7="13000.00000" pt_clust_8="13000.00000" pt_clust_9="27.84749"></scales>
<clustering>
<clus scale="   27.847">  1  9  2 -1</clus>
<clus scale="   91.087">  5  6 -1 -1</clus>
<clus scale="   92.782">  7  8 -1 -1</clus>
<clus scale="   94.150">  1  5  2 -1</clus>
<clus scale="   27.847">  1  5  2 -1</clus>
</clustering>
</event>
<event>
 9    1  0.1601012E-005  0.1174848E+03  0.7546771E-02  0.1247335E+00
          3   -1    0    0  502    0 -0.00000000000E+00  0.00000000000E+00  0.33748787071E+03  0.33748787071E+03  0.00000000000E+00 0. -1.
         21   -1    0    0  501  502  0.00000000000E+00 -0.00000000000E+00 -0.10525010101E+03  0.10525010101E+03  0.00000000000E+00 0. -1.
         23    2    1    2    0    0 -0.95494841846E+01  0.68901500937E+02  0.19688384709E+03  0.22804047898E+03  0.91654794349E+02 0.  0.
         23    2    1    2    0    0 -0.48709207308E+02 -0.85153215512E+02  0.62941432846E+02  0.14821994705E+03  0.91563484779E+02 0.  0.
        -11    1    4    4    0    0  0.19737510755E+02 -0.52612256394E+02  0.40205240710E+02  0.69094719294E+02  0.00000000000E+00 0.  1.
         11    1    4    4    0    0 -0.68446718063E+02 -0.32540959117E+02  0.22736192136E+02  0.79125227752E+02  0.00000000000E+00 0. -1.
        -13    1    3    3    0    0  0.26405782995E+02  0.36733113054E+01  0.11192318057E+03  0.11505458244E+03  0.00000000000E+00 0.  1.
         13    1    3    3    0    0 -0.35955267179E+02  0.65228189631E+02  0.84960666522E+02  0.11298589654E+03  0.00000000000E+00 0. -1.
          3    1    1    2  501    0  0.58258691493E+02  0.16251714575E+02 -0.27587510237E+02  0.66477545699E+02  0.00000000000E+00 0. -1.
<scales pt_clust_5="13000.00000" pt_clust_6="13000.00000" pt_clust_7="13000.00000" pt_clust_8="13000.00000" pt_clust_9="60.48300"></scales>
<clustering>
<clus scale="   60.483">  2  9  1 -1</clus>
<clus scale="   91.563">  5  6 -1 -1</clus>
<clus scale="   91.655">  7  8 -1 -1</clus>
<clus scale="  117.414">  2  5  1 -1</clus>
<clus scale="   60.483">  2  5  1 -1</clus>
</clustering>
</event>
<event>
 9    1  0.1601012E-005  0.1225807E+03  0.7546771E-02  0.1240215E+00
         21   -1    0    0  501  502  0.00000000000E+00  0.00000000000E+00  0.94064784721E+02  0.94064784721E+02  0.00000000000E+00 0. -1.
          1   -1    0    0  502    0 -0.00000000000E+00 -0.00000000000E+00 -0.52794625334E+03  0.52794625334E+03  0.00000000000E+00 0. -1.
         23    2    1    2    0    0  0.15299271315E+02  0.80637514306E+02 -0.24983439672E+03  0.27847169735E+03  0.91612139064E+02 0.  0.
         23    2    1    2    0    0  0.71209298262E+02 -0.76023819759E+02 -0.21261277267E+03  0.25231972633E+03  0.87239141804E+02 0.  0.
        -11    1    3    3    0    0  0.31721325263E+02  0.23561758869E+02 -0.26999291939E+02  0.47857713304E+02  0.00000000000E+00 0.  1.
         11    1    3    3    0    0 -0.16422053949E+02  0.57075755438E+02 -0.22283510478E+03  0.23061398405E+03  0.00000000000E+00 0. -1.
        -11    1    4    4    0    0 -0.14068962547E+02 -0.18599225805E+02 -0.10530713992E+02  0.25588334155E+02  0.00000000000E+00 0.  1.
         11    1    4    4    0    0  0.85278260809E+02 -0.57424593954E+02 -0.20208205867E+03  0.22673139217E+03  0.00000000000E+00 0. -1.
          1    1    1    2  501    0 -0.86508569577E+02 -0.46136945476E+01  0.28565700771E+02  0.91219614383E+02  0.00000000000E+00 0. -1.
<scales pt_clust_5="13000.00000" pt_clust_6="13000.00000" pt_clust_7="13000.00000" pt_clust_8="13000.00000" pt_clust_9="86.63151"></scales>
<clustering>
<clus scale="   86.632">  1  9  2 -1</clus>
<clus scale="   87.239">  7  8 -1 -1</clus>
<clus scale="   91.612">  5  6 -1 -1</clus>
<clus scale="  119.348">  1  7  2 -1</clus>
<clus scale="   86.632">  1  5  2 -1</clus>
</clustering>
</event>
<event>
 9    1  0.1601012E-005  0.9652428E+02  0.7546771E-02  0.1288570E+00
          3   -1    0    0  502    0 -0.00000000000E+00  0.00000000000E+00  0.40187111742E+03  0.40187111742E+03  0.00000000000E+00 0. -1.
         21   -1    0    0  501  502  0.00000000000E+00 -0.00000000000E+00 -0.37508552298E+02  0.37508552298E+02  0.00000000000E+00 0. -1.
         23    2    1    2    0    0  0.21042568949E+02 -0.10021191372E+02  0.17809406209E+03  0.20039665283E+03  0.88871308817E+02 0.  0.
         23    2    1    2    0    0 -0.35028388322E+02  0.30886853657E+02  0.18804074349E+03  0.21380128060E+03  0.90391817425E+02 0.  0.
        -13    1    4    4    0    0 -0.57801350918E+02 -0.31733349170E+01  0.84294836083E+02  0.10225793667E+03  0.00000000000E+00 0.  1.
         13    1    4    4    0    0  0.22772962595E+02  0.34060188574E+02  0.10374590741E+03  0.11154334393E+03  0.00000000000E+00 0. -1.
        -13    1    3    3    0    0  0.42322690727E+02  0.16970232021E+02  0.14748055094E+03  0.15436875276E+03  0.00000000000E+00 0. -1.
         13    1    3    3    0    0 -0.21280121778E+02 -0.26991423393E+02  0.30613511150E+02  0.46027900067E+02  0.00000000000E+00 0.  1.
          3    1    1    2  501    0  0.13985819374E+02 -0.20865662285E+02 -0.17722404533E+01  0.25181736286E+02  0.00000000000E+00 0. -1.
<scales pt_clust_5="13000.00000" pt_clust_6="13000.00000" pt_clust_7="13000.00000" pt_clust_8="13000.00000" pt_clust_9="25.11930"></scales>
<clustering>
<clus scale="   25.119">  2  9  1 -1</clus>
<clus scale="   88.871">  7  8 -1 -1</clus>
<clus scale="   90.392">  5  6 -1 -1</clus>
<clus scale="   95.102">  1  7  2 -1</clus>
<clus scale="   25.119">  2  5  1 -1</clus>
</clustering>
</event>
<event>
 9    1  0.1601012E-005  0.1871025E+03  0.7546771E-02  0.1161412E+00
         -3   -1    0    0    0  501 -0.00000000000E+00  0.00000000000E+00  0.37018088429E+03  0.37018088429E+03  0.00000000000E+00 0.  1.
         21   -1    0    0  501  502  0.00000000000E+00 -0.00000000000E+00 -0.34029773606E+03  0.34029773606E+03  0.00000000000E+00 0. -1.
         23    2    1    2    0    0 -0.13038286410E+03  0.90487363776E+02  0.28087436261E+03  0.33526098309E+03  0.91224256421E+02 0.  0.
         23    2    1    2    0    0  0.15804433612E+03 -0.11866672548E+03 -0.14106522532E+03  0.25841456995E+03  0.88424477696E+02 0.  0.
        -11    1    3    3    0    0 -0.12056049999E+03  0.68306632094E+02  0.15860779630E+03  0.21061116588E+03  0.00000000000E+00 0.  1.
         11    1    3    3    0    0 -0.98223641108E+01  0.22180731682E+02  0.12226656631E+03  0.12464981721E+03  0.00000000000E+00 0. -1.
        -11    1    4    4    0    0  0.47155803683E+01 -0.24998088244E+02  0.61025128045E+01  0.26160691440E+02  0.00000000000E+00 0.  1.
         11    1    4    4    0    0  0.15332875575E+03 -0.93668637238E+02 -0.14716773812E+03  0.23225387851E+03  0.00000000000E+00 0. -1.
         -3    1    1    2    0  502 -0.27661472018E+02  0.28179361706E+02 -0.10992598906E+03  0.11680306730E+03  0.00000000000E+00 0.  1.
<scales pt_clust_5="13000.00000" pt_clust_6="13000.00000" pt_clust_7="13000.00000" pt_clust_8="13000.00000" pt_clust_9="39.48713"></scales>
<clustering>
<clus scale="   39.487">  2  9  1 -1</clus>
<clus scale="   88.424">  7  8 -1 -1</clus>
<clus scale="   91.224">  5  6 -1 -1</clus>
<clus scale="  185.754">  2  7  1 -1</clus>
<clus scale="   39.487">  2  5  1 -1</clus>
</clustering>
</event>
<event>
 9    1  0.1601012E-005  0.9454036E+02  0.7546771E-02  0.1293573E+00
         21   -1    0    0  501  502  0.00000000000E+00  0.00000000000E+00  0.57643096380E+02  0.57643096380E+02  0.00000000000E+00 0.  1.
          4   -1    0    0  502    0 -0.00000000000E+00 -0.00000000000E+00 -0.27851995753E+03  0.27851995753E+03  0.00000000000E+00 0. -1.
         23    2    1    2    0    0 -0.11960647268E+02 -0.80196496287E+01 -0.15057185348E+03  0.17806588132E+03  0.93958518323E+02 0.  0.
         23    2    1    2    0    0 -0.25677951994E+02  0.14407313751E+02 -0.71569995282E+02  0.11989944228E+03  0.91578841037E+02 0.  0.
        -11    1    4    4    0    0  0.31849267662E+02  0.13767566794E+02 -0.44193570577E+02  0.56187128654E+02  0.00000000000E+00 0. -1.
         11    1    4    4    0    0 -0.57527219657E+02  0.63974695723E+00 -0.27376424705E+02  0.63712313623E+02  0.00000000000E+00 0.  1.
        -13    1    3    3    0    0 -0.23160848210E+02 -0.35609284169E+02 -0.25601679554E+02  0.49597298362E+02  0.00000000000E+00 0.  1.
         13    1    3    3    0    0  0.11200200942E+02  0.27589634540E+02 -0.12497017393E+03  0.12846858296E+03  0.00000000000E+00 0. -1.
          4    1    1    2  501    0  0.37638599262E+02 -0.63876641226E+01  0.12649876157E+01  0.38197730312E+02  0.00000000000E+00 0. -1.
<scales pt_clust_5="13000.00000" pt_clust_6="13000.00000" pt_clust_7="13000.00000" pt_clust_8="13000.00000" pt_clust_9="38.17678"></scales>
<clustering>
<clus scale="   38.177">  1  9  2 -1</clus>
<clus scale="   91.579">  5  6 -1 -1</clus>
<clus scale="   92.176">  1  5  2 -1</clus>
<clus scale="   93.959">  7  8 -1 -1</clus>
<clus scale="   38.177">  1  5  2 -1</clus>
</clustering>
</event>
<event>
 9    1  0.1601012E-005  0.1541674E+03  0.7546771E-02  0.1195784E+00
         21   -1    0    0  501  502  0.00000000000E+00  0.00000000000E+00  0.63401354509E+03  0.63401354509E+03  0.00000000000E+00 0.  1.
          1   -1    0    0  502    0 -0.00000000000E+00 -0.00000000000E+00 -0.12679677525E+03  0.12679677525E+03  0.00000000000E+00 0. -1.
         23    2    1    2    0    0 -0.11953564122E+03  0.20768977927E+02 -0.13797867816E+02  0.15168385503E+03  0.89986058676E+02 0.  0.
         23    2    1    2    0    0  0.15459600995E+03 -0.22560641521E+02  0.54015493199E+03  0.56914158840E+03  0.88010728057E+02 0.  0.
        -11    1    3    3    0    0 -0.25385703427E+02  0.20674260191E+02  0.33051556721E+02  0.46521654900E+02  0.00000000000E+00 0.  1.
         11    1    3    3    0    0 -0.94149937792E+02  0.94717735355E-01 -0.46849424537E+02  0.10516220013E+03  0.00000000000E+00 0. -1.
        -13    1    4    4    0    0  0.41021897650E+02  0.32854837594E+02  0.17620031408E+03  0.18387165937E+03  0.00000000000E+00 0. -1.
         13    1    4    4    0    0  0.11357411230E+03 -0.55415479115E+02  0.36395461791E+03  0.38526992902E+03  0.00000000000E+00 0.  1.
          1    1    1    2  501    0 -0.35060368727E+02  0.17916635941E+01 -0.19140294333E+02  0.39984876901E+02  0.00000000000E+00 0. -1.
<scales pt_clust_5="13000.00000" pt_clust_6="13000.00000" pt_clust_7="13000.00000" pt_clust_8="13000.00000" pt_clust_9="35.10614"></scales>
<clustering>
<clus scale="   35.106">  1  9  2 -1</clus>
<clus scale="   88.011">  7  8 -1 -1</clus>
<clus scale="   89.986">  5  6 -1 -1</clus>
<clus scale="  153.023">  1  7  2 -1</clus>
<clus scale="   35.106">  1  5  2 -1</clus>
</clustering>
</event>
<event>
 9    1  0.1601012E-005  0.9237059E+02  0.7546771E-02  0.1298719E+00
          1   -1    0    0  502    0 -0.00000000000E+00  0.00000000000E+00  0.30485719172E+03  0.30485719172E+03  0.00000000000E+00 0. -1.
         21   -1    0    0  501  502  0.00000000000E+00 -0.00000000000E+00 -0.54431752250E+02  0.54431752250E+02  0.00000000000E+00 0.  1.
         23    2    1    2    0    0  0.23514753389E+01 -0.61175021673E+01  0.15985249096E+03  0.18336119460E+03  0.89585465063E+02 0.  0.
         23    2    1    2    0    0  0.19073008949E+02 -0.40988121529E+01  0.11032054897E+03  0.14505139387E+03  0.92134159826E+02 0.  0.
        -11    1    3    3    0    0  0.28248693479E+01  0.41224998562E+02  0.59992942658E+02  0.72846644137E+02  0.00000000000E+00 0. -1.
         11    1    3    3    0    0 -0.47339400895E+00 -0.47342500730E+02  0.99859548303E+02  0.11051455046E+03  0.00000000000E+00 0.  1.
        -13    1    4    4    0    0  0.22604969780E+02 -0.44854934108E+02  0.78628785805E+02  0.93302924551E+02  0.00000000000E+00 0.  1.
         13    1    4    4    0    0 -0.35319608314E+01  0.40756121956E+02  0.31691763161E+02  0.51748469315E+02  0.00000000000E+00 0. -1.
          1    1    1    2  501    0 -0.21424484288E+02  0.10216314320E+02 -0.19747600456E+02  0.30876355502E+02  0.00000000000E+00 0. -1.
<scales pt_clust_5="13000.00000" pt_clust_6="13000.00000" pt_clust_7="13000.00000" pt_clust_8="13000.00000" pt_clust_9="23.73566"></scales>
<clustering>
<clus scale="   23.736">  2  9  1 -1</clus>
<clus scale="   89.585">  5  6 -1 -1</clus>
<clus scale="   89.829">  1  5  2 -1</clus>
<clus scale="   92.134">  7  8 -1 -1</clus>
<clus scale="   23.736">  2  5  1 -1</clus>
</clustering>
</event>
<event>
 9    1  0.1601012E-005  0.2485341E+03  0.7546771E-02  0.1114276E+00
         21   -1    0    0  501  502  0.00000000000E+00  0.00000000000E+00  0.45447983372E+03  0.45447983372E+03  0.00000000000E+00 0. -1.
          1   -1    0    0  502    0 -0.00000000000E+00 -0.00000000000E+00 -0.22560673747E+03  0.22560673747E+03  0.00000000000E+00 0. -1.
         23    2    1    2    0    0 -0.82316080757E+02  0.21149824748E+03 -0.31118444273E+02  0.24647419566E+03  0.90960022626E+02 0.  0.
         23    2    1    2    0    0  0.78211997826E+02 -0.23253828720E+03  0.29400135823E+03  0.39341045432E+03  0.90243090090E+02 0.  0.
        -11    1    4    4    0    0  0.71829848266E+02 -0.91464698308E+02  0.99527563310E+02  0.15307205492E+03  0.00000000000E+00 0. -1.
         11    1    4    4    0    0  0.63821495598E+01 -0.14107358889E+03  0.19447379493E+03  0.24033839940E+03  0.00000000000E+00 0.  1.
        -13    1    3    3    0    0  0.13904910519E+02  0.46882506800E+02 -0.26772162484E+02  0.55750019412E+02  0.00000000000E+00 0.  1.
         13    1    3    3    0    0 -0.96220991276E+02  0.16461574068E+03 -0.43462817889E+01  0.19072417625E+03  0.00000000000E+00 0. -1.
          1    1    1    2  501    0  0.41040829307E+01  0.21040039723E+02 -0.34009817712E+02  0.40201921210E+02  0.00000000000E+00 0. -1.
<scales pt_clust_5="13000.00000" pt_clust_6="13000.00000" pt_clust_7="13000.00000" pt_clust_8="13000.00000" pt_clust_9="21.43659"></scales>
<clustering>
<clus scale="   21.437">  1  9  2 -1</clus>
<clus scale="   90.243">  5  6 -1 -1</clus>
<clus scale="   90.960">  7  8 -1 -1</clus>
<clus scale="  248.273">  1  5  2 -1</clus>
<clus scale="   21.437">  1  5  2 -1</clus>
</clustering>
</event>
<event>
 9    1  0.1601012E-005  0.9767556E+02  0.7546771E-02  0.1287261E+00
         21   -1    0    0  501  502  0.00000000000E+00  0.00000000000E+00  0.19048511311E+03  0.19048511311E+03  0.00000000000E+00 0. -1.
         -1   -1    0    0    0  501 -0.00000000000E+00 -0.00000000000E+00 -0.92203158958E+02  0.92203158958E+02  0.00000000000E+00 0.  1.
         23    2    1    2    0    0 -0.21011164418E+01  0.39429633976E+02  0.23107491358E+02  0.99401930314E+02  0.88247815086E+02 0.  0.
         23    2    1    2    0    0  0.50589151950E+02 -0.18104495994E+01  0.55497745886E+02  0.11883895384E+03  0.92087768620E+02 0.  0.
        -11    1    3    3    0    0 -0.37751980918E+02  0.16115090833E+01  0.28244224201E+02  0.47175684684E+02  0.00000000000E+00 0.  1.
         11    1    3    3    0    0  0.35650864476E+02  0.37818124892E+02 -0.51367328427E+01  0.52226245629E+02  0.00000000000E+00 0. -1.
        -13    1    4    4    0    0 -0.18922578810E+02 -0.19219129628E+02 -0.18842226326E+01  0.27036812449E+02  0.00000000000E+00 0.  1.
         13    1    4    4    0    0  0.69511730760E+02  0.17408680028E+02  0.57381968518E+02  0.91802141394E+02  0.00000000000E+00 0. -1.
         -1    1    1    2    0  502 -0.48488035508E+02 -0.37619184376E+02  0.19676716910E+02  0.64447387914E+02  0.00000000000E+00 0.  1.
<scales pt_clust_5="13000.00000" pt_clust_6="13000.00000" pt_clust_7="13000.00000" pt_clust_8="13000.00000" pt_clust_9="61.37016"></scales>
<clustering>
<clus scale="   61.370">  1  9  2 -1</clus>
<clus scale="   88.248">  5  6 -1 -1</clus>
<clus scale="   92.088">  7  8 -1 -1</clus>
<clus scale="   94.064">  2  5  1 -1</clus>
<clus scale="   61.370">  1  5  2 -1</clus>
</clustering>
</event>
<event>
 9    1  0.1601012E-005  0.1060154E+03  0.7546771E-02  0.1274157E+00
         21   -1    0    0  501  502  0.00000000000E+00  0.00000000000E+00  0.60854139247E+02  0.60854139247E+02  0.00000000000E+00 0.  1.
          2   -1    0    0  502    0 -0.00000000000E+00 -0.00000000000E+00 -0.26754479778E+03  0.26754479778E+03  0.00000000000E+00 0. -1.
         23    2    1    2    0    0  0.13051795775E+02  0.46049013635E+01 -0.15244110952E+03  0.18517464900E+03  0.10421038465E+03 0.  0.
         23    2    1    2    0    0 -0.35123454253E+02  0.92538416924E+01 -0.21783368165E+02  0.10159165941E+03  0.92342078754E+02 0.  0.
        -13    1    3    3    0    0 -0.44858312351E+02 -0.78122080864E+01 -0.58678210337E+02  0.74272681051E+02  0.00000000000E+00 0.  1.
         13    1    3    3    0    0  0.57910108126E+02  0.12417109450E+02 -0.93762899186E+02  0.11090196795E+03  0.00000000000E+00 0. -1.
        -13    1    4    4    0    0  0.15583960769E+02 -0.30860700456E+02 -0.74629497054E+01  0.35368605912E+02  0.00000000000E+00 0. -1.
         13    1    4    4    0    0 -0.50707415021E+02  0.40114542148E+02 -0.14320418460E+02  0.66223053499E+02  0.00000000000E+00 0.  1.
          2    1    1    2  501    0  0.22071658478E+02 -0.13858743056E+02 -0.32466180840E+02  0.41632628615E+02  0.00000000000E+00 0. -1.
<scales pt_clust_5="13000.00000" pt_clust_6="13000.00000" pt_clust_7="13000.00000" pt_clust_8="13000.00000" pt_clust_9="26.06192"></scales>
<clustering>
<clus scale="   26.062">  1  9  2 -1</clus>
<clus scale="   92.342">  7  8 -1 -1</clus>
<clus scale="   94.374">  1  7  2 -1</clus>
<clus scale="  104.210">  5  6 -1 -1</clus>
<clus scale="   26.062">  1  5  2 -1</clus>
</clustering>
</event>
<event>
 9    1  0.1601012E-005  0.1080678E+03  0.7546771E-02  0.1270366E+00
         -2   -1    0    0    0  501 -0.00000000000E+00  0.00000000000E+00  0.11846250762E+03  0.11846250762E+03  0.00000000000E+00 0.  1.
         21   -1    0    0  501  502  0.00000000000E+00 -0.00000000000E+00 -0.14701075109E+03  0.14701075109E+03  0.00000000000E+00 0. -1.
         23    2    1    2    0    0 -0.20452886007E+02 -0.97751350363E+01  0.46592199062E+02  0.11825892113E+03  0.10630364812E+03 0.  0.
         23    2    1    2    0    0  0.16197490361E+02 -0.16936838172E+02 -0.70660095006E+02  0.11979698142E+03  0.93857618492E+02 0.  0.
        -13    1    4    4    0    0 -0.25329161057E+02  0.20609141806E+02 -0.50810152474E+02  0.60398466208E+02  0.00000000000E+00 0.  1.
         13    1    4    4    0    0  0.41526651418E+02 -0.37545979978E+02 -0.19849942533E+02  0.59398515209E+02  0.00000000000E+00 0. -1.
        -13    1    3    3    0    0 -0.40227464442E+02 -0.47501079695E+02  0.42705697182E+02  0.75487601892E+02  0.00000000000E+00 0.  1.
         13    1    3    3    0    0  0.19774578435E+02  0.37725944659E+02  0.38865018795E+01  0.42771319240E+02  0.00000000000E+00 0. -1.
         -2    1    1    2    0  502  0.42553956462E+01  0.26711973209E+02 -0.44803475273E+01  0.27417356159E+02  0.00000000000E+00 0.  1.
<scales pt_clust_5="13000.00000" pt_clust_6="13000.00000" pt_clust_7="13000.00000" pt_clust_8="13000.00000" pt_clust_9="27.04881"></scales>
<clustering>
<clus scale="   27.049">  2  9  1 -1</clus>
<clus scale="   93.858">  5  6 -1 -1</clus>
<clus scale="   95.851">  2  5  1 -1</clus>
<clus scale="  106.304">  7  8 -1 -1</clus>
<clus scale="   27.049">  2  5  1 -1</clus>
</clustering>
</event>
<event>
 9    1  0.1601012E-005  0.9861491E+02  0.7546771E-02  0.1283242E+00
         -1   -1    0    0    0  501 -0.00000000000E+00  0.00000000000E+00  0.17780693759E+03  0.17780693759E+03  0.00000000000E+00 0.  1.
         21   -1    0    0  501  502  0.00000000000E+00 -0.00000000000E+00 -0.92150288396E+02  0.92150288396E+02  0.00000000000E+00 0. -1.
         23    2    1    2    0    0  0.15364171934E+02  0.57024035714E+02  0.60538757494E+02  0.12449088721E+03  0.91352292865E+02 0.  0.
         23    2    1    2    0    0  0.94254069126E+01 -0.14494906071E+02  0.24810038911E+02  0.96238858027E+02  0.91364321078E+02 0.  0.
        -11    1    4    4    0    0  0.39506769065E+02 -0.32043451971E+02 -0.40219265937E+01  0.51026890065E+02  0.00000000000E+00 0. -1.
         11    1    4    4    0    0 -0.30081362152E+02  0.17548545900E+02  0.28831965505E+02  0.45211967962E+02  0.00000000000E+00 0.  1.
        -13    1    3    3    0    0 -0.34281195672E+02  0.18122405139E+01  0.22700709341E+02  0.41155884111E+02  0.00000000000E+00 0. -1.
         13    1    3    3    0    0  0.49645367606E+02  0.55211795200E+02  0.37838048153E+02  0.83335003102E+02  0.00000000000E+00 0.  1.
         -1    1    1    2    0  502 -0.24789578846E+02 -0.42529129643E+02  0.30785279041E+00  0.49227480749E+02  0.00000000000E+00 0.  1.
<scales pt_clust_5="13000.00000" pt_clust_6="13000.00000" pt_clust_7="13000.00000" pt_clust_8="13000.00000" pt_clust_9="49.22652"></scales>
<clustering>
<clus scale="   49.227">  2  9  1 -1</clus>
<clus scale="   91.352">  7  8 -1 -1</clus>
<clus scale="   91.364">  5  6 -1 -1</clus>
<clus scale="   98.604">  1  7  2 -1</clus>
<clus scale="   49.227">  2  5  1 -1</clus>
</clustering>
</event>
<event>
 9    1  0.1601012E-005  0.2851428E+03  0.7546771E-02  0.1092964E+00
          1   -1    0    0  502    0 -0.00000000000E+00  0.00000000000E+00  0.84609277273E+03  0.84609277273E+03  0.00000000000E+00 0. -1.
         21   -1    0    0  501  502  0.00000000000E+00 -0.00000000000E+00 -0.35838666386E+03  0.35838666386E+03  0.00000000000E+00 0.  1.
         23    2    1    2    0    0  0.21075654786E+03 -0.13798547776E+03  0.56129192726E+03  0.62215473427E+03  0.92571978624E+02 0.  0.
         23    2    1    2    0    0 -0.32001221481E+03  0.25365233236E+03 -0.48418105931E+02  0.42123765827E+03  0.91375754020E+02 0.  0.
        -11    1    4    4    0    0 -0.11457814257E+03  0.11890589960E+03  0.19672814309E+02  0.16629426731E+03  0.00000000000E+00 0. -1.
         11    1    4    4    0    0 -0.20543407224E+03  0.13474643275E+03 -0.68090920240E+02  0.25494339096E+03  0.00000000000E+00 0.  1.
        -13    1    3    3    0    0  0.20527002530E+03 -0.11434128545E+03  0.54332552964E+03  0.59195637001E+03  0.00000000000E+00 0. -1.
         13    1    3    3    0    0  0.54865225581E+01 -0.23644192318E+02  0.17966397624E+02  0.30198364256E+02  0.00000000000E+00 0.  1.
          1    1    1    2  501    0  0.10925566695E+03 -0.11566685459E+03 -0.25167712459E+02  0.16108704406E+03  0.00000000000E+00 0. -1.
<scales pt_clust_5="13000.00000" pt_clust_6="13000.00000" pt_clust_7="13000.00000" pt_clust_8="13000.00000" pt_clust_9="159.10884"></scales>
<clustering>
<clus scale="   91.376">  5  6 -1 -1</clus>
<clus scale="   92.572">  7  8 -1 -1</clus>
<clus scale="  159.109">  2  9  1 -1</clus>
<clus scale="  284.757">  2  5  1 -1</clus>
<clus scale="  159.109">  2  5  1 -1</clus>
</clustering>
</event>
<event>
 9    1  0.1601012E-005  0.1090195E+03  0.7546771E-02  0.1262410E+00
         -2   -1    0    0    0  501 -0.00000000000E+00  0.00000000000E+00  0.26493312075E+03  0.26493312075E+03  0.00000000000E+00 0.  1.
         21   -1    0    0  501  502  0.00000000000E+00 -0.00000000000E+00 -0.79289226209E+02  0.79289226209E+02  0.00000000000E+00 0. -1.
         23    2    1    2    0    0 -0.21232013993E+02  0.50789802644E+02  0.16671894828E+03  0.19806625135E+03  0.91676767702E+02 0.  0.
         23    2    1    2    0    0  0.44982004016E+02 -0.56850652978E+02  0.27761074274E+02  0.12010090243E+03  0.91641541296E+02 0.  0.
        -13    1    4    4    0    0 -0.19789711566E+01 -0.67760853995E+02  0.90742060864E+01  0.68394377525E+02  0.00000000000E+00 0.  1.
         13    1    4    4    0    0  0.46960975172E+02  0.10910201017E+02  0.18686868188E+02  0.51706524908E+02  0.00000000000E+00 0. -1.
        -13    1    3    3    0    0 -0.18588812717E+02 -0.21454998896E+02  0.81563510953E+02  0.86362418070E+02  0.00000000000E+00 0.  1.
         13    1    3    3    0    0 -0.26432012757E+01  0.72244801541E+02  0.85155437332E+02  0.11170383328E+03  0.00000000000E+00 0. -1.
         -2    1    1    2    0  502 -0.23749990023E+02  0.60608503339E+01 -0.88361280196E+01  0.26055193172E+02  0.00000000000E+00 0.  1.
<scales pt_clust_5="13000.00000" pt_clust_6="13000.00000" pt_clust_7="13000.00000" pt_clust_8="13000.00000" pt_clust_9="24.51114"></scales>
<clustering>
<clus scale="   24.511">  2  9  1 -1</clus>
<clus scale="   91.642">  5  6 -1 -1</clus>
<clus scale="   91.677">  7  8 -1 -1</clus>
<clus scale="  108.990">  2  5  1 -1</clus>
<clus scale="   24.511">  2  5  1 -1</clus>
</clustering>
</event>
<event>
 9    1  0.1601012E-005  0.1487741E+03  0.7546771E-02  0.1204177E+00
          1   -1    0    0  502    0 -0.00000000000E+00  0.00000000000E+00  0.10589726472E+04  0.10589726472E+04  0.00000000000E+00 0. -1.
         21   -1    0    0  501  502  0.00000000000E+00 -0.00000000000E+00 -0.29988528146E+02  0.29988528146E+02  0.00000000000E+00 0.  1.
         23    2    1    2    0    0  0.22112527023E+02  0.12488625325E+03  0.65906071515E+03  0.67628128683E+03  0.83125282299E+02 0.  0.
         23    2    1    2    0    0 -0.39706633854E+01 -0.97874739659E+02  0.34746816594E+03  0.37314526073E+03  0.94382352337E+02 0.  0.
        -11    1    3    3    0    0 -0.49667802213E+01  0.22696777616E+02  0.27803997144E+02  0.36233615292E+02  0.00000000000E+00 0.  1.
         11    1    3    3    0    0  0.27079307245E+02  0.10218947564E+03  0.63125671800E+03  0.64004767153E+03  0.00000000000E+00 0. -1.
        -13    1    4    4    0    0 -0.43484758466E+02 -0.56981565696E+02  0.13094719231E+03  0.14928158032E+03  0.00000000000E+00 0.  1.
         13    1    4    4    0    0  0.39514095080E+02 -0.40893173963E+02  0.21652097363E+03  0.22386368041E+03  0.00000000000E+00 0. -1.
          1    1    1    2  501    0 -0.18141863638E+02 -0.27011513594E+02  0.22455237982E+02  0.39534627806E+02  0.00000000000E+00 0. -1.
<scales pt_clust_5="13000.00000" pt_clust_6="13000.00000" pt_clust_7="13000.00000" pt_clust_8="13000.00000" pt_clust_9="32.53842"></scales>
<clustering>
<clus scale="   32.538">  2  9  1 -1</clus>
<clus scale="   83.125">  5  6 -1 -1</clus>
<clus scale="   94.382">  7  8 -1 -1</clus>
<clus scale="  141.900">  1  5  2 -1</clus>
<clus scale="   32.538">  2  5  1 -1</clus>
</clustering>
</event>
<event>
 9    1  0.1601012E-005  0.1264968E+03  0.7546771E-02  0.1233706E+00
         -1   -1    0    0    0  501 -0.00000000000E+00  0.00000000000E+00  0.50796493261E+03  0.50796493261E+03  0.00000000000E+00 0.  1.
         21   -1    0    0  501  502  0.00000000000E+00 -0.00000000000E+00 -0.46881874470E+02  0.46881874470E+02  0.00000000000E+00 0. -1.
         23    2    1    2    0    0  0.19425625192E+02  0.75502919834E+02  0.31705823136E+03  0.33984386302E+03  0.94286177897E+02 0.  0.
         23    2    1    2    0    0 -0.30476258883E+02 -0.96296543990E+02  0.12612533908E+03  0.18542452337E+03  0.90955076655E+02 0.  0.
        -11    1    3    3    0    0  0.15789805020E+02 -0.18565955378E+02  0.10562069737E+03  0.10839623773E+03  0.00000000000E+00 0.  1.
         11    1    3    3    0    0  0.36358201726E+01  0.94068875212E+02  0.21143753399E+03  0.23144762529E+03  0.00000000000E+00 0. -1.
        -13    1    4    4    0    0 -0.99820345840E+01 -0.96794059850E+02  0.55797935229E+02  0.11217014136E+03  0.00000000000E+00 0.  1.
         13    1    4    4    0    0 -0.20494224299E+02  0.49751585923E+00  0.70327403849E+02  0.73254382011E+02  0.00000000000E+00 0. -1.
         -1    1    1    2    0  502  0.11050633691E+02  0.20793624156E+02  0.17899487706E+02  0.29578420693E+02  0.00000000000E+00 0.  1.
<scales pt_clust_5="13000.00000" pt_clust_6="13000.00000" pt_clust_7="13000.00000" pt_clust_8="13000.00000" pt_clust_9="23.54764"></scales>
<clustering>
<clus scale="   23.548">  2  9  1 -1</clus>
<clus scale="   90.955">  7  8 -1 -1</clus>
<clus scale="   94.286">  5  6 -1 -1</clus>
<clus scale="  124.034">  2  7  1 -1</clus>
<clus scale="   23.548">  2  5  1 -1</clus>
</clustering>
</event>
<event>
 9    1  0.1601012E-005  0.1775482E+03  0.7546771E-02  0.1171406E+00
         21   -1    0    0  501  502  0.00000000000E+00  0.00000000000E+00  0.18880765592E+03  0.18880765592E+03  0.00000000000E+00 0. -1.
          2   -1    0    0  502    0 -0.00000000000E+00 -0.00000000000E+00 -0.36578661054E+03  0.36578661054E+03  0.00000000000E+00 0. -1.
         23    2    1    2    0    0  0.44277214996E+02  0.18517080539E+03 -0.23611252252E+03  0.31297688114E+03  0.77179698752E+02 0.  0.
         23    2    1    2    0    0 -0.17249385443E+01 -0.92792883949E+02  0.80079511071E+01  0.12778327226E+03  0.87469667108E+02 0.  0.
        -11    1    4    4    0    0 -0.30997130380E+02 -0.76066128960E+02 -0.19324042410E+02  0.84381850429E+02  0.00000000000E+00 0.  1.
         11    1    4    4    0    0  0.29272191835E+02 -0.16726754989E+02  0.27331993517E+02  0.43401421831E+02  0.00000000000E+00 0. -1.
        -13    1    3    3    0    0 -0.10729119114E+02  0.37954765394E+02 -0.90540505627E+02  0.98758601510E+02  0.00000000000E+00 0.  1.
         13    1    3    3    0    0  0.55006334110E+02  0.14721604000E+03 -0.14557201690E+03  0.21421827963E+03  0.00000000000E+00 0. -1.
          2    1    1    2  501    0 -0.42552276452E+02 -0.92377921444E+02  0.51125616799E+02  0.11383411305E+03  0.00000000000E+00 0. -1.
<scales pt_clust_5="13000.00000" pt_clust_6="13000.00000" pt_clust_7="13000.00000" pt_clust_8="13000.00000" pt_clust_9="101.70731"></scales>
<clustering>
<clus scale="   77.180">  7  8 -1 -1</clus>
<clus scale="   87.470">  5  6 -1 -1</clus>
<clus scale="  101.707">  1  9  2 -1</clus>
<clus scale="  172.711">  2  7  1 -1</clus>
<clus scale="  101.707">  1  5  2 -1</clus>
</clustering>
</event>
<event>
 9    1  0.1601012E-005  0.9699350E+02  0.7546771E-02  0.1287181E+00
         21   -1    0    0  501  502  0.00000000000E+00  0.00000000000E+00  0.42247934311E+03  0.42247934311E+03  0.00000000000E+00 0.  1.
          3   -1    0    0  502    0 -0.00000000000E+00 -0.00000000000E+00 -0.80024816510E+02  0.80024816510E+02  0.00000000000E+00 0. -1.
         23    2    1    2    0    0 -0.17559017196E+02 -0.22344994087E+02 -0.18008771743E+02  0.96871068281E+02  0.90840905789E+02 0.  0.
         23    2    1    2    0    0 -0.41617493712E+01  0.51414477255E+02  0.10868011247E+03  0.15124834486E+03  0.91672931380E+02 0.  0.
        -13    1    4    4    0    0  0.41511980443E+02  0.88329662390E+01  0.38401942626E+02  0.57236133782E+02  0.00000000000E+00 0.  1.
         13    1    4    4    0    0 -0.45673729814E+02  0.42581511016E+02  0.70278169845E+02  0.94012211081E+02  0.00000000000E+00 0. -1.
        -13    1    3    3    0    0  0.80911027390E+01 -0.53812975182E+02 -0.13146854292E+02  0.55983408428E+02  0.00000000000E+00 0.  1.
         13    1    3    3    0    0 -0.25650119935E+02  0.31467981095E+02 -0.48619174506E+01  0.40887659852E+02  0.00000000000E+00 0. -1.
          3    1    1    2  501    0  0.21720766568E+02 -0.29069483168E+02  0.25178318587E+03  0.25438474648E+03  0.00000000000E+00 0. -1.
<scales pt_clust_5="13000.00000" pt_clust_6="13000.00000" pt_clust_7="13000.00000" pt_clust_8="13000.00000" pt_clust_9="36.28810"></scales>
<clustering>
<clus scale="   36.288">  1  9  2 -1</clus>
<clus scale="   90.841">  7  8 -1 -1</clus>
<clus scale="   91.673">  5  6 -1 -1</clus>
<clus scale="   96.207">  2  7  1 -1</clus>
<clus scale="   36.288">  1  5  2 -1</clus>
</clustering>
</event>
<event>
 9    1  0.1601012E-005  0.1130357E+03  0.7546771E-02  0.1255641E+00
          1   -1    0    0  502    0 -0.00000000000E+00  0.00000000000E+00  0.11301353194E+04  0.11301353194E+04  0.00000000000E+00 0. -1.
         21   -1    0    0  501  502  0.00000000000E+00 -0.00000000000E+00 -0.14251105763E+02  0.14251105763E+02  0.00000000000E+00 0.  1.
         23    2    1    2    0    0 -0.59490942230E+02 -0.59352184718E+01  0.48431379739E+03  0.49615379316E+03  0.89634441451E+02 0.  0.
         23    2    1    2    0    0  0.70221372389E+02  0.30442744915E+02  0.50346596103E+03  0.51736433016E+03  0.91269240940E+02 0.  0.
        -11    1    3    3    0    0  0.42876085019E+01  0.32828127254E+02  0.14728444198E+03  0.15095951899E+03  0.00000000000E+00 0.  1.
         11    1    3    3    0    0 -0.63778550732E+02 -0.38763345726E+02  0.33702935541E+03  0.34519427416E+03  0.00000000000E+00 0. -1.
        -13    1    4    4    0    0  0.54880206165E+02 -0.21205743550E+02  0.34522068760E+03  0.35019829202E+03  0.00000000000E+00 0.  1.
         13    1    4    4    0    0  0.15341166223E+02  0.51648488465E+02  0.15824527344E+03  0.16716603814E+03  0.00000000000E+00 0. -1.
          1    1    1    2  501    0 -0.10730430159E+02 -0.24507526443E+02  0.12810445523E+03  0.13086830187E+03  0.00000000000E+00 0. -1.
<scales pt_clust_5="13000.00000" pt_clust_6="13000.00000" pt_clust_7="13000.00000" pt_clust_8="13000.00000" pt_clust_9="26.75372"></scales>
<clustering>
<clus scale="   26.754">  2  9  1 -1</clus>
<clus scale="   89.634">  5  6 -1 -1</clus>
<clus scale="   91.269">  7  8 -1 -1</clus>
<clus scale="  111.720">  1  5  2 -1</clus>
<clus scale="   26.754">  2  5  1 -1</clus>
</clustering>
</event>
<event>
 9    1  0.1601012E-005  0.1193742E+03  0.7546771E-02  0.1244680E+00
         -2   -1    0    0    0  501 -0.00000000000E+00  0.00000000000E+00  0.60022308502E+02  0.60022308502E+02  0.00000000000E+00 0.  1.
         21   -1    0    0  501  502  0.00000000000E+00 -0.00000000000E+00 -0.55073115194E+03  0.55073115194E+03  0.00000000000E+00 0. -1.
         23    2    1    2    0    0 -0.85422244759E+02 -0.16991038104E+01 -0.70992066842E+02  0.14388551846E+03  0.91451200188E+02 0.  0.
         23    2    1    2    0    0  0.48709348195E+02 -0.68743731235E+02 -0.22294039918E+03  0.25466291732E+03  0.89735604321E+02 0.  0.
        -13    1    4    4    0    0  0.52255835732E+02 -0.82785386996E+01 -0.55840811229E+02  0.76924656448E+02  0.00000000000E+00 0.  1.
         13    1    4    4    0    0 -0.35464875367E+01 -0.60465192535E+02 -0.16709958795E+03  0.17773826087E+03  0.00000000000E+00 0. -1.
        -13    1    3    3    0    0 -0.66262351798E+02  0.33834205890E+02 -0.16738424944E+02  0.76260262415E+02  0.00000000000E+00 0.  1.
         13    1    3    3    0    0 -0.19159892961E+02 -0.35533309700E+02 -0.54253641898E+02  0.67625256049E+02  0.00000000000E+00 0. -1.
         -2    1    1    2    0  502  0.36712896564E+02  0.70442835045E+02 -0.19677637741E+03  0.21220502466E+03  0.00000000000E+00 0.  1.
<scales pt_clust_5="13000.00000" pt_clust_6="13000.00000" pt_clust_7="13000.00000" pt_clust_8="13000.00000" pt_clust_9="79.43570"></scales>
<clustering>
<clus scale="   79.436">  2  9  1 -1</clus>
<clus scale="   89.736">  5  6 -1 -1</clus>
<clus scale="   91.451">  7  8 -1 -1</clus>
<clus scale="  118.065">  2  5  1 -1</clus>
<clus scale="   79.436">  2  5  1 -1</clus>
</clustering>
</event>
<event>
 9    1  0.1601012E-005  0.1388684E+03  0.7546771E-02  0.1229666E+00
          2   -1    0    0  502    0 -0.00000000000E+00  0.00000000000E+00  0.38433971529E+03  0.38433971529E+03  0.00000000000E+00 0. -1.
         21   -1    0    0  501  502  0.00000000000E+00 -0.00000000000E+00 -0.12432373895E+03  0.12432373895E+03  0.00000000000E+00 0. -1.
         23    2    1    2    0    0  0.46557592829E+02  0.24701756212E+01  0.13588957950E+03  0.16984046815E+03  0.90587502369E+02 0.  0.
         23    2    1    2    0    0 -0.75478664025E+02 -0.10018715028E+03  0.16717919386E+03  0.22819487562E+03  0.91594348047E+02 0.  0.
        -11    1    4    4    0    0 -0.28893149658E+02 -0.10436384101E+03  0.12266842859E+03  0.16362814177E+03  0.00000000000E+00 0.  1.
         11    1    4    4    0    0 -0.46585514366E+02  0.41766907317E+01  0.44510765274E+02  0.64566733846E+02  0.00000000000E+00 0. -1.
        -13    1    3    3    0    0  0.23434698741E+02  0.42357669279E+02  0.10106864711E+03  0.11206350290E+03  0.00000000000E+00 0.  1.
         13    1    3    3    0    0  0.23122894087E+02 -0.39887493657E+02  0.34820932390E+02  0.57776965252E+02  0.00000000000E+00 0. -1.
          2    1    1    2  501    0  0.28921071196E+02  0.97716974658E+02 -0.43052797028E+02  0.11062811048E+03  0.00000000000E+00 0. -1.
<scales pt_clust_5="13000.00000" pt_clust_6="13000.00000" pt_clust_7="13000.00000" pt_clust_8="13000.00000" pt_clust_9="104.37865"></scales>
<clustering>
<clus scale="   90.588">  7  8 -1 -1</clus>
<clus scale="   91.594">  5  6 -1 -1</clus>
<clus scale="  101.881">  1  7  2 -1</clus>
<clus scale="  104.379">  2  9  1 -1</clus>
<clus scale="  104.379">  2  5  1 -1</clus>
</clustering>
</event>
<event>
 9    1  0.1601012E-005  0.1123670E+03  0.7546771E-02  0.1256344E+00
         21   -1    0    0  501  502  0.00000000000E+00  0.00000000000E+00  0.14841668106E+03  0.14841668106E+03  0.00000000000E+00 0. -1.
         -2   -1    0    0    0  501 -0.00000000000E+00 -0.00000000000E+00 -0.11906196149E+03  0.11906196149E+03  0.00000000000E+00 0.  1.
         23    2    1    2    0    0  0.38305471736E+02  0.62846680958E+02 -0.15356827316E+02  0.11844644744E+03  0.91524391800E+02 0.  0.
         23    2    1    2    0    0 -0.16503446122E+02 -0.54095440887E+02  0.10983020848E+02  0.10792835110E+03  0.91264570160E+02 0.  0.
        -11    1    3    3    0    0 -0.86035713410E+01 -0.19802670914E+02  0.25486577343E+01  0.21740811195E+02  0.00000000000E+00 0.  1.
         11    1    3    3    0    0  0.46909043077E+02  0.82649351873E+02 -0.17905485050E+02  0.96705636249E+02  0.00000000000E+00 0. -1.
        -13    1    4    4    0    0 -0.27330386632E+02  0.17000365066E+02 -0.87503283239E+01  0.33354620244E+02  0.00000000000E+00 0.  1.
         13    1    4    4    0    0  0.10826940510E+02 -0.71095805953E+02  0.19733349172E+02  0.74573730861E+02  0.00000000000E+00 0. -1.
         -2    1    1    2    0  502 -0.21802025614E+02 -0.87512400711E+01  0.33728526038E+02  0.41103844009E+02  0.00000000000E+00 0.  1.
<scales pt_clust_5="13000.00000" pt_clust_6="13000.00000" pt_clust_7="13000.00000" pt_clust_8="13000.00000" pt_clust_9="23.49282"></scales>
<clustering>
<clus scale="   23.493">  1  9  2 -1</clus>
<clus scale="   91.265">  7  8 -1 -1</clus>
<clus scale="   91.524">  5  6 -1 -1</clus>
<clus scale="  112.155">  1  7  2 -1</clus>
<clus scale="   23.493">  1  5  2 -1</clus>
</clustering>
</event>
<event>
 9    1  0.1601012E-005  0.1229430E+03  0.7546771E-02  0.1238461E+00
          2   -1    0    0  502    0 -0.00000000000E+00  0.00000000000E+00  0.27589622480E+03  0.27589622480E+03  0.00000000000E+00 0. -1.
         21   -1    0    0  501  502  0.00000000000E+00 -0.00000000000E+00 -0.95100127337E+02  0.95100127337E+02  0.00000000000E+00 0.  1.
         23    2    1    2    0    0 -0.75121788991E+02 -0.41901264802E+02  0.19564732413E+03  0.23287788980E+03  0.92494523849E+02 0.  0.
         23    2    1    2    0    0  0.54345386703E+02  0.31168419988E+02 -0.22376925252E+02  0.11355244946E+03  0.92024673507E+02 0.  0.
        -11    1    3    3    0    0 -0.74113386405E+01 -0.50886844873E+02  0.12219673836E+03  0.13257617353E+03  0.00000000000E+00 0. -1.
         11    1    3    3    0    0 -0.67710450351E+02  0.89855800709E+01  0.73450585776E+02  0.10030171627E+03  0.00000000000E+00 0.  1.
        -13    1    4    4    0    0  0.47310787747E+02  0.58650847090E+02  0.31075679240E+01  0.75418097828E+02  0.00000000000E+00 0.  1.
         13    1    4    4    0    0  0.70345989559E+01 -0.27482427102E+02 -0.25484493176E+02  0.38134351631E+02  0.00000000000E+00 0. -1.
          2    1    1    2  501    0  0.20776402288E+02  0.10732844814E+02  0.75256985844E+01  0.24566012885E+02  0.00000000000E+00 0. -1.
<scales pt_clust_5="13000.00000" pt_clust_6="13000.00000" pt_clust_7="13000.00000" pt_clust_8="13000.00000" pt_clust_9="23.38489"></scales>
<clustering>
<clus scale="   23.385">  2  9  1 -1</clus>
<clus scale="   92.025">  7  8 -1 -1</clus>
<clus scale="   92.495">  5  6 -1 -1</clus>
<clus scale="  122.590">  2  7  1 -1</clus>
<clus scale="   23.385">  2  5  1 -1</clus>
</clustering>
</event>
<event>
 9    1  0.1601012E-005  0.1293899E+03  0.7546771E-02  0.1237616E+00
         21   -1    0    0  501  502  0.00000000000E+00  0.00000000000E+00  0.93826160814E+02  0.93826160814E+02  0.00000000000E+00 0. -1.
          1   -1    0    0  502    0 -0.00000000000E+00 -0.00000000000E+00 -0.42780739539E+03  0.42780739539E+03  0.00000000000E+00 0. -1.
         23    2    1    2    0    0 -0.27730618686E+01  0.57952227510E+02 -0.22141085432E+03  0.26213027615E+03  0.12776292388E+03 0.  0.
         23    2    1    2    0    0 -0.39257572947E+02  0.40434194936E+02 -0.10817394515E+03  0.15242484606E+03  0.91409245333E+02 0.  0.
        -13    1    4    4    0    0  0.14272320643E+02  0.27439198013E+02  0.11661497417E+00  0.30929311715E+02  0.00000000000E+00 0.  1.
         13    1    4    4    0    0 -0.53529893590E+02  0.12994996923E+02 -0.10829056013E+03  0.12149553434E+03  0.00000000000E+00 0. -1.
        -13    1    3    3    0    0  0.42725185935E+02 -0.22145014613E+02 -0.71853124797E+02  0.86479562490E+02  0.00000000000E+00 0.  1.
         13    1    3    3    0    0 -0.45498247803E+02  0.80097242123E+02 -0.14955772953E+03  0.17565071366E+03  0.00000000000E+00 0. -1.
          1    1    1    2  501    0  0.42030634816E+02 -0.98386422445E+02 -0.43964350979E+01  0.10707843399E+03  0.00000000000E+00 0. -1.
<scales pt_clust_5="13000.00000" pt_clust_6="13000.00000" pt_clust_7="13000.00000" pt_clust_8="13000.00000" pt_clust_9="106.98814"></scales>
<clustering>
<clus scale="   91.409">  5  6 -1 -1</clus>
<clus scale="  106.988">  1  9  2 -1</clus>
<clus scale="  106.988">  1  5  2 -1</clus>
<clus scale="  127.763">  7  8 -1 -1</clus>
<clus scale="  106.988">  1  5  2 -1</clus>
</clustering>
</event>
<event>
 9    1  0.1601012E-005  0.1813245E+03  0.7546771E-02  0.1195343E+00
         21   -1    0    0  501  502  0.00000000000E+00  0.00000000000E+00  0.96721222083E+02  0.96721222083E+02  0.00000000000E+00 0. -1.
          1   -1    0    0  502    0 -0.00000000000E+00 -0.00000000000E+00 -0.60263146293E+03  0.60263146293E+03  0.00000000000E+00 0. -1.
         23    2    1    2    0    0 -0.34193460837E+02  0.63116697303E+01 -0.25605250593E+03  0.27309550984E+03  0.88369914356E+02 0.  0.
         23    2    1    2    0    0 -0.11338032967E+03 -0.87034053524E+02 -0.17269212499E+03  0.24119324502E+03  0.89003290834E+02 0.  0.
        -13    1    4    4    0    0 -0.89758195409E+02 -0.16746389990E+02 -0.72740527150E+02  0.11673970837E+03  0.00000000000E+00 0. -1.
         13    1    4    4    0    0 -0.23622134256E+02 -0.70287663534E+02 -0.99951597844E+02  0.12445353665E+03  0.00000000000E+00 0.  1.
        -13    1    3    3    0    0  0.23043379911E+02 -0.11457085091E+02 -0.31462366708E+02  0.40646557977E+02  0.00000000000E+00 0.  1.
         13    1    3    3    0    0 -0.57236840748E+02  0.17768754821E+02 -0.22459013922E+03  0.23244895186E+03  0.00000000000E+00 0. -1.
          1    1    1    2  501    0  0.14757379050E+03  0.80722383794E+02 -0.77165609919E+02  0.18506393015E+03  0.00000000000E+00 0. -1.
<scales pt_clust_5="13000.00000" pt_clust_6="13000.00000" pt_clust_7="13000.00000" pt_clust_8="13000.00000" pt_clust_9="157.97786"></scales>
<clustering>
<clus scale="   88.370">  7  8 -1 -1</clus>
<clus scale="   89.003">  5  6 -1 -1</clus>
<clus scale="   94.965">  2  7  1 -1</clus>
<clus scale="  157.978">  1  9  2 -1</clus>
<clus scale="  157.978">  1  5  2 -1</clus>
</clustering>
</event>
<event>
 9    1  0.1601012E-005  0.1171569E+03  0.7546771E-02  0.1248374E+00
         21   -1    0    0  501  502  0.00000000000E+00  0.00000000000E+00  0.41360408490E+03  0.41360408490E+03  0.00000000000E+00 0. -1.
          3   -1    0    0  502    0 -0.00000000000E+00 -0.00000000000E+00 -0.87186958088E+02  0.87186958088E+02  0.00000000000E+00 0. -1.
         23    2    1    2    0    0 -0.76204158536E+02  0.26926077805E+02  0.61372505261E+01  0.12295258378E+03  0.92453147968E+02 0.  0.
         23    2    1    2    0    0  0.59925571371E+02  0.12685998233E+01  0.79430170349E+02  0.13479831212E+03  0.90932664867E+02 0.  0.
        -11    1    3    3    0    0 -0.21904514672E+02  0.26682395318E+02  0.44607696286E+02  0.56405713814E+02  0.00000000000E+00 0.  1.
         11    1    3    3    0    0 -0.54299643864E+02  0.24368248719E+00 -0.38470445760E+02  0.66546869963E+02  0.00000000000E+00 0. -1.
        -11    1    4    4    0    0 -0.85428078881E+00 -0.31099710706E+02  0.19977064178E+01  0.31175513350E+02  0.00000000000E+00 0.  1.
         11    1    4    4    0    0  0.60779852160E+02  0.32368310529E+02  0.77432463931E+02  0.10362279877E+03  0.00000000000E+00 0. -1.
          3    1    1    2  501    0  0.16278587165E+02 -0.28194677628E+02  0.24084970594E+03  0.24304014709E+03  0.00000000000E+00 0. -1.
<scales pt_clust_5="13000.00000" pt_clust_6="13000.00000" pt_clust_7="13000.00000" pt_clust_8="13000.00000" pt_clust_9="32.55660"></scales>
<clustering>
<clus scale="   32.557">  1  9  2 -1</clus>
<clus scale="   90.933">  7  8 -1 -1</clus>
<clus scale="   92.453">  5  6 -1 -1</clus>
<clus scale="  115.961">  1  7  2 -1</clus>
<clus scale="   32.557">  1  5  2 -1</clus>
</clustering>
</event>
<event>
 9    1  0.1601012E-005  0.1529039E+03  0.7546771E-02  0.1216957E+00
         21   -1    0    0  501  502  0.00000000000E+00  0.00000000000E+00  0.72191751706E+02  0.72191751706E+02  0.00000000000E+00 0. -1.
          2   -1    0    0  502    0 -0.00000000000E+00 -0.00000000000E+00 -0.50571669593E+03  0.50571669593E+03  0.00000000000E+00 0. -1.
         23    2    1    2    0    0  0.35130917643E+02  0.21224363982E+02 -0.15561837370E+03  0.18471885749E+03  0.90660482441E+02 0.  0.
         23    2    1    2    0    0 -0.88869064717E+02 -0.11188424635E+03 -0.14368390943E+03  0.22253577252E+03  0.91985373696E+02 0.  0.
        -13    1    4    4    0    0 -0.44953538763E+02  0.42138559630E+01 -0.29935798572E+02  0.54173141551E+02  0.00000000000E+00 0.  1.
         13    1    4    4    0    0 -0.43915525954E+02 -0.11609810232E+03 -0.11374811086E+03  0.16836263096E+03  0.00000000000E+00 0. -1.
        -13    1    3    3    0    0 -0.25732428959E+02  0.21767610319E+02 -0.85298766910E+02  0.91716227547E+02  0.00000000000E+00 0.  1.
         13    1    3    3    0    0  0.60863346602E+02 -0.54324633640E+00 -0.70319606794E+02  0.93002629941E+02  0.00000000000E+00 0. -1.
          2    1    1    2  501    0  0.53738147074E+02  0.90659882371E+02 -0.13422266109E+03  0.17065381763E+03  0.00000000000E+00 0. -1.
<scales pt_clust_5="13000.00000" pt_clust_6="13000.00000" pt_clust_7="13000.00000" pt_clust_8="13000.00000" pt_clust_9="122.14059"></scales>
<clustering>
<clus scale="   90.660">  7  8 -1 -1</clus>
<clus scale="   91.985">  5  6 -1 -1</clus>
<clus scale="   99.519">  2  7  1 -1</clus>
<clus scale="  122.141">  1  9  2 -1</clus>
<clus scale="  122.141">  1  5  2 -1</clus>
</clustering>
</event>
<event>
 9    1  0.1601012E-005  0.1147168E+03  0.7546771E-02  0.1252675E+00
          2   -1    0    0  502    0 -0.00000000000E+00  0.00000000000E+00  0.72443203397E+03  0.72443203397E+03  0.00000000000E+00 0. -1.
         21   -1    0    0  501  502  0.00000000000E+00 -0.00000000000E+00 -0.10304408726E+03  0.10304408726E+03  0.00000000000E+00 0. -1.
         23    2    1    2    0    0  0.11113592570E+02 -0.60981071264E+02  0.49591648294E+03  0.50835477601E+03  0.93001167985E+02 0.  0.
         23    2    1    2    0    0  0.17382098526E+01  0.82594450525E+02  0.20310328747E+03  0.23751860606E+03  0.91319648552E+02 0.  0.
        -11    1    3    3    0    0 -0.16650719764E+02  0.12731895735E+02  0.35317557181E+02  0.41069179234E+02  0.00000000000E+00 0.  1.
         11    1    3    3    0    0  0.27764312334E+02 -0.73712966999E+02  0.46059892576E+03  0.46728559678E+03  0.00000000000E+00 0. -1.
        -13    1    4    4    0    0 -0.38138745187E+02  0.16003663153E+02  0.43395851648E+02  0.59948987140E+02  0.00000000000E+00 0.  1.
         13    1    4    4    0    0  0.39876955040E+02  0.66590787372E+02  0.15970743582E+03  0.17756961892E+03  0.00000000000E+00 0. -1.
          2    1    1    2  501    0 -0.12851802423E+02 -0.21613379261E+02 -0.77631823702E+02  0.81602739169E+02  0.00000000000E+00 0. -1.
<scales pt_clust_5="13000.00000" pt_clust_6="13000.00000" pt_clust_7="13000.00000" pt_clust_8="13000.00000" pt_clust_9="25.14572"></scales>
<clustering>
<clus scale="   25.146">  2  9  1 -1</clus>
<clus scale="   91.320">  7  8 -1 -1</clus>
<clus scale="   93.001">  5  6 -1 -1</clus>
<clus scale="  113.358">  2  7  1 -1</clus>
<clus scale="   25.146">  2  5  1 -1</clus>
</clustering>
</event>
<event>
 9    1  0.1601012E-005  0.1182992E+03  0.7546771E-02  0.1246217E+00
         21   -1    0    0  501  502  0.00000000000E+00  0.00000000000E+00  0.15717881193E+03  0.15717881193E+03  0.00000000000E+00 0. -1.
          1   -1    0    0  502    0 -0.00000000000E+00 -0.00000000000E+00 -0.14414311639E+03  0.14414311639E+03  0.00000000000E+00 0. -1.
         23    2    1    2    0    0 -0.59448987650E+01 -0.97835758436E+02 -0.31538357779E+02  0.13585877150E+03  0.88632727206E+02 0.  0.
         23    2    1    2    0    0  0.26403426725E+02  0.46923452303E+02  0.29267818675E+02  0.10849917609E+03  0.89534991389E+02 0.  0.
        -11    1    4    4    0    0  0.35973192103E+02 -0.13574768171E+02 -0.42400401863E+01  0.38682332165E+02  0.00000000000E+00 0. -1.
         11    1    4    4    0    0 -0.95697653781E+01  0.60498220474E+02  0.33507858862E+02  0.69816843923E+02  0.00000000000E+00 0.  1.
        -13    1    3    3    0    0  0.26088151021E+02 -0.31462670927E+02 -0.45162912407E+02  0.60911246437E+02  0.00000000000E+00 0.  1.
         13    1    3    3    0    0 -0.32033049786E+02 -0.66373087510E+02  0.13624554628E+02  0.74947525062E+02  0.00000000000E+00 0. -1.
          1    1    1    2  501    0 -0.20458527960E+02  0.50912306133E+02  0.15306234643E+02  0.56963980734E+02  0.00000000000E+00 0. -1.
<scales pt_clust_5="13000.00000" pt_clust_6="13000.00000" pt_clust_7="13000.00000" pt_clust_8="13000.00000" pt_clust_9="54.86906"></scales>
<clustering>
<clus scale="   54.869">  1  9  2 -1</clus>
<clus scale="   88.633">  7  8 -1 -1</clus>
<clus scale="   89.535">  5  6 -1 -1</clus>
<clus scale="  117.618">  2  7  1 -1</clus>
<clus scale="   54.869">  1  5  2 -1</clus>
</clustering>
</event>
<event>
 9    1  0.1601012E-005  0.1110942E+03  0.7546771E-02  0.1258582E+00
         21   -1    0    0  501  502  0.00000000000E+00  0.00000000000E+00  0.45905688303E+02  0.45905688303E+02  0.00000000000E+00 0.  1.
         -2   -1    0    0    0  501 -0.00000000000E+00 -0.00000000000E+00 -0.63214775290E+03  0.63214775290E+03  0.00000000000E+00 0.  1.
         23    2    1    2    0    0 -0.60087610492E+02  0.76217895226E+01 -0.42165437123E+03  0.43563023759E+03  0.91173913580E+02 0.  0.
         23    2    1    2    0    0  0.76824111390E+02  0.41017163007E+02 -0.10919786956E+03  0.16683292152E+03  0.91239778790E+02 0.  0.
        -13    1    3    3    0    0 -0.20219314030E+02 -0.41453096673E+02 -0.18752613051E+03  0.19311455023E+03  0.00000000000E+00 0.  1.
         13    1    3    3    0    0 -0.39868296461E+02  0.49074886196E+02 -0.23412824072E+03  0.24251568737E+03  0.00000000000E+00 0. -1.
        -13    1    4    4    0    0  0.51142059390E+02 -0.21613014307E+02 -0.31695928432E+02  0.63931717522E+02  0.00000000000E+00 0. -1.
         13    1    4    4    0    0  0.25682052000E+02  0.62630177313E+02 -0.77501941128E+02  0.10290120400E+03  0.00000000000E+00 0.  1.
         -2    1    1    2    0  502 -0.16736500899E+02 -0.48638952529E+02 -0.55389823808E+02  0.75590282093E+02  0.00000000000E+00 0.  1.
<scales pt_clust_5="13000.00000" pt_clust_6="13000.00000" pt_clust_7="13000.00000" pt_clust_8="13000.00000" pt_clust_9="51.43791"></scales>
<clustering>
<clus scale="   51.438">  1  9  2 -1</clus>
<clus scale="   91.174">  5  6 -1 -1</clus>
<clus scale="   91.240">  7  8 -1 -1</clus>
<clus scale="  111.040">  2  5  1 -1</clus>
<clus scale="   51.438">  1  5  2 -1</clus>
</clustering>
</event>
<event>
 9    1  0.1927808E-005  0.1120030E+03  0.7546771E-02  0.1257876E+00
         -2   -1    0    0    0  501 -0.00000000000E+00  0.00000000000E+00  0.50185691581E+03  0.50185691581E+03  0.00000000000E+00 0.  1.
         21   -1    0    0  501  502  0.00000000000E+00 -0.00000000000E+00 -0.10132580970E+03  0.10132580970E+03  0.00000000000E+00 0. -1.
         23    2    1    2    0    0 -0.47005746781E+02 -0.55646005571E+02  0.42953493220E+03  0.44526854294E+03  0.91966293762E+02 0.  0.
         23    2    1    2    0    0  0.39689860533E+01  0.14996128870E+02  0.27368554461E+01  0.90742416813E+02  0.89364753118E+02 0.  0.
        -11    1    4    4    0    0 -0.34674617737E+02 -0.18631026622E+02  0.34248547644E+01  0.39511693185E+02  0.00000000000E+00 0.  1.
         11    1    4    4    0    0  0.38643603790E+02  0.33627155492E+02 -0.68799931834E+00  0.51230723628E+02  0.00000000000E+00 0. -1.
        -11    1    3    3    0    0 -0.40426318577E+02 -0.80127862784E+02  0.36645901545E+03  0.37728897629E+03  0.00000000000E+00 0.  1.
         11    1    3    3    0    0 -0.65794282035E+01  0.24481857212E+02  0.63075916750E+02  0.67979566649E+02  0.00000000000E+00 0. -1.
         -2    1    1    2    0  502  0.43036760728E+02  0.40649876701E+02 -0.31740681539E+02  0.67171765753E+02  0.00000000000E+00 0.  1.
<scales pt_clust_5="13000.00000" pt_clust_6="13000.00000" pt_clust_7="13000.00000" pt_clust_8="13000.00000" pt_clust_9="59.19945"></scales>
<clustering>
<clus scale="   59.199">  2  9  1 -1</clus>
<clus scale="   89.365">  5  6 -1 -1</clus>
<clus scale="   91.966">  7  8 -1 -1</clus>
<clus scale="  109.877">  2  5  1 -1</clus>
<clus scale="   59.199">  2  5  1 -1</clus>
</clustering>
</event>
<event>
 9    1  0.1601012E-005  0.9841337E+02  0.7546771E-02  0.1283702E+00
         21   -1    0    0  501  502  0.00000000000E+00  0.00000000000E+00  0.13383692471E+03  0.13383692471E+03  0.00000000000E+00 0. -1.
          2   -1    0    0  502    0 -0.00000000000E+00 -0.00000000000E+00 -0.30347868389E+03  0.30347868389E+03  0.00000000000E+00 0. -1.
         23    2    1    2    0    0 -0.31481974984E+02 -0.13537557811E+01 -0.19390842082E+03  0.21703594657E+03  0.92256051490E+02 0.  0.
         23    2    1    2    0    0  0.38364902221E+02 -0.28269873552E+02 -0.67369992216E+02  0.12372806736E+03  0.92189301594E+02 0.  0.
        -11    1    4    4    0    0  0.67901677793E+02 -0.92257120018E+01 -0.47188638670E+02  0.83201678040E+02  0.00000000000E+00 0.  1.
         11    1    4    4    0    0 -0.29536775572E+02 -0.19044161550E+02 -0.20181353546E+02  0.40526389320E+02  0.00000000000E+00 0. -1.
        -11    1    3    3    0    0  0.26967725844E+02 -0.14207846241E+02 -0.10882272001E+03  0.11301108584E+03  0.00000000000E+00 0. -1.
         11    1    3    3    0    0 -0.58449700828E+02  0.12854090460E+02 -0.85085700803E+02  0.10402486073E+03  0.00000000000E+00 0.  1.
          2    1    1    2  501    0 -0.68829272369E+01  0.29623629333E+02  0.91636653858E+02  0.96551594665E+02  0.00000000000E+00 0. -1.
<scales pt_clust_5="13000.00000" pt_clust_6="13000.00000" pt_clust_7="13000.00000" pt_clust_8="13000.00000" pt_clust_9="30.41273"></scales>
<clustering>
<clus scale="   30.413">  1  9  2 -1</clus>
<clus scale="   92.189">  5  6 -1 -1</clus>
<clus scale="   92.256">  7  8 -1 -1</clus>
<clus scale="   98.351">  1  5  2 -1</clus>
<clus scale="   30.413">  1  5  2 -1</clus>
</clustering>
</event>
<event>
 9    1  0.1601012E-005  0.2253528E+03  0.7546771E-02  0.1130018E+00
          2   -1    0    0  502    0 -0.00000000000E+00  0.00000000000E+00  0.35208908956E+03  0.35208908956E+03  0.00000000000E+00 0. -1.
         21   -1    0    0  501  502  0.00000000000E+00 -0.00000000000E+00 -0.29292205716E+03  0.29292205716E+03  0.00000000000E+00 0. -1.
         23    2    1    2    0    0  0.22271736661E+03  0.33244864255E+02  0.22146019469E+03  0.32895894145E+03  0.91984351571E+02 0.  0.
         23    2    1    2    0    0 -0.13599129960E+03 -0.12569746889E+02 -0.15632736707E+03  0.22669638907E+03  0.91111881868E+02 0.  0.
        -13    1    3    3    0    0  0.48331717930E+02  0.44720657240E+02  0.83285405492E+02  0.10617132810E+03  0.00000000000E+00 0. -1.
         13    1    3    3    0    0  0.17438564868E+03 -0.11475792985E+02  0.13817478920E+03  0.22278761335E+03  0.00000000000E+00 0.  1.
        -13    1    4    4    0    0 -0.10765375760E+03  0.24195733947E+02 -0.76198405480E+02  0.13409310968E+03  0.00000000000E+00 0.  1.
         13    1    4    4    0    0 -0.28337542005E+02 -0.36765480836E+02 -0.80128961591E+02  0.92603279389E+02  0.00000000000E+00 0. -1.
          2    1    1    2  501    0 -0.86726067009E+02 -0.20675117366E+02 -0.59657952280E+01  0.89355816205E+02  0.00000000000E+00 0. -1.
<scales pt_clust_5="13000.00000" pt_clust_6="13000.00000" pt_clust_7="13000.00000" pt_clust_8="13000.00000" pt_clust_9="89.15644"></scales>
<clustering>
<clus scale="   89.156">  2  9  1 -1</clus>
<clus scale="   91.112">  7  8 -1 -1</clus>
<clus scale="   91.984">  5  6 -1 -1</clus>
<clus scale="  224.998">  2  7  1 -1</clus>
<clus scale="   89.156">  2  5  1 -1</clus>
</clustering>
</event>
<event>
 9    1  0.1601012E-005  0.1156064E+03  0.7546771E-02  0.1252569E+00
         21   -1    0    0  501  502  0.00000000000E+00  0.00000000000E+00  0.87590598191E+02  0.87590598191E+02  0.00000000000E+00 0. -1.
         -3   -1    0    0    0  501 -0.00000000000E+00 -0.00000000000E+00 -0.40279582938E+03  0.40279582938E+03  0.00000000000E+00 0.  1.
         23    2    1    2    0    0  0.58912365358E+00  0.69400379142E+02 -0.31210239943E+03  0.33227734808E+03  0.90463078778E+02 0.  0.
         23    2    1    2    0    0  0.86573846833E+01 -0.45503673451E+02 -0.39385876343E+02  0.11369050474E+03  0.96066378119E+02 0.  0.
        -11    1    3    3    0    0 -0.17595727806E+02  0.86361779065E+02 -0.22346482200E+03  0.24021759551E+03  0.00000000000E+00 0.  1.
         11    1    3    3    0    0  0.18184851460E+02 -0.16961399923E+02 -0.88637577433E+02  0.92059752569E+02  0.00000000000E+00 0. -1.
        -13    1    4    4    0    0 -0.22911810682E+02 -0.59875233676E+02 -0.41454558261E+01  0.64243127885E+02  0.00000000000E+00 0. -1.
         13    1    4    4    0    0  0.31569195365E+02  0.14371560225E+02 -0.35240420517E+02  0.49447376852E+02  0.00000000000E+00 0.  1.
         -3    1    1    2    0  502 -0.92465083369E+01 -0.23896705691E+02  0.36283044584E+02  0.44418574759E+02  0.00000000000E+00 0.  1.
<scales pt_clust_5="13000.00000" pt_clust_6="13000.00000" pt_clust_7="13000.00000" pt_clust_8="13000.00000" pt_clust_9="25.62324"></scales>
<clustering>
<clus scale="   25.623">  1  9  2 -1</clus>
<clus scale="   90.463">  5  6 -1 -1</clus>
<clus scale="   96.066">  7  8 -1 -1</clus>
<clus scale="  110.994">  2  5  1 -1</clus>
<clus scale="   25.623">  1  5  2 -1</clus>
</clustering>
</event>
<event>
 9    1  0.1601012E-005  0.9976102E+02  0.7546771E-02  0.1281616E+00
         21   -1    0    0  501  502  0.00000000000E+00  0.00000000000E+00  0.27804909207E+03  0.27804909207E+03  0.00000000000E+00 0.  1.
         -3   -1    0    0    0  501 -0.00000000000E+00 -0.00000000000E+00 -0.81052612708E+02  0.81052612708E+02  0.00000000000E+00 0.  1.
         23    2    1    2    0    0 -0.32891308091E+02  0.13554494915E+02  0.63296302327E+01  0.99980881182E+02  0.93223118928E+02 0.  0.
         23    2    1    2    0    0 -0.50304428721E+01 -0.62988454992E+02  0.10337170782E+03  0.15187243293E+03  0.91578791691E+02 0.  0.
        -11    1    3    3    0    0  0.30194564096E+02  0.24957872753E+01 -0.13161710247E+02  0.33032881675E+02  0.00000000000E+00 0. -1.
         11    1    3    3    0    0 -0.63085872187E+02  0.11058707640E+02  0.19491340480E+02  0.66947999507E+02  0.00000000000E+00 0.  1.
        -13    1    4    4    0    0 -0.14492112340E+02 -0.14942693504E+02 -0.13735500638E+02  0.24939314084E+02  0.00000000000E+00 0. -1.
         13    1    4    4    0    0  0.94616694682E+01 -0.48045761488E+02  0.11710720846E+03  0.12693311884E+03  0.00000000000E+00 0.  1.
         -3    1    1    2    0  502  0.37921750963E+02  0.49433960077E+02  0.87295141305E+02  0.10724839067E+03  0.00000000000E+00 0.  1.
<scales pt_clust_5="13000.00000" pt_clust_6="13000.00000" pt_clust_7="13000.00000" pt_clust_8="13000.00000" pt_clust_9="62.30390"></scales>
<clustering>
<clus scale="   62.304">  1  9  2 -1</clus>
<clus scale="   91.579">  7  8 -1 -1</clus>
<clus scale="   93.223">  5  6 -1 -1</clus>
<clus scale="   98.226">  1  7  2 -1</clus>
<clus scale="   62.304">  1  5  2 -1</clus>
</clustering>
</event>
<event>
 9    1  0.1601012E-005  0.1024915E+03  0.7546771E-02  0.1281092E+00
         21   -1    0    0  501  502  0.00000000000E+00  0.00000000000E+00  0.31822606843E+03  0.31822606843E+03  0.00000000000E+00 0. -1.
         -4   -1    0    0    0  501 -0.00000000000E+00 -0.00000000000E+00 -0.60002411879E+02  0.60002411879E+02  0.00000000000E+00 0.  1.
         23    2    1    2    0    0 -0.17363482509E+02  0.42218486283E+02  0.98430973542E+02  0.14829250385E+03  0.10108471218E+03 0.  0.
         23    2    1    2    0    0  0.13087477411E+02  0.27194807727E+02  0.10423561599E+03  0.14092430700E+03  0.89909715994E+02 0.  0.
        -11    1    4    4    0    0  0.37809109204E+02  0.38430182443E+02  0.99770872639E+02  0.11340473839E+03  0.00000000000E+00 0. -1.
         11    1    4    4    0    0 -0.24721631794E+02 -0.11235374716E+02  0.44647433554E+01  0.27519568616E+02  0.00000000000E+00 0.  1.
        -11    1    3    3    0    0 -0.22608487362E+02  0.66944955725E+02  0.32680978440E+02  0.77851250148E+02  0.00000000000E+00 0.  1.
         11    1    3    3    0    0  0.52450048523E+01 -0.24726469442E+02  0.65749995102E+02  0.70441253700E+02  0.00000000000E+00 0. -1.
         -4    1    1    2    0  502  0.42760050985E+01 -0.69413294009E+02  0.55557067016E+02  0.89011669461E+02  0.00000000000E+00 0.  1.
<scales pt_clust_5="13000.00000" pt_clust_6="13000.00000" pt_clust_7="13000.00000" pt_clust_8="13000.00000" pt_clust_9="69.54491"></scales>
<clustering>
<clus scale="   69.545">  1  9  2 -1</clus>
<clus scale="   89.910">  5  6 -1 -1</clus>
<clus scale="   91.489">  1  5  2 -1</clus>
<clus scale="  101.085">  7  8 -1 -1</clus>
<clus scale="   69.545">  1  5  2 -1</clus>
</clustering>
</event>
<event>
 9    1  0.1601012E-005  0.1105779E+03  0.7546771E-02  0.1263159E+00
         21   -1    0    0  501  502  0.00000000000E+00  0.00000000000E+00  0.10610273827E+03  0.10610273827E+03  0.00000000000E+00 0.  1.
          1   -1    0    0  502    0 -0.00000000000E+00 -0.00000000000E+00 -0.40822303626E+03  0.40822303626E+03  0.00000000000E+00 0. -1.
         23    2    1    2    0    0 -0.20054138558E+02 -0.83309973141E+01 -0.18684280432E+03  0.21304216425E+03  0.10002577783E+03 0.  0.
         23    2    1    2    0    0  0.58709619653E+02  0.83913910739E+02 -0.15539877308E+03  0.20738611255E+03  0.91497853235E+02 0.  0.
        -11    1    4    4    0    0  0.33160790836E+02  0.10321213399E+00 -0.95910248351E+02  0.10148115313E+03  0.00000000000E+00 0. -1.
         11    1    4    4    0    0  0.25548828816E+02  0.83810698605E+02 -0.59488524730E+02  0.10590495942E+03  0.00000000000E+00 0.  1.
        -11    1    3    3    0    0  0.43163432668E+01 -0.50075794665E+02 -0.66524191144E+02  0.83376759579E+02  0.00000000000E+00 0. -1.
         11    1    3    3    0    0 -0.24370481825E+02  0.41744797351E+02 -0.12031861318E+03  0.12966540467E+03  0.00000000000E+00 0.  1.
          1    1    1    2  501    0 -0.38655481094E+02 -0.75582913425E+02  0.40121279411E+02  0.93897497741E+02  0.00000000000E+00 0. -1.
<scales pt_clust_5="13000.00000" pt_clust_6="13000.00000" pt_clust_7="13000.00000" pt_clust_8="13000.00000" pt_clust_9="84.89419"></scales>
<clustering>
<clus scale="   84.894">  1  9  2 -1</clus>
<clus scale="   91.498">  5  6 -1 -1</clus>
<clus scale="  100.026">  7  8 -1 -1</clus>
<clus scale="  102.928">  1  5  2 -1</clus>
<clus scale="   84.894">  1  5  2 -1</clus>
</clustering>
</event>
<event>
 9    1  0.1601012E-005  0.1028819E+03  0.7546771E-02  0.1276969E+00
          1   -1    0    0  502    0 -0.00000000000E+00  0.00000000000E+00  0.18602676820E+03  0.18602676820E+03  0.00000000000E+00 0. -1.
         21   -1    0    0  501  502  0.00000000000E+00 -0.00000000000E+00 -0.12225677186E+03  0.12225677186E+03  0.00000000000E+00 0. -1.
         23    2    1    2    0    0 -0.15639160179E+02  0.16247632063E+02  0.73139422862E+02  0.12252923639E+03  0.95684218737E+02 0.  0.
         23    2    1    2    0    0  0.22887734510E+02  0.25263355989E+01  0.55821553278E+02  0.11752771399E+03  0.10082899872E+03 0.  0.
        -11    1    4    4    0    0  0.42762666230E+02  0.29680096202E+02 -0.34251021937E+00  0.52054500736E+02  0.00000000000E+00 0.  1.
         11    1    4    4    0    0 -0.19874931720E+02 -0.27153760603E+02  0.56164063498E+02  0.65473213258E+02  0.00000000000E+00 0. -1.
        -13    1    3    3    0    0 -0.54348999455E+02  0.15028599127E+01  0.54907045059E+02  0.77271313738E+02  0.00000000000E+00 0. -1.
         13    1    3    3    0    0  0.38709839276E+02  0.14744772150E+02  0.18232377804E+02  0.45257922654E+02  0.00000000000E+00 0.  1.
          1    1    1    2  501    0 -0.72485743306E+01 -0.18773967662E+02 -0.65190979795E+02  0.68226589672E+02  0.00000000000E+00 0. -1.
<scales pt_clust_5="13000.00000" pt_clust_6="13000.00000" pt_clust_7="13000.00000" pt_clust_8="13000.00000" pt_clust_9="20.12470"></scales>
<clustering>
<clus scale="   20.125">  2  9  1 -1</clus>
<clus scale="   95.684">  7  8 -1 -1</clus>
<clus scale="   97.845">  1  7  2 -1</clus>
<clus scale="  100.829">  5  6 -1 -1</clus>
<clus scale="   20.125">  2  5  1 -1</clus>
</clustering>
</event>
<event>
 9    1  0.1601012E-005  0.9763800E+02  0.7546771E-02  0.1287564E+00
         21   -1    0    0  501  502  0.00000000000E+00  0.00000000000E+00  0.40808515387E+03  0.40808515387E+03  0.00000000000E+00 0.  1.
          1   -1    0    0  502    0 -0.00000000000E+00 -0.00000000000E+00 -0.11259592003E+03  0.11259592003E+03  0.00000000000E+00 0. -1.
         23    2    1    2    0    0 -0.18460672227E+02  0.11547233818E+02 -0.59112376862E+02  0.11239099534E+03  0.93076998807E+02 0.  0.
         23    2    1    2    0    0  0.71558406586E+02 -0.12396806654E+02  0.11351865964E+03  0.16142760580E+03  0.88871252149E+02 0.  0.
        -11    1    3    3    0    0  0.28735528688E+02  0.24665875564E+02 -0.31245366411E+01  0.37998667813E+02  0.00000000000E+00 0.  1.
         11    1    3    3    0    0 -0.47196200916E+02 -0.13118641746E+02 -0.55987840220E+02  0.74392327526E+02  0.00000000000E+00 0. -1.
        -13    1    4    4    0    0  0.91761370829E+02 -0.18262665014E+02  0.96001517275E+02  0.13405209968E+03  0.00000000000E+00 0.  1.
         13    1    4    4    0    0 -0.20202964243E+02  0.58658583598E+01  0.17517142366E+02  0.27375506117E+02  0.00000000000E+00 0. -1.
          1    1    1    2  501    0 -0.53097734359E+02  0.84957283614E+00  0.24108295106E+03  0.24686247276E+03  0.00000000000E+00 0. -1.
<scales pt_clust_5="13000.00000" pt_clust_6="13000.00000" pt_clust_7="13000.00000" pt_clust_8="13000.00000" pt_clust_9="53.10453"></scales>
<clustering>
<clus scale="   53.105">  1  9  2 -1</clus>
<clus scale="   88.871">  7  8 -1 -1</clus>
<clus scale="   93.077">  5  6 -1 -1</clus>
<clus scale="   93.637">  1  7  2 -1</clus>
<clus scale="   53.105">  1  5  2 -1</clus>
</clustering>
</event>
<event>
 9    1  0.1601012E-005  0.2649694E+03  0.7546771E-02  0.1104224E+00
         -1   -1    0    0    0  501 -0.00000000000E+00  0.00000000000E+00  0.40390791031E+03  0.40390791031E+03  0.00000000000E+00 0.  1.
         21   -1    0    0  501  502  0.00000000000E+00 -0.00000000000E+00 -0.28005311123E+03  0.28005311123E+03  0.00000000000E+00 0.  1.
         23    2    1    2    0    0  0.17794392579E+03  0.84718488411E+02  0.29351233545E+02  0.21931984329E+03  0.91642979797E+02 0.  0.
         23    2    1    2    0    0 -0.29617022108E+03 -0.11570433610E+03  0.87975073770E+02  0.34224754747E+03  0.91046564448E+02 0.  0.
        -11    1    3    3    0    0  0.12691001228E+03  0.11073224543E+02  0.11052006976E+02  0.12787069397E+03  0.00000000000E+00 0. -1.
         11    1    3    3    0    0  0.51033913516E+02  0.73645263869E+02  0.18299226569E+02  0.91449149324E+02  0.00000000000E+00 0.  1.
        -11    1    4    4    0    0 -0.57632543653E+02 -0.50967675971E+02  0.51064519258E+02  0.92340669311E+02  0.00000000000E+00 0. -1.
         11    1    4    4    0    0 -0.23853767742E+03 -0.64736660125E+02  0.36910554512E+02  0.24990687815E+03  0.00000000000E+00 0.  1.
         -1    1    1    2    0  502  0.11822629528E+03  0.30985847684E+02  0.65284917629E+01  0.12239363079E+03  0.00000000000E+00 0.  1.
<scales pt_clust_5="13000.00000" pt_clust_6="13000.00000" pt_clust_7="13000.00000" pt_clust_8="13000.00000" pt_clust_9="122.21939"></scales>
<clustering>
<clus scale="   91.047">  7  8 -1 -1</clus>
<clus scale="   91.643">  5  6 -1 -1</clus>
<clus scale="  122.219">  2  9  1 -1</clus>
<clus scale="  264.764">  2  7  1 -1</clus>
<clus scale="  122.219">  2  5  1 -1</clus>
</clustering>
</event>
<event>
 9    1  0.1601012E-005  0.1227244E+03  0.7546771E-02  0.1239324E+00
         -2   -1    0    0    0  501 -0.00000000000E+00  0.00000000000E+00  0.95448410185E+02  0.95448410185E+02  0.00000000000E+00 0.  1.
         21   -1    0    0  501  502  0.00000000000E+00 -0.00000000000E+00 -0.23939622850E+03  0.23939622850E+03  0.00000000000E+00 0. -1.
         23    2    1    2    0    0 -0.76865162780E+01  0.63454923890E+02 -0.31608411575E+02  0.11761247807E+03  0.93530708418E+02 0.  0.
         23    2    1    2    0    0  0.36398309378E+02 -0.97009925051E+02 -0.65641078548E+02  0.15295900119E+03  0.91388961967E+02 0.  0.
        -11    1    3    3    0    0 -0.34642407275E+02  0.26620401355E+01 -0.37168847826E+02  0.50879328692E+02  0.00000000000E+00 0. -1.
         11    1    3    3    0    0  0.26955890997E+02  0.60792883754E+02  0.55604362512E+01  0.66733149378E+02  0.00000000000E+00 0.  1.
        -13    1    4    4    0    0  0.28151354324E+02  0.93246286407E+01 -0.44198580846E+01  0.29983038456E+02  0.00000000000E+00 0.  1.
         13    1    4    4    0    0  0.82469550543E+01 -0.10633455369E+03 -0.61221220463E+02  0.12297596274E+03  0.00000000000E+00 0. -1.
         -2    1    1    2    0  502 -0.28711793100E+02  0.33555001161E+02 -0.46698328188E+02  0.64273159417E+02  0.00000000000E+00 0.  1.
<scales pt_clust_5="13000.00000" pt_clust_6="13000.00000" pt_clust_7="13000.00000" pt_clust_8="13000.00000" pt_clust_9="44.16226"></scales>
<clustering>
<clus scale="   44.162">  2  9  1 -1</clus>
<clus scale="   91.389">  7  8 -1 -1</clus>
<clus scale="   93.531">  5  6 -1 -1</clus>
<clus scale="  121.100">  2  7  1 -1</clus>
<clus scale="   44.162">  2  5  1 -1</clus>
</clustering>
</event>
<event>
 9    1  0.1601012E-005  0.1170675E+03  0.7546771E-02  0.1249046E+00
         21   -1    0    0  501  502  0.00000000000E+00  0.00000000000E+00  0.71539599539E+02  0.71539599539E+02  0.00000000000E+00 0. -1.
         -3   -1    0    0    0  501 -0.00000000000E+00 -0.00000000000E+00 -0.46610349076E+03  0.46610349076E+03  0.00000000000E+00 0.  1.
         23    2    1    2    0    0 -0.14767569773E+02 -0.69191448595E+02 -0.27401080883E+03  0.29830580372E+03  0.94333936107E+02 0.  0.
         23    2    1    2    0    0  0.48804760043E+02  0.51924359883E+02 -0.31626134225E+01  0.11589821303E+03  0.91347413251E+02 0.  0.
        -13    1    3    3    0    0 -0.23962920109E+02 -0.46442975881E+01 -0.10024206632E+02  0.26387037705E+02  0.00000000000E+00 0. -1.
         13    1    3    3    0    0  0.91953503354E+01 -0.64547151007E+02 -0.26398660220E+03  0.27191876602E+03  0.00000000000E+00 0.  1.
        -13    1    4    4    0    0 -0.65424357044E+01  0.20703321105E+02  0.35428239544E+02  0.41552269817E+02  0.00000000000E+00 0. -1.
         13    1    4    4    0    0  0.55347195747E+02  0.31221038778E+02 -0.38590852967E+02  0.74345943213E+02  0.00000000000E+00 0.  1.
         -3    1    1    2    0  502 -0.34037190269E+02  0.17267088712E+02 -0.11739046897E+03  0.12343907355E+03  0.00000000000E+00 0.  1.
<scales pt_clust_5="13000.00000" pt_clust_6="13000.00000" pt_clust_7="13000.00000" pt_clust_8="13000.00000" pt_clust_9="38.16653"></scales>
<clustering>
<clus scale="   38.167">  1  9  2 -1</clus>
<clus scale="   91.347">  7  8 -1 -1</clus>
<clus scale="   94.334">  5  6 -1 -1</clus>
<clus scale="  114.675">  1  7  2 -1</clus>
<clus scale="   38.167">  1  5  2 -1</clus>
</clustering>
</event>
<event>
 9    1  0.1601012E-005  0.9499581E+02  0.7546771E-02  0.1291218E+00
         21   -1    0    0  501  502  0.00000000000E+00  0.00000000000E+00  0.37175683632E+02  0.37175683632E+02  0.00000000000E+00 0. -1.
         -1   -1    0    0    0  501 -0.00000000000E+00 -0.00000000000E+00 -0.46577260336E+03  0.46577260336E+03  0.00000000000E+00 0.  1.
         23    2    1    2    0    0  0.19755264492E+02 -0.31109161871E+02 -0.31610501692E+03  0.33061307971E+03  0.89579999574E+02 0.  0.
         23    2    1    2    0    0  0.29345581664E+01  0.23417204289E+02 -0.11560185401E+03  0.14817602559E+03  0.89640218776E+02 0.  0.
        -11    1    3    3    0    0 -0.32462475965E+02 -0.54897304219E+01 -0.17361340475E+03  0.17670756575E+03  0.00000000000E+00 0.  1.
         11    1    3    3    0    0  0.52217740457E+02 -0.25619431449E+02 -0.14249161217E+03  0.15390551396E+03  0.00000000000E+00 0. -1.
        -13    1    4    4    0    0  0.17642620541E+02 -0.27157823152E+02 -0.17455720718E+02  0.36790101980E+02  0.00000000000E+00 0.  1.
         13    1    4    4    0    0 -0.14708062374E+02  0.50575027441E+02 -0.98146133292E+02  0.11138592362E+03  0.00000000000E+00 0. -1.
         -1    1    1    2    0  502 -0.22689822659E+02  0.76919575817E+01  0.31099511979E+01  0.24159181695E+02  0.00000000000E+00 0.  1.
<scales pt_clust_5="13000.00000" pt_clust_6="13000.00000" pt_clust_7="13000.00000" pt_clust_8="13000.00000" pt_clust_9="23.95818"></scales>
<clustering>
<clus scale="   23.958">  1  9  2 -1</clus>
<clus scale="   89.580">  5  6 -1 -1</clus>
<clus scale="   89.640">  7  8 -1 -1</clus>
<clus scale="   94.939">  2  5  1 -1</clus>
<clus scale="   23.958">  1  5  2 -1</clus>
</clustering>
</event>
<event>
 9    1  0.1601012E-005  0.9914714E+02  0.7546771E-02  0.1283247E+00
         21   -1    0    0  501  502  0.00000000000E+00  0.00000000000E+00  0.19801602457E+03  0.19801602457E+03  0.00000000000E+00 0. -1.
          3   -1    0    0  502    0 -0.00000000000E+00 -0.00000000000E+00 -0.86248690956E+02  0.86248690956E+02  0.00000000000E+00 0. -1.
         23    2    1    2    0    0 -0.13477085168E+02 -0.38056210489E+02  0.80523231434E+01  0.10280623012E+03  0.94203896212E+02 0.  0.
         23    2    1    2    0    0  0.27604742069E+02  0.64288886019E+01  0.31306993685E+02  0.10119143691E+03  0.91957743871E+02 0.  0.
        -13    1    4    4    0    0 -0.30141765967E+02  0.20893196922E+02  0.10902259334E+02  0.38261089788E+02  0.00000000000E+00 0.  1.
         13    1    4    4    0    0  0.57746508036E+02 -0.14464308320E+02  0.20404734351E+02  0.62930347126E+02  0.00000000000E+00 0. -1.
        -13    1    3    3    0    0 -0.50363649112E+02 -0.37153842037E+02  0.16972390360E+02  0.64845718166E+02  0.00000000000E+00 0. -1.
         13    1    3    3    0    0  0.36886563944E+02 -0.90236845174E+00 -0.89200672162E+01  0.37960511951E+02  0.00000000000E+00 0.  1.
          3    1    1    2  501    0 -0.14127656901E+02  0.31627321887E+02  0.72408016787E+02  0.80267048496E+02  0.00000000000E+00 0. -1.
<scales pt_clust_5="13000.00000" pt_clust_6="13000.00000" pt_clust_7="13000.00000" pt_clust_8="13000.00000" pt_clust_9="34.63926"></scales>
<clustering>
<clus scale="   34.639">  1  9  2 -1</clus>
<clus scale="   91.958">  5  6 -1 -1</clus>
<clus scale="   94.204">  7  8 -1 -1</clus>
<clus scale="   97.016">  1  5  2 -1</clus>
<clus scale="   34.639">  1  5  2 -1</clus>
</clustering>
</event>
<event>
 9    1  0.1601012E-005  0.1258161E+03  0.7546771E-02  0.1234256E+00
          2   -1    0    0  502    0 -0.00000000000E+00  0.00000000000E+00  0.20339824192E+03  0.20339824192E+03  0.00000000000E+00 0. -1.
         21   -1    0    0  501  502  0.00000000000E+00 -0.00000000000E+00 -0.14725318879E+03  0.14725318879E+03  0.00000000000E+00 0. -1.
         23    2    1    2    0    0 -0.89942390632E+02  0.23601585717E+02  0.94821748370E+02  0.16110359702E+03  0.91195046628E+02 0.  0.
         23    2    1    2    0    0  0.70677881115E+02 -0.33989637136E+02  0.25490321628E+02  0.12175079103E+03  0.89570309302E+02 0.  0.
        -11    1    3    3    0    0 -0.22767909276E+02  0.51647289077E+02  0.51416979292E+02  0.76351332152E+02  0.00000000000E+00 0.  1.
         11    1    3    3    0    0 -0.67174481356E+02 -0.28045703361E+02  0.43404769078E+02  0.84752264873E+02  0.00000000000E+00 0. -1.
        -13    1    4    4    0    0  0.71398156907E+01  0.19477223290E+02 -0.18484317750E+02  0.27785053498E+02  0.00000000000E+00 0.  1.
         13    1    4    4    0    0  0.63538065424E+02 -0.53466860426E+02  0.43974639378E+02  0.93965737533E+02  0.00000000000E+00 0. -1.
          2    1    1    2  501    0  0.19264509517E+02  0.10388051419E+02 -0.64167016866E+02  0.67797042655E+02  0.00000000000E+00 0. -1.
<scales pt_clust_5="13000.00000" pt_clust_6="13000.00000" pt_clust_7="13000.00000" pt_clust_8="13000.00000" pt_clust_9="21.88682"></scales>
<clustering>
<clus scale="   21.887">  2  9  1 -1</clus>
<clus scale="   89.570">  7  8 -1 -1</clus>
<clus scale="   91.195">  5  6 -1 -1</clus>
<clus scale="  124.643">  2  7  1 -1</clus>
<clus scale="   21.887">  2  5  1 -1</clus>
</clustering>
</event>
<event>
 9    1  0.1601012E-005  0.9519837E+02  0.7546771E-02  0.1291029E+00
          3   -1    0    0  502    0 -0.00000000000E+00  0.00000000000E+00  0.37185506750E+03  0.37185506750E+03  0.00000000000E+00 0. -1.
         21   -1    0    0  501  502  0.00000000000E+00 -0.00000000000E+00 -0.56250499614E+02  0.56250499614E+02  0.00000000000E+00 0.  1.
         23    2    1    2    0    0 -0.23837827534E+02 -0.88135051331E+01  0.15939985879E+03  0.18479051896E+03  0.89962775750E+02 0.  0.
         23    2    1    2    0    0 -0.86861522554E+01  0.67985367338E+02  0.68407134659E+02  0.13255615409E+03  0.90521480881E+02 0.  0.
        -13    1    3    3    0    0 -0.11847781454E+02 -0.45526700632E+02  0.12312031747E+03  0.13180160458E+03  0.00000000000E+00 0. -1.
         13    1    3    3    0    0 -0.11990046080E+02  0.36713195498E+02  0.36279541319E+02  0.52988914379E+02  0.00000000000E+00 0.  1.
        -13    1    4    4    0    0  0.25439863030E+02  0.31475291481E+02 -0.80025974017E+01  0.41254359406E+02  0.00000000000E+00 0.  1.
         13    1    4    4    0    0 -0.34126015286E+02  0.36510075856E+02  0.76409732060E+02  0.91301794680E+02  0.00000000000E+00 0. -1.
          3    1    1    2  501    0  0.32523979789E+02 -0.59171862205E+02  0.87797574437E+02  0.11075889407E+03  0.00000000000E+00 0. -1.
<scales pt_clust_5="13000.00000" pt_clust_6="13000.00000" pt_clust_7="13000.00000" pt_clust_8="13000.00000" pt_clust_9="67.52128"></scales>
<clustering>
<clus scale="   67.521">  2  9  1 -1</clus>
<clus scale="   89.963">  5  6 -1 -1</clus>
<clus scale="   90.521">  7  8 -1 -1</clus>
<clus scale="   94.667">  1  5  2 -1</clus>
<clus scale="   67.521">  2  5  1 -1</clus>
</clustering>
</event>
<event>
 9    1  0.1601012E-005  0.1735926E+03  0.7546771E-02  0.1195357E+00
         21   -1    0    0  501  502  0.00000000000E+00  0.00000000000E+00  0.73335409550E+03  0.73335409550E+03  0.00000000000E+00 0.  1.
         -3   -1    0    0    0  501 -0.00000000000E+00 -0.00000000000E+00 -0.91649842475E+02  0.91649842475E+02  0.00000000000E+00 0.  1.
         23    2    1    2    0    0  0.13650105169E+02  0.60779027170E+02  0.50530806379E+01  0.10831048710E+03  0.88460231044E+02 0.  0.
         23    2    1    2    0    0 -0.13894451315E+03  0.36507742283E+02  0.34947307393E+03  0.38861622763E+03  0.90844647581E+02 0.  0.
        -11    1    3    3    0    0  0.35292579714E+02  0.67150993748E+02  0.23230544400E+02  0.79337761106E+02  0.00000000000E+00 0.  1.
         11    1    3    3    0    0 -0.21642474545E+02 -0.63719665779E+01 -0.18177463762E+02  0.28972725991E+02  0.00000000000E+00 0. -1.
        -11    1    4    4    0    0 -0.75537233414E+02 -0.23895911962E+02  0.20364527931E+03  0.21851381655E+03  0.00000000000E+00 0. -1.
         11    1    4    4    0    0 -0.63407279734E+02  0.60403654245E+02  0.14582779462E+03  0.17010241108E+03  0.00000000000E+00 0.  1.
         -3    1    1    2    0  502  0.12529440798E+03 -0.97286769453E+02  0.28717809846E+03  0.32807722325E+03  0.00000000000E+00 0.  1.
<scales pt_clust_5="13000.00000" pt_clust_6="13000.00000" pt_clust_7="13000.00000" pt_clust_8="13000.00000" pt_clust_9="147.92447"></scales>
<clustering>
<clus scale="   88.460">  5  6 -1 -1</clus>
<clus scale="   90.845">  7  8 -1 -1</clus>
<clus scale="  108.193">  2  5  1 -1</clus>
<clus scale="  147.924">  1  9  2 -1</clus>
<clus scale="  147.924">  1  5  2 -1</clus>
</clustering>
</event>
<event>
 9    1  0.1601012E-005  0.1066137E+03  0.7546771E-02  0.1268051E+00
         21   -1    0    0  501  502  0.00000000000E+00  0.00000000000E+00  0.33937069573E+02  0.33937069573E+02  0.00000000000E+00 0.  1.
          1   -1    0    0  502    0 -0.00000000000E+00 -0.00000000000E+00 -0.49072522837E+03  0.49072522837E+03  0.00000000000E+00 0. -1.
         23    2    1    2    0    0  0.11483028411E+02  0.55024387231E+02 -0.31376217562E+03  0.33175759880E+03  0.91961178668E+02 0.  0.
         23    2    1    2    0    0 -0.52509423765E+01 -0.32112781442E+02 -0.88641400891E+02  0.13356278001E+03  0.94461183155E+02 0.  0.
        -11    1    3    3    0    0  0.16415604468E+02 -0.22932844334E+02 -0.10936648820E+03  0.11294430557E+03  0.00000000000E+00 0.  1.
         11    1    3    3    0    0 -0.49325760571E+01  0.77957231565E+02 -0.20439568742E+03  0.21881329324E+03  0.00000000000E+00 0. -1.
        -13    1    4    4    0    0 -0.14926471402E+02  0.19479636824E+02 -0.75588336569E+02  0.79472337480E+02  0.00000000000E+00 0. -1.
         13    1    4    4    0    0  0.96755290250E+01 -0.51592418266E+02 -0.13053064322E+02  0.54090442526E+02  0.00000000000E+00 0.  1.
          1    1    1    2  501    0 -0.62320860345E+01 -0.22911605789E+02 -0.54384582284E+02  0.59341919133E+02  0.00000000000E+00 0. -1.
<scales pt_clust_5="13000.00000" pt_clust_6="13000.00000" pt_clust_7="13000.00000" pt_clust_8="13000.00000" pt_clust_9="23.74408"></scales>
<clustering>
<clus scale="   23.744">  1  9  2 -1</clus>
<clus scale="   91.961">  5  6 -1 -1</clus>
<clus scale="   94.461">  7  8 -1 -1</clus>
<clus scale="  104.405">  2  5  1 -1</clus>
<clus scale="   23.744">  1  5  2 -1</clus>
</clustering>
</event>
<event>
 9    1  0.1601012E-005  0.9862622E+02  0.7546771E-02  0.1286506E+00
         21   -1    0    0  501  502  0.00000000000E+00  0.00000000000E+00  0.59771463680E+03  0.59771463680E+03  0.00000000000E+00 0. -1.
          1   -1    0    0  502    0 -0.00000000000E+00 -0.00000000000E+00 -0.37573209384E+02  0.37573209384E+02  0.00000000000E+00 0. -1.
         23    2    1    2    0    0  0.16698201571E+02 -0.28765555878E+02  0.76317842567E+02  0.12223812269E+03  0.89506750607E+02 0.  0.
         23    2    1    2    0    0 -0.22674587011E+02 -0.10429190317E+02  0.16938777454E+03  0.19612414214E+03  0.95653311806E+02 0.  0.
        -11    1    4    4    0    0  0.45039008916E+01 -0.42919313431E+02  0.36086950869E+02  0.56254960774E+02  0.00000000000E+00 0. -1.
         11    1    4    4    0    0 -0.27178487903E+02  0.32490123114E+02  0.13330082367E+03  0.13986918136E+03  0.00000000000E+00 0.  1.
        -13    1    3    3    0    0  0.22559542495E+02  0.23013769230E+02  0.59173935926E+02  0.67380421672E+02  0.00000000000E+00 0.  1.
         13    1    3    3    0    0 -0.58613409247E+01 -0.51779325108E+02  0.17143906640E+02  0.54857701018E+02  0.00000000000E+00 0. -1.
          1    1    1    2  501    0  0.59763854403E+01  0.39194746195E+02  0.31443581031E+03  0.31692558136E+03  0.00000000000E+00 0. -1.
<scales pt_clust_5="13000.00000" pt_clust_6="13000.00000" pt_clust_7="13000.00000" pt_clust_8="13000.00000" pt_clust_9="39.64777"></scales>
<clustering>
<clus scale="   39.648">  1  9  2 -1</clus>
<clus scale="   89.507">  7  8 -1 -1</clus>
<clus scale="   92.677">  2  7  1 -1</clus>
<clus scale="   95.653">  5  6 -1 -1</clus>
<clus scale="   39.648">  1  5  2 -1</clus>
</clustering>
</event>
<event>
 9    1  0.1601012E-005  0.9476250E+02  0.7546771E-02  0.1293118E+00
         -3   -1    0    0    0  501 -0.00000000000E+00  0.00000000000E+00  0.40287642715E+03  0.40287642715E+03  0.00000000000E+00 0.  1.
         21   -1    0    0  501  502  0.00000000000E+00 -0.00000000000E+00 -0.79085267590E+02  0.79085267590E+02  0.00000000000E+00 0. -1.
         23    2    1    2    0    0  0.76969013403E+01 -0.12470596479E+02  0.34333204967E+03  0.35562725440E+03  0.91537367641E+02 0.  0.
         23    2    1    2    0    0  0.77639871406E+01 -0.56970165436E+01  0.15151048739E+01  0.94515324062E+02  0.94011251698E+02 0.  0.
        -11    1    4    4    0    0  0.57151706892E+01  0.22704069032E+02  0.40175927353E+02  0.46499925433E+02  0.00000000000E+00 0.  1.
         11    1    4    4    0    0  0.20488164514E+01 -0.28401085575E+02 -0.38660822479E+02  0.48015398629E+02  0.00000000000E+00 0. -1.
        -13    1    3    3    0    0 -0.40211649104E+02 -0.36799577639E+01  0.20581671347E+03  0.20974040706E+03  0.00000000000E+00 0.  1.
         13    1    3    3    0    0  0.47908550445E+02 -0.87906387153E+01  0.13751533621E+03  0.14588684734E+03  0.00000000000E+00 0. -1.
         -3    1    1    2    0  502 -0.15460888481E+02  0.18167613023E+02 -0.21055994987E+02  0.31819116274E+02  0.00000000000E+00 0.  1.
<scales pt_clust_5="13000.00000" pt_clust_6="13000.00000" pt_clust_7="13000.00000" pt_clust_8="13000.00000" pt_clust_9="23.85584"></scales>
<clustering>
<clus scale="   23.856">  2  9  1 -1</clus>
<clus scale="   91.537">  7  8 -1 -1</clus>
<clus scale="   92.309">  1  7  2 -1</clus>
<clus scale="   94.011">  5  6 -1 -1</clus>
<clus scale="   23.856">  2  5  1 -1</clus>
</clustering>
</event>
<event>
 9    1  0.1601012E-005  0.1071617E+03  0.7546771E-02  0.1266468E+00
         21   -1    0    0  501  502  0.00000000000E+00  0.00000000000E+00  0.37335034688E+02  0.37335034688E+02  0.00000000000E+00 0. -1.
         -3   -1    0    0    0  501 -0.00000000000E+00 -0.00000000000E+00 -0.46929660158E+03  0.46929660158E+03  0.00000000000E+00 0.  1.
         23    2    1    2    0    0 -0.50245041943E+02  0.18809498016E+02 -0.22483067887E+03  0.24826382497E+03  0.90596529597E+02 0.  0.
         23    2    1    2    0    0  0.59598708480E+02  0.55997490709E+01 -0.20453797320E+03  0.23209947240E+03  0.91929426008E+02 0.  0.
        -11    1    3    3    0    0  0.25029222570E+02  0.51355575138E+01 -0.86397240129E+02  0.90096165486E+02  0.00000000000E+00 0.  1.
         11    1    3    3    0    0 -0.75274264512E+02  0.13673940502E+02 -0.13843343874E+03  0.15816765949E+03  0.00000000000E+00 0. -1.
        -13    1    4    4    0    0  0.74499922237E+02 -0.14147035582E+02 -0.18695619011E+03  0.20174983036E+03  0.00000000000E+00 0.  1.
         13    1    4    4    0    0 -0.14901213757E+02  0.19746784653E+02 -0.17581783090E+02  0.30349642044E+02  0.00000000000E+00 0. -1.
         -3    1    1    2    0  502 -0.93536665372E+01 -0.24409247087E+02 -0.25929148281E+01  0.26268338896E+02  0.00000000000E+00 0.  1.
<scales pt_clust_5="13000.00000" pt_clust_6="13000.00000" pt_clust_7="13000.00000" pt_clust_8="13000.00000" pt_clust_9="26.14005"></scales>
<clustering>
<clus scale="   26.140">  1  9  2 -1</clus>
<clus scale="   90.597">  5  6 -1 -1</clus>
<clus scale="   91.929">  7  8 -1 -1</clus>
<clus scale="  106.021">  2  5  1 -1</clus>
<clus scale="   26.140">  1  5  2 -1</clus>
</clustering>
</event>
<event>
 9    1  0.1601012E-005  0.1354716E+03  0.7546771E-02  0.1219602E+00
          4   -1    0    0  502    0 -0.00000000000E+00  0.00000000000E+00  0.12426215820E+03  0.12426215820E+03  0.00000000000E+00 0. -1.
         21   -1    0    0  501  502  0.00000000000E+00 -0.00000000000E+00 -0.20608201174E+03  0.20608201174E+03  0.00000000000E+00 0. -1.
         23    2    1    2    0    0  0.28991782186E+02 -0.90265256407E+02 -0.11153891304E+02  0.13124400171E+03  0.90067967361E+02 0.  0.
         23    2    1    2    0    0 -0.52009163836E+02  0.95852560032E+02 -0.19739975326E+02  0.14293546435E+03  0.90267457898E+02 0.  0.
        -11    1    4    4    0    0  0.13657785606E+02  0.68470302805E+02 -0.16346917441E+02  0.71707316110E+02  0.00000000000E+00 0.  1.
         11    1    4    4    0    0 -0.65666949442E+02  0.27382257227E+02 -0.33930578852E+01  0.71228148240E+02  0.00000000000E+00 0. -1.
        -13    1    3    3    0    0 -0.20565692051E+02 -0.75439893885E+02  0.61189331809E+00  0.78195266432E+02  0.00000000000E+00 0. -1.
         13    1    3    3    0    0  0.49557474237E+02 -0.14825362522E+02 -0.11765784622E+02  0.53048735277E+02  0.00000000000E+00 0.  1.
          4    1    1    2  501    0  0.23017381650E+02 -0.55873036254E+01 -0.50925986911E+02  0.56164703887E+02  0.00000000000E+00 0. -1.
<scales pt_clust_5="13000.00000" pt_clust_6="13000.00000" pt_clust_7="13000.00000" pt_clust_8="13000.00000" pt_clust_9="23.68581"></scales>
<clustering>
<clus scale="   23.686">  2  9  1 -1</clus>
<clus scale="   90.068">  7  8 -1 -1</clus>
<clus scale="   90.267">  5  6 -1 -1</clus>
<clus scale="  135.339">  1  7  2 -1</clus>
<clus scale="   23.686">  2  5  1 -1</clus>
</clustering>
</event>
<event>
 9    1  0.1601012E-005  0.1205808E+03  0.7546771E-02  0.1242938E+00
          1   -1    0    0  502    0 -0.00000000000E+00  0.00000000000E+00  0.46503882347E+03  0.46503882347E+03  0.00000000000E+00 0. -1.
         21   -1    0    0  501  502  0.00000000000E+00 -0.00000000000E+00 -0.46008140736E+02  0.46008140736E+02  0.00000000000E+00 0.  1.
         23    2    1    2    0    0 -0.72940394287E+02 -0.44952528806E+02  0.30587054948E+03  0.33137756557E+03  0.94410099893E+02 0.  0.
         23    2    1    2    0    0  0.47514373234E+02  0.28590533775E+02  0.99896655877E+02  0.14665247479E+03  0.91937871533E+02 0.  0.
        -11    1    3    3    0    0 -0.27712553042E+02 -0.59991344838E+02  0.98594355444E+02  0.11869201311E+03  0.00000000000E+00 0.  1.
         11    1    3    3    0    0 -0.45227841245E+02  0.15038816032E+02  0.20727619403E+03  0.21268555246E+03  0.00000000000E+00 0. -1.
        -11    1    4    4    0    0  0.67254205454E+01  0.48509088362E+02  0.16456085653E+02  0.51663968974E+02  0.00000000000E+00 0. -1.
         11    1    4    4    0    0  0.40788952689E+02 -0.19918554586E+02  0.83440570224E+02  0.94988505818E+02  0.00000000000E+00 0.  1.
          1    1    1    2  501    0  0.25426021052E+02  0.16361995030E+02  0.13263477385E+02  0.33016923846E+02  0.00000000000E+00 0. -1.
<scales pt_clust_5="13000.00000" pt_clust_6="13000.00000" pt_clust_7="13000.00000" pt_clust_8="13000.00000" pt_clust_9="30.23570"></scales>
<clustering>
<clus scale="   30.236">  2  9  1 -1</clus>
<clus scale="   91.938">  7  8 -1 -1</clus>
<clus scale="   94.410">  5  6 -1 -1</clus>
<clus scale="  118.655">  2  7  1 -1</clus>
<clus scale="   30.236">  2  5  1 -1</clus>
</clustering>
</event>
<event>
 9    1  0.1601012E-005  0.9150237E+02  0.7546771E-02  0.1300330E+00
          1   -1    0    0  502    0 -0.00000000000E+00  0.00000000000E+00  0.56155500748E+03  0.56155500748E+03  0.00000000000E+00 0. -1.
         21   -1    0    0  501  502  0.00000000000E+00 -0.00000000000E+00 -0.36896478909E+02  0.36896478909E+02  0.00000000000E+00 0.  1.
         23    2    1    2    0    0 -0.88876161378E+01  0.11449602744E+02  0.40368201665E+03  0.41405712489E+03  0.90961799609E+02 0.  0.
         23    2    1    2    0    0 -0.23570737217E+02  0.27552809111E+01  0.49689398859E+02  0.10478798040E+03  0.89153313181E+02 0.  0.
        -11    1    4    4    0    0 -0.21345789795E+02  0.38286391057E+02  0.21399847989E+00  0.43835331383E+02  0.00000000000E+00 0.  1.
         11    1    4    4    0    0 -0.22249474213E+01 -0.35531110146E+02  0.49475400379E+02  0.60952649015E+02  0.00000000000E+00 0. -1.
        -13    1    3    3    0    0 -0.49033667737E+02 -0.97006399555E+00  0.18607548238E+03  0.19243005675E+03  0.00000000000E+00 0.  1.
         13    1    3    3    0    0  0.40146051599E+02  0.12419666740E+02  0.21760653426E+03  0.22162706815E+03  0.00000000000E+00 0. -1.
          1    1    1    2  501    0  0.32458353354E+02 -0.14204883655E+02  0.71287113061E+02  0.79606381093E+02  0.00000000000E+00 0. -1.
<scales pt_clust_5="13000.00000" pt_clust_6="13000.00000" pt_clust_7="13000.00000" pt_clust_8="13000.00000" pt_clust_9="35.43056"></scales>
<clustering>
<clus scale="   35.431">  2  9  1 -1</clus>
<clus scale="   89.153">  5  6 -1 -1</clus>
<clus scale="   89.705">  2  5  1 -1</clus>
<clus scale="   90.962">  7  8 -1 -1</clus>
<clus scale="   35.431">  2  5  1 -1</clus>
</clustering>
</event>
<event>
 9    1  0.1601012E-005  0.1770480E+03  0.7546771E-02  0.1170859E+00
         21   -1    0    0  501  502  0.00000000000E+00  0.00000000000E+00  0.71155727348E+02  0.71155727348E+02  0.00000000000E+00 0.  1.
          1   -1    0    0  502    0 -0.00000000000E+00 -0.00000000000E+00 -0.84042703681E+03  0.84042703681E+03  0.00000000000E+00 0. -1.
         23    2    1    2    0    0 -0.39190154603E+02  0.13566107401E+03 -0.34988265354E+03  0.38833265215E+03  0.91894408178E+02 0.  0.
         23    2    1    2    0    0  0.14279645483E+03 -0.11899715783E+03 -0.28194339435E+03  0.35032483486E+03  0.93189383636E+02 0.  0.
        -11    1    4    4    0    0  0.11863465037E+03 -0.10837272886E+03 -0.28125834108E+03  0.32392141494E+03  0.00000000000E+00 0.  1.
         11    1    4    4    0    0  0.24161804460E+02 -0.10624428972E+02 -0.68505326718E+00  0.26403419925E+02  0.00000000000E+00 0. -1.
        -11    1    3    3    0    0 -0.43875231495E+02  0.29484757253E+02 -0.18299366279E+03  0.19047589735E+03  0.00000000000E+00 0. -1.
         11    1    3    3    0    0  0.46850768920E+01  0.10617631676E+03 -0.16688899075E+03  0.19785675480E+03  0.00000000000E+00 0.  1.
          1    1    1    2  501    0 -0.10360630022E+03 -0.16663916180E+02 -0.13744526157E+03  0.17292527715E+03  0.00000000000E+00 0. -1.
<scales pt_clust_5="13000.00000" pt_clust_6="13000.00000" pt_clust_7="13000.00000" pt_clust_8="13000.00000" pt_clust_9="104.93785"></scales>
<clustering>
<clus scale="   91.894">  7  8 -1 -1</clus>
<clus scale="   93.189">  5  6 -1 -1</clus>
<clus scale="  104.938">  1  9  2 -1</clus>
<clus scale="  176.370">  2  7  1 -1</clus>
<clus scale="  104.938">  1  5  2 -1</clus>
</clustering>
</event>
<event>
 9    1  0.1601012E-005  0.9700271E+02  0.7546771E-02  0.1299597E+00
          2   -1    0    0  502    0 -0.00000000000E+00  0.00000000000E+00  0.33825546410E+03  0.33825546410E+03  0.00000000000E+00 0. -1.
         21   -1    0    0  501  502  0.00000000000E+00 -0.00000000000E+00 -0.62467848551E+02  0.62467848551E+02  0.00000000000E+00 0. -1.
         23    2    1    2    0    0  0.17132407730E+02  0.34097889482E+02  0.26549950449E+03  0.28342879016E+03  0.91573504594E+02 0.  0.
         23    2    1    2    0    0  0.21275400446E+02 -0.19135810056E+02  0.12582451863E+02  0.76011504804E+02  0.69286426355E+02 0.  0.
        -11    1    3    3    0    0 -0.20153923108E+02  0.39787915883E+02  0.21929189615E+03  0.22378157785E+03  0.00000000000E+00 0. -1.
         11    1    3    3    0    0  0.37286330838E+02 -0.56900264013E+01  0.46207608344E+02  0.59647212313E+02  0.00000000000E+00 0.  1.
        -13    1    4    4    0    0  0.46280628894E+02 -0.17013594707E+02  0.39241009472E+01  0.49464710491E+02  0.00000000000E+00 0. -1.
         13    1    4    4    0    0 -0.25005228448E+02 -0.21222153487E+01  0.86583509160E+01  0.26546794314E+02  0.00000000000E+00 0.  1.
          2    1    1    2  501    0 -0.38407808175E+02 -0.14962079426E+02 -0.22943408074E+01  0.41283017687E+02  0.00000000000E+00 0. -1.
<scales pt_clust_5="13000.00000" pt_clust_6="13000.00000" pt_clust_7="13000.00000" pt_clust_8="13000.00000" pt_clust_9="41.21921"></scales>
<clustering>
<clus scale="   41.219">  2  9  1 -1</clus>
<clus scale="   69.286">  7  8 -1 -1</clus>
<clus scale="   76.318">  2  7  1 -1</clus>
<clus scale="   91.574">  5  6 -1 -1</clus>
<clus scale="   41.219">  2  5  1 -1</clus>
</clustering>
</event>
<event>
 9    1  0.1601012E-005  0.1023920E+03  0.7546771E-02  0.1275833E+00
         -1   -1    0    0    0  501 -0.00000000000E+00  0.00000000000E+00  0.37268292844E+02  0.37268292844E+02  0.00000000000E+00 0.  1.
         21   -1    0    0  501  502  0.00000000000E+00 -0.00000000000E+00 -0.78596577147E+03  0.78596577147E+03  0.00000000000E+00 0. -1.
         23    2    1    2    0    0  0.30354957838E+02  0.42836202673E+02 -0.55156530421E+02  0.11760098635E+03  0.89617997171E+02 0.  0.
         23    2    1    2    0    0 -0.31136679949E+01 -0.24550002016E+02 -0.43667491010E+03  0.44668011981E+03  0.90695946956E+02 0.  0.
        -11    1    4    4    0    0 -0.45318945260E+02 -0.25041666591E+02 -0.24577804596E+03  0.25117272890E+03  0.00000000000E+00 0. -1.
         11    1    4    4    0    0  0.42205277265E+02  0.49166457590E+00 -0.19089686414E+03  0.19550739091E+03  0.00000000000E+00 0.  1.
        -13    1    3    3    0    0  0.26899930480E+02 -0.15740289287E+02  0.71888614075E+01  0.31985038612E+02  0.00000000000E+00 0.  1.
         13    1    3    3    0    0  0.34550273583E+01  0.58576491960E+02 -0.62345391828E+02  0.85615947735E+02  0.00000000000E+00 0. -1.
         -1    1    1    2    0  502 -0.27241289844E+02 -0.18286200657E+02 -0.25686603810E+03  0.25895295815E+03  0.00000000000E+00 0.  1.
<scales pt_clust_5="13000.00000" pt_clust_6="13000.00000" pt_clust_7="13000.00000" pt_clust_8="13000.00000" pt_clust_9="32.80965"></scales>
<clustering>
<clus scale="   32.810">  2  9  1 -1</clus>
<clus scale="   89.618">  7  8 -1 -1</clus>
<clus scale="   90.696">  5  6 -1 -1</clus>
<clus scale="  101.438">  1  7  2 -1</clus>
<clus scale="   32.810">  2  5  1 -1</clus>
</clustering>
</event>
<event>
 9    1  0.1601012E-005  0.1435962E+03  0.7546771E-02  0.1215355E+00
          2   -1    0    0  502    0 -0.00000000000E+00  0.00000000000E+00  0.42167329532E+03  0.42167329532E+03  0.00000000000E+00 0. -1.
         21   -1    0    0  501  502  0.00000000000E+00 -0.00000000000E+00 -0.90086768439E+02  0.90086768439E+02  0.00000000000E+00 0. -1.
         23    2    1    2    0    0  0.44869315580E+02 -0.81486884004E+02  0.30114239753E+03  0.33639393056E+03  0.11756175051E+03 0.  0.
         23    2    1    2    0    0  0.62249782398E+01  0.57139546602E+02 -0.34770188842E+01  0.10938080152E+03  0.92996730807E+02 0.  0.
        -11    1    3    3    0    0  0.59119076927E+02 -0.86507147530E+01  0.21272443594E+03  0.22095607203E+03  0.00000000000E+00 0. -1.
         11    1    3    3    0    0 -0.14249761347E+02 -0.72836169251E+02  0.88417961590E+02  0.11543785853E+03  0.00000000000E+00 0.  1.
        -11    1    4    4    0    0  0.48714877584E+02  0.21569843898E+02 -0.75940418349E+01  0.53815118092E+02  0.00000000000E+00 0. -1.
         11    1    4    4    0    0 -0.42489899345E+02  0.35569702704E+02  0.41170229507E+01  0.55565683427E+02  0.00000000000E+00 0.  1.
          2    1    1    2  501    0 -0.51094293820E+02  0.24347337402E+02  0.33921148242E+02  0.65985331685E+02  0.00000000000E+00 0. -1.
<scales pt_clust_5="13000.00000" pt_clust_6="13000.00000" pt_clust_7="13000.00000" pt_clust_8="13000.00000" pt_clust_9="56.59876"></scales>
<clustering>
<clus scale="   56.599">  2  9  1 -1</clus>
<clus scale="   92.997">  7  8 -1 -1</clus>
<clus scale="  117.562">  5  6 -1 -1</clus>
<clus scale="  124.288">  2  7  1 -1</clus>
<clus scale="   56.599">  2  5  1 -1</clus>
</clustering>
</event>
<event>
 9    1  0.1601012E-005  0.3977417E+03  0.7546771E-02  0.1073305E+00
         21   -1    0    0  501  502  0.00000000000E+00  0.00000000000E+00  0.32183299638E+03  0.32183299638E+03  0.00000000000E+00 0.  1.
         -4   -1    0    0    0  501 -0.00000000000E+00 -0.00000000000E+00 -0.76722393159E+03  0.76722393159E+03  0.00000000000E+00 0.  1.
         23    2    1    2    0    0 -0.67809850430E+02  0.12980917163E+03 -0.38945574827E+02  0.18184518589E+03  0.10051028294E+03 0.  0.
         23    2    1    2    0    0  0.59492866189E+02 -0.46429157145E+03 -0.24431853793E+03  0.53541508451E+03  0.88722603125E+02 0.  0.
        -13    1    4    4    0    0 -0.97044213084E+01 -0.29518465985E+02 -0.38385739470E+02  0.49386036708E+02  0.00000000000E+00 0. -1.
         13    1    4    4    0    0  0.69197287498E+02 -0.43477310546E+03 -0.20593279846E+03  0.48602904781E+03  0.00000000000E+00 0.  1.
        -13    1    3    3    0    0  0.20171939654E+02  0.56245065361E+02  0.27508546339E+01  0.59816232982E+02  0.00000000000E+00 0. -1.
         13    1    3    3    0    0 -0.87981790084E+02  0.73564106271E+02 -0.41696429460E+02  0.12202895291E+03  0.00000000000E+00 0.  1.
         -4    1    1    2    0  502  0.83169842405E+01  0.33448239982E+03 -0.16212682246E+03  0.37179665756E+03  0.00000000000E+00 0.  1.
<scales pt_clust_5="13000.00000" pt_clust_6="13000.00000" pt_clust_7="13000.00000" pt_clust_8="13000.00000" pt_clust_9="387.71996"></scales>
<clustering>
<clus scale="   88.723">  5  6 -1 -1</clus>
<clus scale="  100.510">  7  8 -1 -1</clus>
<clus scale="  177.626">  2  7  1 -1</clus>
<clus scale="  387.720">  1  9  2 -1</clus>
<clus scale="  387.720">  1  5  2 -1</clus>
</clustering>
</event>
<event>
 9    1  0.1601012E-005  0.1395450E+03  0.7546771E-02  0.1213970E+00
          1   -1    0    0  502    0 -0.00000000000E+00  0.00000000000E+00  0.27399670057E+03  0.27399670057E+03  0.00000000000E+00 0. -1.
         21   -1    0    0  501  502  0.00000000000E+00 -0.00000000000E+00 -0.26576517237E+03  0.26576517237E+03  0.00000000000E+00 0.  1.
         23    2    1    2    0    0  0.12661271218E+03  0.80381746593E+01  0.13286501022E+03  0.20478790250E+03  0.90496314468E+02 0.  0.
         23    2    1    2    0    0 -0.83996368447E+02 -0.12586304934E+02  0.65373528963E+02  0.14019331825E+03  0.90369592286E+02 0.  0.
        -13    1    4    4    0    0 -0.25002865739E+02  0.34225211158E+02  0.31477292780E+01  0.42501959644E+02  0.00000000000E+00 0.  1.
         13    1    4    4    0    0 -0.58993502709E+02 -0.46811516092E+02  0.62225799685E+02  0.97691358611E+02  0.00000000000E+00 0. -1.
        -13    1    3    3    0    0  0.11199222806E+03 -0.28768130577E+02  0.90851024972E+02  0.14705024046E+03  0.00000000000E+00 0.  1.
         13    1    3    3    0    0  0.14620484127E+02  0.36806305237E+02  0.42013985246E+02  0.57737662037E+02  0.00000000000E+00 0. -1.
          1    1    1    2  501    0 -0.42616343737E+02  0.45481302747E+01 -0.19000701098E+03  0.19478065218E+03  0.00000000000E+00 0. -1.
<scales pt_clust_5="13000.00000" pt_clust_6="13000.00000" pt_clust_7="13000.00000" pt_clust_8="13000.00000" pt_clust_9="42.85835"></scales>
<clustering>
<clus scale="   42.858">  2  9  1 -1</clus>
<clus scale="   90.370">  5  6 -1 -1</clus>
<clus scale="   90.496">  7  8 -1 -1</clus>
<clus scale="  139.463">  2  5  1 -1</clus>
<clus scale="   42.858">  2  5  1 -1</clus>
</clustering>
</event>
<event>
 9    1  0.1601012E-005  0.1168239E+03  0.7546771E-02  0.1249114E+00
          1   -1    0    0  502    0 -0.00000000000E+00  0.00000000000E+00  0.70311140478E+03  0.70311140478E+03  0.00000000000E+00 0. -1.
         21   -1    0    0  501  502  0.00000000000E+00 -0.00000000000E+00 -0.36760115149E+02  0.36760115149E+02  0.00000000000E+00 0.  1.
         23    2    1    2    0    0  0.68135093295E+02 -0.50972652847E+02  0.47137214088E+03  0.48763909126E+03  0.91430770805E+02 0.  0.
         23    2    1    2    0    0 -0.40590963798E+02  0.76003025659E+01  0.82088081870E+02  0.12819923626E+03  0.89393512352E+02 0.  0.
        -13    1    4    4    0    0 -0.91804117682E+01  0.36316639741E+02  0.76625204299E+02  0.85291266939E+02  0.00000000000E+00 0. -1.
         13    1    4    4    0    0 -0.31410552030E+02 -0.28716337175E+02  0.54628775715E+01  0.42907969318E+02  0.00000000000E+00 0.  1.
        -13    1    3    3    0    0 -0.19210629137E+02 -0.23706436882E+02  0.16872668799E+03  0.17146351991E+03  0.00000000000E+00 0.  1.
         13    1    3    3    0    0  0.87345722432E+02 -0.27266215965E+02  0.30264545289E+03  0.31617557135E+03  0.00000000000E+00 0. -1.
          1    1    1    2  501    0 -0.27544129496E+02  0.43372350281E+02  0.11289106688E+03  0.12403319241E+03  0.00000000000E+00 0. -1.
<scales pt_clust_5="13000.00000" pt_clust_6="13000.00000" pt_clust_7="13000.00000" pt_clust_8="13000.00000" pt_clust_9="51.37940"></scales>
<clustering>
<clus scale="   51.379">  2  9  1 -1</clus>
<clus scale="   89.394">  5  6 -1 -1</clus>
<clus scale="   91.431">  7  8 -1 -1</clus>
<clus scale="  115.236">  2  5  1 -1</clus>
<clus scale="   51.379">  2  5  1 -1</clus>
</clustering>
</event>
<event>
 9    1  0.1601012E-005  0.9376947E+02  0.7546771E-02  0.1295066E+00
         21   -1    0    0  501  502  0.00000000000E+00  0.00000000000E+00  0.83851938564E+02  0.83851938564E+02  0.00000000000E+00 0. -1.
          1   -1    0    0  502    0 -0.00000000000E+00 -0.00000000000E+00 -0.16797194871E+03  0.16797194871E+03  0.00000000000E+00 0. -1.
         23    2    1    2    0    0  0.24241174548E+02  0.82642301196E+01 -0.65448907349E+02  0.11521452457E+03  0.91295646974E+02 0.  0.
         23    2    1    2    0    0  0.11257938736E+00 -0.27163242323E+02 -0.37329121586E+02  0.10057604953E+03  0.89354485128E+02 0.  0.
        -11    1    4    4    0    0  0.81745669511E+01 -0.55084332534E+02 -0.32419505450E+01  0.55781874107E+02  0.00000000000E+00 0. -1.
         11    1    4    4    0    0 -0.80619875637E+01  0.27921090210E+02 -0.34087171041E+02  0.44794175421E+02  0.00000000000E+00 0.  1.
        -13    1    3    3    0    0  0.24084000394E+02 -0.39883118219E+02 -0.34576330623E+02  0.58019176427E+02  0.00000000000E+00 0. -1.
         13    1    3    3    0    0  0.15717415335E+00  0.48147348339E+02 -0.30872576726E+02  0.57195348145E+02  0.00000000000E+00 0.  1.
          1    1    1    2  501    0 -0.24353753935E+02  0.18899012204E+02  0.18658018790E+02  0.36033313172E+02  0.00000000000E+00 0. -1.
<scales pt_clust_5="13000.00000" pt_clust_6="13000.00000" pt_clust_7="13000.00000" pt_clust_8="13000.00000" pt_clust_9="30.82658"></scales>
<clustering>
<clus scale="   30.827">  1  9  2 -1</clus>
<clus scale="   89.354">  5  6 -1 -1</clus>
<clus scale="   91.296">  7  8 -1 -1</clus>
<clus scale="   91.881">  1  5  2 -1</clus>
<clus scale="   30.827">  1  5  2 -1</clus>
</clustering>
</event>
<event>
 9    1  0.1601012E-005  0.1026103E+03  0.7546771E-02  0.1275103E+00
         21   -1    0    0  501  502  0.00000000000E+00  0.00000000000E+00  0.15980227663E+03  0.15980227663E+03  0.00000000000E+00 0. -1.
          1   -1    0    0  502    0 -0.00000000000E+00 -0.00000000000E+00 -0.11446294235E+03  0.11446294235E+03  0.00000000000E+00 0. -1.
         23    2    1    2    0    0  0.46982618505E+01 -0.43123736593E+02 -0.29454007407E+01  0.10161268254E+03  0.91840794556E+02 0.  0.
         23    2    1    2    0    0 -0.42931511423E+02  0.33226676831E+02 -0.39849285031E+01  0.10714031705E+03  0.92282398946E+02 0.  0.
        -11    1    4    4    0    0 -0.19944836119E+02  0.30790919847E+02 -0.46210102618E+02  0.59002125527E+02  0.00000000000E+00 0. -1.
         11    1    4    4    0    0 -0.22986675304E+02  0.24357569843E+01  0.42225174115E+02  0.48138191518E+02  0.00000000000E+00 0.  1.
        -11    1    3    3    0    0 -0.21918333551E+02 -0.45736639823E+02  0.30196133953E+02  0.59025927131E+02  0.00000000000E+00 0.  1.
         11    1    3    3    0    0  0.26616595402E+02  0.26129032305E+01 -0.33141534694E+02  0.42586755405E+02  0.00000000000E+00 0. -1.
          1    1    1    2  501    0  0.38233249572E+02  0.98970597621E+01  0.52269663522E+02  0.65512219390E+02  0.00000000000E+00 0. -1.
<scales pt_clust_5="13000.00000" pt_clust_6="13000.00000" pt_clust_7="13000.00000" pt_clust_8="13000.00000" pt_clust_9="39.49346"></scales>
<clustering>
<clus scale="   39.493">  1  9  2 -1</clus>
<clus scale="   91.841">  7  8 -1 -1</clus>
<clus scale="   92.282">  5  6 -1 -1</clus>
<clus scale="  102.213">  2  7  1 -1</clus>
<clus scale="   39.493">  1  5  2 -1</clus>
</clustering>
</event>
<event>
 9    1  0.1601012E-005  0.9607891E+02  0.7546771E-02  0.1288803E+00
          3   -1    0    0  502    0 -0.00000000000E+00  0.00000000000E+00  0.18829143292E+03  0.18829143292E+03  0.00000000000E+00 0. -1.
         21   -1    0    0  501  502  0.00000000000E+00 -0.00000000000E+00 -0.20063020178E+03  0.20063020178E+03  0.00000000000E+00 0. -1.
         23    2    1    2    0    0  0.23894633158E+02 -0.43116954889E+02  0.12024164065E+03  0.15814843831E+03  0.90126861153E+02 0.  0.
         23    2    1    2    0    0  0.57107170172E+01 -0.39634531691E+02 -0.52069893369E+02  0.11158331217E+03  0.90200074097E+02 0.  0.
        -13    1    3    3    0    0 -0.32185092209E+02 -0.15145227063E+01  0.29803499539E+02  0.43891030112E+02  0.00000000000E+00 0.  1.
         13    1    3    3    0    0  0.56079725367E+02 -0.41602432183E+02  0.90438141113E+02  0.11425740820E+03  0.00000000000E+00 0. -1.
        -13    1    4    4    0    0 -0.37301911176E+01 -0.67044323017E+02 -0.47464242524E+02  0.82229616885E+02  0.00000000000E+00 0.  1.
         13    1    4    4    0    0  0.94409081348E+01  0.27409791326E+02 -0.46056508455E+01  0.29353695281E+02  0.00000000000E+00 0. -1.
          3    1    1    2  501    0 -0.29605350175E+02  0.82751486580E+02 -0.80510516145E+02  0.11918988422E+03  0.00000000000E+00 0. -1.
<scales pt_clust_5="13000.00000" pt_clust_6="13000.00000" pt_clust_7="13000.00000" pt_clust_8="13000.00000" pt_clust_9="87.88791"></scales>
<clustering>
<clus scale="   87.888">  2  9  1 -1</clus>
<clus scale="   90.127">  5  6 -1 -1</clus>
<clus scale="   90.200">  7  8 -1 -1</clus>
<clus scale="   96.010">  1  5  2 -1</clus>
<clus scale="   87.888">  2  5  1 -1</clus>
</clustering>
</event>
<event>
 9    1  0.1601012E-005  0.1548077E+03  0.7546771E-02  0.1194886E+00
         21   -1    0    0  501  502  0.00000000000E+00  0.00000000000E+00  0.12900520520E+03  0.12900520520E+03  0.00000000000E+00 0.  1.
          2   -1    0    0  502    0 -0.00000000000E+00 -0.00000000000E+00 -0.38697537575E+03  0.38697537575E+03  0.00000000000E+00 0.  1.
         23    2    1    2    0    0 -0.80896945415E+02 -0.45674111492E+02 -0.86763255901E+02  0.15667588135E+03  0.91591642541E+02 0.  0.
         23    2    1    2    0    0  0.15452159022E+03  0.11198489195E+03 -0.83885588919E+02  0.22723380252E+03  0.90448168088E+02 0.  0.
        -13    1    4    4    0    0  0.14053920613E+03  0.70674834368E+02 -0.92909871068E+02  0.18269768694E+03  0.00000000000E+00 0.  1.
         13    1    4    4    0    0  0.13982384092E+02  0.41310057587E+02  0.90242821487E+01  0.44536115581E+02  0.00000000000E+00 0. -1.
        -13    1    3    3    0    0 -0.11021203662E+02 -0.35775962333E+02  0.82368560615E+01  0.38330564942E+02  0.00000000000E+00 0. -1.
         13    1    3    3    0    0 -0.69875741753E+02 -0.98981491596E+01 -0.95000111962E+02  0.11834531641E+03  0.00000000000E+00 0.  1.
          2    1    1    2  501    0 -0.73624644808E+02 -0.66310780462E+02 -0.87321325730E+02  0.13207089708E+03  0.00000000000E+00 0.  1.
<scales pt_clust_5="13000.00000" pt_clust_6="13000.00000" pt_clust_7="13000.00000" pt_clust_8="13000.00000" pt_clust_9="99.08440"></scales>
<clustering>
<clus scale="   90.448">  5  6 -1 -1</clus>
<clus scale="   91.592">  7  8 -1 -1</clus>
<clus scale="   99.084">  1  9  2 -1</clus>
<clus scale="  154.134">  1  5  2 -1</clus>
<clus scale="   99.084">  1  5  2 -1</clus>
</clustering>
</event>
<event>
 9    1  0.1601012E-005  0.3226778E+03  0.7546771E-02  0.1115174E+00
          3   -1    0    0  502    0 -0.00000000000E+00  0.00000000000E+00  0.89159272388E+03  0.89159272388E+03  0.00000000000E+00 0. -1.
         21   -1    0    0  501  502  0.00000000000E+00 -0.00000000000E+00 -0.19398464526E+03  0.19398464526E+03  0.00000000000E+00 0. -1.
         23    2    1    2    0    0  0.26518152470E+02  0.56620505934E+02  0.25711041253E+03  0.28000810238E+03  0.91595191287E+02 0.  0.
         23    2    1    2    0    0  0.19706405489E+03  0.21176828901E+03  0.10401816227E+03  0.32055379773E+03  0.90856530836E+02 0.  0.
        -11    1    3    3    0    0 -0.19847874805E+02  0.39531743838E+02  0.19839310016E+03  0.20326465284E+03  0.00000000000E+00 0. -1.
         11    1    3    3    0    0  0.46366027275E+02  0.17088762096E+02  0.58717312371E+02  0.76743449540E+02  0.00000000000E+00 0.  1.
        -13    1    4    4    0    0  0.67314458219E+02  0.34104508714E+02 -0.37979755436E+01  0.75556458481E+02  0.00000000000E+00 0.  1.
         13    1    4    4    0    0  0.12974959668E+03  0.17766378029E+03  0.10781613781E+03  0.24499733925E+03  0.00000000000E+00 0. -1.
          3    1    1    2  501    0 -0.22358220736E+03 -0.26838879494E+03  0.33647950383E+03  0.48501546903E+03  0.00000000000E+00 0. -1.
<scales pt_clust_5="13000.00000" pt_clust_6="13000.00000" pt_clust_7="13000.00000" pt_clust_8="13000.00000" pt_clust_9="309.62254"></scales>
<clustering>
<clus scale="   90.857">  7  8 -1 -1</clus>
<clus scale="   91.595">  5  6 -1 -1</clus>
<clus scale="  110.900">  1  5  2 -1</clus>
<clus scale="  309.623">  2  9  1 -1</clus>
<clus scale="  309.623">  2  5  1 -1</clus>
</clustering>
</event>
<event>
 9    1  0.1601012E-005  0.4436458E+03  0.7546771E-02  0.1029640E+00
          1   -1    0    0  502    0 -0.00000000000E+00  0.00000000000E+00  0.10220212504E+04  0.10220212504E+04  0.00000000000E+00 0. -1.
         21   -1    0    0  501  502  0.00000000000E+00 -0.00000000000E+00 -0.24603541687E+03  0.24603541687E+03  0.00000000000E+00 0. -1.
         23    2    1    2    0    0  0.92486162801E+02 -0.44047781155E+03  0.52589698148E+03  0.69836749192E+03  0.92601975460E+02 0.  0.
         23    2    1    2    0    0 -0.76516746034E+02  0.40566310428E+03  0.29106406150E+03  0.51359948022E+03  0.92998771997E+02 0.  0.
        -11    1    3    3    0    0  0.27519353312E+02 -0.21997247731E+02  0.52069859200E+02  0.62868624540E+02  0.00000000000E+00 0.  1.
         11    1    3    3    0    0  0.64966809489E+02 -0.41848056382E+03  0.47382712228E+03  0.63549886738E+03  0.00000000000E+00 0. -1.
        -11    1    4    4    0    0  0.10287590595E+02  0.46122060056E+02  0.81956578720E+01  0.47960898157E+02  0.00000000000E+00 0.  1.
         11    1    4    4    0    0 -0.86804336629E+02  0.35954104422E+03  0.28286840363E+03  0.46563858207E+03  0.00000000000E+00 0. -1.
          1    1    1    2  501    0 -0.15969416767E+02  0.34814707272E+02 -0.40975209432E+02  0.56089695152E+02  0.00000000000E+00 0. -1.
<scales pt_clust_5="13000.00000" pt_clust_6="13000.00000" pt_clust_7="13000.00000" pt_clust_8="13000.00000" pt_clust_9="38.30256"></scales>
<clustering>
<clus scale="   38.303">  2  9  1 -1</clus>
<clus scale="   92.602">  5  6 -1 -1</clus>
<clus scale="   92.999">  7  8 -1 -1</clus>
<clus scale="  443.563">  1  5  2 -1</clus>
<clus scale="   38.303">  2  5  1 -1</clus>
</clustering>
</event>
<event>
 9    1  0.1601012E-005  0.1153059E+03  0.7546771E-02  0.1251557E+00
          1   -1    0    0  502    0 -0.00000000000E+00  0.00000000000E+00  0.12236937799E+03  0.12236937799E+03  0.00000000000E+00 0. -1.
         21   -1    0    0  501  502  0.00000000000E+00 -0.00000000000E+00 -0.29398965950E+03  0.29398965950E+03  0.00000000000E+00 0. -1.
         23    2    1    2    0    0 -0.68078540929E+02 -0.43148246892E+01  0.19353401805E+02  0.11549134469E+03  0.91161346465E+02 0.  0.
         23    2    1    2    0    0  0.57462859827E+02  0.75864756239E+02 -0.45600759808E+02  0.13849351911E+03  0.89686030366E+02 0.  0.
        -11    1    3    3    0    0 -0.64737007494E+02  0.33595010497E+02  0.24823171916E+02  0.77043460031E+02  0.00000000000E+00 0. -1.
         11    1    3    3    0    0 -0.33415334347E+01 -0.37909835186E+02 -0.54697701106E+01  0.38447884657E+02  0.00000000000E+00 0.  1.
        -13    1    4    4    0    0  0.77128143808E+02  0.65039260673E+02 -0.17286938937E+02  0.10236060890E+03  0.00000000000E+00 0. -1.
         13    1    4    4    0    0 -0.19665283982E+02  0.10825495566E+02 -0.28313820871E+02  0.36132910216E+02  0.00000000000E+00 0.  1.
          1    1    1    2  501    0  0.10615681102E+02 -0.71549931550E+02 -0.14537292351E+03  0.16237417369E+03  0.00000000000E+00 0. -1.
<scales pt_clust_5="13000.00000" pt_clust_6="13000.00000" pt_clust_7="13000.00000" pt_clust_8="13000.00000" pt_clust_9="72.33316"></scales>
<clustering>
<clus scale="   72.333">  2  9  1 -1</clus>
<clus scale="   89.686">  7  8 -1 -1</clus>
<clus scale="   91.161">  5  6 -1 -1</clus>
<clus scale="  114.143">  2  7  1 -1</clus>
<clus scale="   72.333">  2  5  1 -1</clus>
</clustering>
</event>
<event>
 9    1  0.1601012E-005  0.2134846E+03  0.7546771E-02  0.1138922E+00
          4   -1    0    0  502    0 -0.00000000000E+00  0.00000000000E+00  0.13043907092E+03  0.13043907092E+03  0.00000000000E+00 0. -1.
         21   -1    0    0  501  502  0.00000000000E+00 -0.00000000000E+00 -0.10145431000E+04  0.10145431000E+04  0.00000000000E+00 0. -1.
         23    2    1    2    0    0 -0.13500819579E+03 -0.80308405452E+02 -0.85279456385E+02  0.20008847677E+03  0.89923077885E+02 0.  0.
         23    2    1    2    0    0  0.27291350500E+03  0.88549241260E+02 -0.29118578375E+03  0.41879206355E+03  0.90966381113E+02 0.  0.
        -13    1    4    4    0    0  0.23728559046E+03  0.81196202718E+02 -0.20052105377E+03  0.32110117997E+03  0.00000000000E+00 0. -1.
         13    1    4    4    0    0  0.35627914535E+02  0.73530385424E+01 -0.90664729986E+02  0.97690883573E+02  0.00000000000E+00 0.  1.
        -13    1    3    3    0    0 -0.10402581352E+03 -0.36098959187E+02 -0.14486399168E+02  0.11106016610E+03  0.00000000000E+00 0.  1.
         13    1    3    3    0    0 -0.30982382272E+02 -0.44209446265E+02 -0.70793057217E+02  0.89028310668E+02  0.00000000000E+00 0. -1.
          4    1    1    2  501    0 -0.13790530920E+03 -0.82408358086E+01 -0.50763878891E+03  0.52610163057E+03  0.00000000000E+00 0. -1.
<scales pt_clust_5="13000.00000" pt_clust_6="13000.00000" pt_clust_7="13000.00000" pt_clust_8="13000.00000" pt_clust_9="138.15131"></scales>
<clustering>
<clus scale="   89.923">  7  8 -1 -1</clus>
<clus scale="   90.966">  5  6 -1 -1</clus>
<clus scale="  138.151">  2  9  1 -1</clus>
<clus scale="  213.042">  1  7  2 -1</clus>
<clus scale="  138.151">  2  5  1 -1</clus>
</clustering>
</event>
<event>
 9    1  0.1601012E-005  0.1216134E+03  0.7546771E-02  0.1240561E+00
         -1   -1    0    0    0  501 -0.00000000000E+00  0.00000000000E+00  0.80089614467E+02  0.80089614467E+02  0.00000000000E+00 0.  1.
         21   -1    0    0  501  502  0.00000000000E+00 -0.00000000000E+00 -0.46564478739E+03  0.46564478739E+03  0.00000000000E+00 0. -1.
         23    2    1    2    0    0  0.35667454539E+02  0.79552519846E+02 -0.28167695491E+00  0.12623924070E+03  0.91298936594E+02 0.  0.
         23    2    1    2    0    0 -0.31395918964E+02 -0.30800100766E+02 -0.33174762933E+03  0.34696887088E+03  0.91632733545E+02 0.  0.
        -13    1    3    3    0    0 -0.21340173826E+02 -0.35304938745E+01 -0.12105788513E+02  0.24787446852E+02  0.00000000000E+00 0. -1.
         13    1    3    3    0    0  0.57007628365E+02  0.83083013721E+02  0.11824111558E+02  0.10145179385E+03  0.00000000000E+00 0.  1.
        -13    1    4    4    0    0 -0.62411764835E+02 -0.90103153402E+01 -0.22602435866E+03  0.23465597132E+03  0.00000000000E+00 0. -1.
         13    1    4    4    0    0  0.31015845871E+02 -0.21789785426E+02 -0.10572327068E+03  0.11231289956E+03  0.00000000000E+00 0.  1.
         -1    1    1    2    0  502 -0.42715355758E+01 -0.48752419080E+02 -0.53525866633E+02  0.72526290276E+02  0.00000000000E+00 0.  1.
<scales pt_clust_5="13000.00000" pt_clust_6="13000.00000" pt_clust_7="13000.00000" pt_clust_8="13000.00000" pt_clust_9="48.93919"></scales>
<clustering>
<clus scale="   48.939">  2  9  1 -1</clus>
<clus scale="   91.299">  5  6 -1 -1</clus>
<clus scale="   91.633">  7  8 -1 -1</clus>
<clus scale="  121.362">  1  5  2 -1</clus>
<clus scale="   48.939">  2  5  1 -1</clus>
</clustering>
</event>
<event>
 9    1  0.1601012E-005  0.1194857E+03  0.7546771E-02  0.1243960E+00
          2   -1    0    0  502    0 -0.00000000000E+00  0.00000000000E+00  0.48913597194E+03  0.48913597194E+03  0.00000000000E+00 0.  1.
         21   -1    0    0  501  502  0.00000000000E+00 -0.00000000000E+00 -0.44529627606E+02  0.44529627606E+02  0.00000000000E+00 0.  1.
         23    2    1    2    0    0 -0.46524765023E+01 -0.74007560574E+02  0.31824096683E+03  0.33919524994E+03  0.90979888208E+02 0.  0.
         23    2    1    2    0    0 -0.11211092347E+02  0.86432668710E+02  0.11817321074E+03  0.17271839049E+03  0.90941958777E+02 0.  0.
        -13    1    4    4    0    0  0.16511928416E+02  0.85507317982E+02  0.11578076088E+03  0.14487694709E+03  0.00000000000E+00 0.  1.
         13    1    4    4    0    0 -0.27723020763E+02  0.92535072838E+00  0.23924498531E+01  0.27841443398E+02  0.00000000000E+00 0. -1.
        -13    1    3    3    0    0 -0.24260903811E+02 -0.58935105857E+02  0.30409827300E+03  0.31070516217E+03  0.00000000000E+00 0.  1.
         13    1    3    3    0    0  0.19608427309E+02 -0.15072454716E+02  0.14142693822E+02  0.28490087772E+02  0.00000000000E+00 0. -1.
          2    1    1    2  501    0  0.15863568849E+02 -0.12425108137E+02  0.81921667731E+01  0.21751959113E+02  0.00000000000E+00 0.  1.
<scales pt_clust_5="13000.00000" pt_clust_6="13000.00000" pt_clust_7="13000.00000" pt_clust_8="13000.00000" pt_clust_9="20.15034"></scales>
<clustering>
<clus scale="   20.150">  2  9  1 -1</clus>
<clus scale="   90.942">  5  6 -1 -1</clus>
<clus scale="   90.980">  7  8 -1 -1</clus>
<clus scale="  119.457">  2  5  1 -1</clus>
<clus scale="   20.150">  2  5  1 -1</clus>
</clustering>
</event>
<event>
 9    1  0.1601012E-005  0.9918550E+02  0.7546771E-02  0.1282640E+00
         21   -1    0    0  501  502  0.00000000000E+00  0.00000000000E+00  0.31283073007E+02  0.31283073007E+02  0.00000000000E+00 0. -1.
          3   -1    0    0  502    0 -0.00000000000E+00 -0.00000000000E+00 -0.56630124082E+03  0.56630124082E+03  0.00000000000E+00 0. -1.
         23    2    1    2    0    0  0.18043079986E+02 -0.25750419980E+02 -0.22734749019E+03  0.24712232501E+03  0.91618368025E+02 0.  0.
         23    2    1    2    0    0 -0.56978401385E+02 -0.76008024899E+01 -0.25681619858E+03  0.27825090011E+03  0.90358691548E+02 0.  0.
        -11    1    4    4    0    0  0.21769683492E+02  0.63627329530E+00 -0.24340347110E+02  0.32661544062E+02  0.00000000000E+00 0.  1.
         11    1    4    4    0    0 -0.78748084878E+02 -0.82370757852E+01 -0.23247585147E+03  0.24558935605E+03  0.00000000000E+00 0. -1.
        -11    1    3    3    0    0  0.14466328510E+02 -0.47659711411E+02 -0.21697693340E+03  0.22262010776E+03  0.00000000000E+00 0. -1.
         11    1    3    3    0    0  0.35767514758E+01  0.21909291430E+02 -0.10370556791E+02  0.24502217252E+02  0.00000000000E+00 0.  1.
          3    1    1    2  501    0  0.38935321400E+02  0.33351222470E+02 -0.50854479050E+02  0.72211088707E+02  0.00000000000E+00 0. -1.
<scales pt_clust_5="13000.00000" pt_clust_6="13000.00000" pt_clust_7="13000.00000" pt_clust_8="13000.00000" pt_clust_9="51.26659"></scales>
<clustering>
<clus scale="   51.267">  1  9  2 -1</clus>
<clus scale="   90.359">  5  6 -1 -1</clus>
<clus scale="   91.618">  7  8 -1 -1</clus>
<clus scale="   98.023">  1  5  2 -1</clus>
<clus scale="   51.267">  1  5  2 -1</clus>
</clustering>
</event>
<event>
 9    1  0.1601012E-005  0.1489375E+03  0.7546771E-02  0.1201906E+00
         21   -1    0    0  501  502  0.00000000000E+00  0.00000000000E+00  0.29657621242E+02  0.29657621242E+02  0.00000000000E+00 0. -1.
          1   -1    0    0  502    0 -0.00000000000E+00 -0.00000000000E+00 -0.10933068905E+04  0.10933068905E+04  0.00000000000E+00 0. -1.
         23    2    1    2    0    0  0.12749191730E+03 -0.29662093437E+02 -0.68818889969E+03  0.70665244252E+03  0.92842253820E+02 0.  0.
         23    2    1    2    0    0 -0.96979932049E+02  0.13927805122E+01 -0.32102576082E+03  0.34780468330E+03  0.92214486686E+02 0.  0.
        -11    1    4    4    0    0 -0.32018065755E+02  0.45117031937E+02 -0.14236507872E+03  0.15273676291E+03  0.00000000000E+00 0.  1.
         11    1    4    4    0    0 -0.64961866294E+02 -0.43724251425E+02 -0.17866068210E+03  0.19506792039E+03  0.00000000000E+00 0. -1.
        -11    1    3    3    0    0  0.22760122075E+02  0.31192933776E+02 -0.13896321001E+03  0.14422827744E+03  0.00000000000E+00 0.  1.
         11    1    3    3    0    0  0.10473179523E+03 -0.60855027213E+02 -0.54922568968E+03  0.56242416508E+03  0.00000000000E+00 0. -1.
          1    1    1    2  501    0 -0.30511985252E+02  0.28269312925E+02 -0.54434608746E+02  0.68507385927E+02  0.00000000000E+00 0. -1.
<scales pt_clust_5="13000.00000" pt_clust_6="13000.00000" pt_clust_7="13000.00000" pt_clust_8="13000.00000" pt_clust_9="41.59490"></scales>
<clustering>
<clus scale="   41.595">  1  9  2 -1</clus>
<clus scale="   92.214">  5  6 -1 -1</clus>
<clus scale="   92.842">  7  8 -1 -1</clus>
<clus scale="  148.547">  1  5  2 -1</clus>
<clus scale="   41.595">  1  5  2 -1</clus>
</clustering>
</event>
<event>
 9    1  0.1601012E-005  0.9823172E+02  0.7546771E-02  0.1285297E+00
         21   -1    0    0  501  502  0.00000000000E+00  0.00000000000E+00  0.18620949859E+03  0.18620949859E+03  0.00000000000E+00 0. -1.
         -4   -1    0    0    0  501 -0.00000000000E+00 -0.00000000000E+00 -0.85464781687E+02  0.85464781687E+02  0.00000000000E+00 0.  1.
         23    2    1    2    0    0  0.22159052167E+02  0.17784163842E+02  0.74481728780E+01  0.97138789199E+02  0.92591408950E+02 0.  0.
         23    2    1    2    0    0  0.27118134255E+01 -0.28687352609E+02  0.26901219692E+02  0.10280140871E+03  0.94942803199E+02 0.  0.
        -11    1    4    4    0    0  0.21405901042E+02  0.56525560947E+01 -0.27815565857E+02  0.35550945047E+02  0.00000000000E+00 0.  1.
         11    1    4    4    0    0 -0.18694087616E+02 -0.34339908704E+02  0.54716785549E+02  0.67250463660E+02  0.00000000000E+00 0. -1.
        -11    1    3    3    0    0 -0.34489466251E+02  0.19351802619E+02 -0.23950193900E+01  0.39620091680E+02  0.00000000000E+00 0.  1.
         11    1    3    3    0    0  0.56648518417E+02 -0.15676387771E+01  0.98431922681E+01  0.57518697519E+02  0.00000000000E+00 0. -1.
         -4    1    1    2    0  502 -0.24870865592E+02  0.10903188767E+02  0.66395324335E+02  0.71734082375E+02  0.00000000000E+00 0.  1.
<scales pt_clust_5="13000.00000" pt_clust_6="13000.00000" pt_clust_7="13000.00000" pt_clust_8="13000.00000" pt_clust_9="27.15584"></scales>
<clustering>
<clus scale="   27.156">  1  9  2 -1</clus>
<clus scale="   92.591">  7  8 -1 -1</clus>
<clus scale="   94.943">  5  6 -1 -1</clus>
<clus scale="   95.961">  2  7  1 -1</clus>
<clus scale="   27.156">  1  5  2 -1</clus>
</clustering>
</event>
<event>
 9    1  0.1601012E-005  0.1000277E+03  0.7546771E-02  0.1281445E+00
         21   -1    0    0  501  502  0.00000000000E+00  0.00000000000E+00  0.84261314471E+02  0.84261314471E+02  0.00000000000E+00 0. -1.
          1   -1    0    0  502    0 -0.00000000000E+00 -0.00000000000E+00 -0.32033227713E+03  0.32033227713E+03  0.00000000000E+00 0. -1.
         23    2    1    2    0    0  0.59226499891E+00 -0.43468419975E+02 -0.21985684089E+03  0.24145832724E+03  0.89862333590E+02 0.  0.
         23    2    1    2    0    0 -0.23110393191E+02  0.23221845358E+02 -0.56227340563E+02  0.11295511332E+03  0.92325507978E+02 0.  0.
        -11    1    3    3    0    0 -0.34752821705E+02 -0.55100997365E+01 -0.35655869785E+02  0.50094519318E+02  0.00000000000E+00 0.  1.
         11    1    3    3    0    0  0.35345086704E+02 -0.37958320238E+02 -0.18420097110E+03  0.19136380793E+03  0.00000000000E+00 0. -1.
        -11    1    4    4    0    0  0.35596325182E+02  0.41402901729E+01 -0.25629139299E+02  0.44057838694E+02  0.00000000000E+00 0.  1.
         11    1    4    4    0    0 -0.58706718373E+02  0.19081555185E+02 -0.30598201264E+02  0.68897274627E+02  0.00000000000E+00 0. -1.
          1    1    1    2  501    0  0.22518128192E+02  0.20246574616E+02  0.40013218785E+02  0.50180151041E+02  0.00000000000E+00 0. -1.
<scales pt_clust_5="13000.00000" pt_clust_6="13000.00000" pt_clust_7="13000.00000" pt_clust_8="13000.00000" pt_clust_9="30.28184"></scales>
<clustering>
<clus scale="   30.282">  1  9  2 -1</clus>
<clus scale="   89.862">  5  6 -1 -1</clus>
<clus scale="   92.326">  7  8 -1 -1</clus>
<clus scale="   97.759">  2  5  1 -1</clus>
<clus scale="   30.282">  1  5  2 -1</clus>
</clustering>
</event>
<event>
 9    1  0.1601012E-005  0.1208629E+03  0.7546771E-02  0.1242143E+00
          1   -1    0    0  502    0 -0.00000000000E+00  0.00000000000E+00  0.12477574041E+03  0.12477574041E+03  0.00000000000E+00 0. -1.
         21   -1    0    0  501  502  0.00000000000E+00 -0.00000000000E+00 -0.26200825408E+03  0.26200825408E+03  0.00000000000E+00 0.  1.
         23    2    1    2    0    0 -0.22981631093E+02  0.66425870703E+02  0.47489591317E+02  0.12583676378E+03  0.92946641510E+02 0.  0.
         23    2    1    2    0    0  0.28897650083E+02 -0.10616166053E+03 -0.15519878533E+03  0.21109185308E+03  0.91475325213E+02 0.  0.
        -11    1    4    4    0    0 -0.30350423191E+02 -0.55470879204E+02 -0.86669593563E+02  0.10728366640E+03  0.00000000000E+00 0. -1.
         11    1    4    4    0    0  0.59248073275E+02 -0.50690781331E+02 -0.68529191768E+02  0.10380818669E+03  0.00000000000E+00 0.  1.
        -13    1    3    3    0    0 -0.56087640008E+01 -0.23140545347E+02  0.20138114457E+01  0.23895575095E+02  0.00000000000E+00 0.  1.
         13    1    3    3    0    0 -0.17372867093E+02  0.89566416050E+02  0.45475779872E+02  0.10194118868E+03  0.00000000000E+00 0. -1.
          1    1    1    2  501    0 -0.59160189899E+01  0.39735789831E+02 -0.29523319661E+02  0.49855377624E+02  0.00000000000E+00 0. -1.
<scales pt_clust_5="13000.00000" pt_clust_6="13000.00000" pt_clust_7="13000.00000" pt_clust_8="13000.00000" pt_clust_9="40.17378"></scales>
<clustering>
<clus scale="   40.174">  2  9  1 -1</clus>
<clus scale="   91.475">  5  6 -1 -1</clus>
<clus scale="   92.947">  7  8 -1 -1</clus>
<clus scale="  119.735">  2  5  1 -1</clus>
<clus scale="   40.174">  2  5  1 -1</clus>
</clustering>
</event>
<event>
 9    1  0.1601012E-005  0.1227521E+03  0.7546771E-02  0.1239428E+00
          2   -1    0    0  502    0 -0.00000000000E+00  0.00000000000E+00  0.15682978925E+03  0.15682978925E+03  0.00000000000E+00 0. -1.
         21   -1    0    0  501  502  0.00000000000E+00 -0.00000000000E+00 -0.37119128541E+03  0.37119128541E+03  0.00000000000E+00 0. -1.
         23    2    1    2    0    0  0.20600480653E+02 -0.40235936687E+01  0.53376395253E+02  0.13474225197E+03  0.12192565680E+03 0.  0.
         23    2    1    2    0    0  0.97214581676E+02 -0.22493604468E+02 -0.51909780220E+02  0.14596257922E+03  0.93025868002E+02 0.  0.
        -11    1    4    4    0    0  0.41776604997E+02  0.30125182503E+02 -0.46411558386E+02  0.69331407730E+02  0.00000000000E+00 0.  1.
         11    1    4    4    0    0  0.55437976679E+02 -0.52618786971E+02 -0.54982218339E+01  0.76631171489E+02  0.00000000000E+00 0. -1.
        -11    1    3    3    0    0 -0.42041134524E+02  0.27304553592E+02  0.38332480300E+02  0.63106059019E+02  0.00000000000E+00 0.  1.
         11    1    3    3    0    0  0.62641615178E+02 -0.31328147261E+02  0.15043914952E+02  0.71636192947E+02  0.00000000000E+00 0. -1.
          2    1    1    2  501    0 -0.11781506233E+03  0.26517198137E+02 -0.21582811119E+03  0.24731624348E+03  0.00000000000E+00 0. -1.
<scales pt_clust_5="13000.00000" pt_clust_6="13000.00000" pt_clust_7="13000.00000" pt_clust_8="13000.00000" pt_clust_9="120.76237"></scales>
<clustering>
<clus scale="   93.026">  5  6 -1 -1</clus>
<clus scale="  120.762">  2  9  1 -1</clus>
<clus scale="  120.762">  2  5  1 -1</clus>
<clus scale="  121.926">  7  8 -1 -1</clus>
<clus scale="  120.762">  2  5  1 -1</clus>
</clustering>
</event>
<event>
 9    1  0.1601012E-005  0.1305575E+03  0.7546771E-02  0.1226819E+00
          1   -1    0    0  502    0 -0.00000000000E+00  0.00000000000E+00  0.55644499045E+03  0.55644499045E+03  0.00000000000E+00 0. -1.
         21   -1    0    0  501  502  0.00000000000E+00 -0.00000000000E+00 -0.23405457406E+03  0.23405457406E+03  0.00000000000E+00 0. -1.
         23    2    1    2    0    0 -0.79745775622E+02 -0.68855533835E+02  0.44815718088E+03  0.46941867794E+03  0.91698217820E+02 0.  0.
         23    2    1    2    0    0  0.73337420465E+02 -0.24800294344E+02  0.43827198207E+02  0.12723921575E+03  0.90970120816E+02 0.  0.
        -11    1    4    4    0    0  0.72373843398E+02 -0.53784234879E+02  0.36864424565E+02  0.97415106264E+02  0.00000000000E+00 0. -1.
         11    1    4    4    0    0  0.96357706684E+00  0.28983940535E+02  0.69627736416E+01  0.29824109484E+02  0.00000000000E+00 0.  1.
        -11    1    3    3    0    0 -0.11795212421E+01 -0.37585455219E+02  0.51030522349E+02  0.63389052096E+02  0.00000000000E+00 0.  1.
         11    1    3    3    0    0 -0.78566254380E+02 -0.31270078616E+02  0.39712665853E+03  0.40602962584E+03  0.00000000000E+00 0. -1.
          1    1    1    2  501    0  0.64083551569E+01  0.93655828179E+02 -0.16959396270E+03  0.19384167083E+03  0.00000000000E+00 0. -1.
<scales pt_clust_5="13000.00000" pt_clust_6="13000.00000" pt_clust_7="13000.00000" pt_clust_8="13000.00000" pt_clust_9="93.87482"></scales>
<clustering>
<clus scale="   90.970">  5  6 -1 -1</clus>
<clus scale="   91.698">  7  8 -1 -1</clus>
<clus scale="   93.875">  2  9  1 -1</clus>
<clus scale="  130.047">  2  5  1 -1</clus>
<clus scale="   93.875">  2  5  1 -1</clus>
</clustering>
</event>
<event>
 9    1  0.1601012E-005  0.2045327E+03  0.7546771E-02  0.1146786E+00
          1   -1    0    0  502    0 -0.00000000000E+00  0.00000000000E+00  0.10896019777E+04  0.10896019777E+04  0.00000000000E+00 0. -1.
         21   -1    0    0  501  502  0.00000000000E+00 -0.00000000000E+00 -0.49546905598E+02  0.49546905598E+02  0.00000000000E+00 0.  1.
         23    2    1    2    0    0 -0.10350458957E+03  0.15848051825E+03  0.73684897559E+03  0.76558242026E+03  0.85678204089E+02 0.  0.
         23    2    1    2    0    0  0.93921453273E+02 -0.13632316008E+03  0.28679411109E+03  0.34437505526E+03  0.94541383369E+02 0.  0.
        -11    1    4    4    0    0  0.32776525151E+02 -0.10321800748E+03  0.23135445560E+03  0.25544694517E+03  0.00000000000E+00 0. -1.
         11    1    4    4    0    0  0.61144928121E+02 -0.33105152607E+02  0.55439655491E+02  0.88928110095E+02  0.00000000000E+00 0.  1.
        -13    1    3    3    0    0 -0.40261136825E+02  0.77678089449E+02  0.49797460503E+03  0.50560216769E+03  0.00000000000E+00 0. -1.
         13    1    3    3    0    0 -0.63243452748E+02  0.80802428803E+02  0.23887437056E+03  0.25998025257E+03  0.00000000000E+00 0.  1.
          1    1    1    2  501    0  0.95831362997E+01 -0.22157358167E+02  0.16411985411E+02  0.29191407767E+02  0.00000000000E+00 0. -1.
<scales pt_clust_5="13000.00000" pt_clust_6="13000.00000" pt_clust_7="13000.00000" pt_clust_8="13000.00000" pt_clust_9="24.14094"></scales>
<clustering>
<clus scale="   24.141">  2  9  1 -1</clus>
<clus scale="   85.678">  7  8 -1 -1</clus>
<clus scale="   94.541">  5  6 -1 -1</clus>
<clus scale="  200.590">  1  7  2 -1</clus>
<clus scale="   24.141">  2  5  1 -1</clus>
</clustering>
</event>
<event>
 9    1  0.1601012E-005  0.2607750E+03  0.7546771E-02  0.1106703E+00
          1   -1    0    0  502    0 -0.00000000000E+00  0.00000000000E+00  0.14514621378E+04  0.14514621378E+04  0.00000000000E+00 0. -1.
         21   -1    0    0  501  502  0.00000000000E+00 -0.00000000000E+00 -0.87054951549E+02  0.87054951549E+02  0.00000000000E+00 0. -1.
         23    2    1    2    0    0 -0.56714454451E+02 -0.27626009181E+03  0.97893637530E+03  0.10228728536E+04  0.91740286384E+02 0.  0.
         23    2    1    2    0    0  0.10801649070E+03  0.15676740975E+03  0.26018176656E+03  0.33506808934E+03  0.91282472705E+02 0.  0.
        -11    1    3    3    0    0 -0.53576618857E+02 -0.80728512128E+02  0.24875664158E+03  0.26695957276E+03  0.00000000000E+00 0. -1.
         11    1    3    3    0    0 -0.31378355942E+01 -0.19553157969E+03  0.73017973373E+03  0.75591328088E+03  0.00000000000E+00 0.  1.
        -11    1    4    4    0    0  0.22490666208E+02  0.49053612193E+02  0.18603026572E+02  0.57080290235E+02  0.00000000000E+00 0.  1.
         11    1    4    4    0    0  0.85525824497E+02  0.10771379756E+03  0.24157873999E+03  0.27798779911E+03  0.00000000000E+00 0. -1.
          1    1    1    2  501    0 -0.51302036254E+02  0.11949268206E+03  0.12528904436E+03  0.18057614634E+03  0.00000000000E+00 0. -1.
<scales pt_clust_5="13000.00000" pt_clust_6="13000.00000" pt_clust_7="13000.00000" pt_clust_8="13000.00000" pt_clust_9="130.03999"></scales>
<clustering>
<clus scale="   91.282">  7  8 -1 -1</clus>
<clus scale="   91.740">  5  6 -1 -1</clus>
<clus scale="  130.040">  2  9  1 -1</clus>
<clus scale="  260.614">  2  7  1 -1</clus>
<clus scale="  130.040">  2  5  1 -1</clus>
</clustering>
</event>
<event>
 9    1  0.1601012E-005  0.1199943E+03  0.7546771E-02  0.1243520E+00
         -1   -1    0    0    0  501 -0.00000000000E+00  0.00000000000E+00  0.52579879974E+03  0.52579879974E+03  0.00000000000E+00 0.  1.
         21   -1    0    0  501  502  0.00000000000E+00 -0.00000000000E+00 -0.80751963767E+02  0.80751963767E+02  0.00000000000E+00 0. -1.
         23    2    1    2    0    0  0.40019346565E+01 -0.56836264416E+02  0.23491819456E+03  0.25787419288E+03  0.89811829853E+02 0.  0.
         23    2    1    2    0    0  0.29527461184E+01  0.15417688494E+03  0.15318436470E+03  0.23568889591E+03  0.91129443674E+02 0.  0.
        -11    1    4    4    0    0  0.54954517628E+01  0.10526665000E+03  0.15410103388E+03  0.18670403379E+03  0.00000000000E+00 0.  1.
         11    1    4    4    0    0 -0.25427056443E+01  0.48910234941E+02 -0.91666917368E+00  0.48984862114E+02  0.00000000000E+00 0. -1.
        -13    1    3    3    0    0  0.45874927841E+02 -0.40560845310E+02  0.14326473941E+03  0.15580268526E+03  0.00000000000E+00 0.  1.
         13    1    3    3    0    0 -0.41872993185E+02 -0.16275419106E+02  0.91653455159E+02  0.10207150762E+03  0.00000000000E+00 0. -1.
         -1    1    1    2    0  502 -0.69546807749E+01 -0.97340620527E+02  0.56944276703E+02  0.11298767472E+03  0.00000000000E+00 0.  1.
<scales pt_clust_5="13000.00000" pt_clust_6="13000.00000" pt_clust_7="13000.00000" pt_clust_8="13000.00000" pt_clust_9="97.58875"></scales>
<clustering>
<clus scale="   89.812">  7  8 -1 -1</clus>
<clus scale="   91.129">  5  6 -1 -1</clus>
<clus scale="   97.589">  2  9  1 -1</clus>
<clus scale="  118.997">  1  7  2 -1</clus>
<clus scale="   97.589">  2  5  1 -1</clus>
</clustering>
</event>
<event>
 9    1  0.1601012E-005  0.9811388E+02  0.7546771E-02  0.1285640E+00
         -1   -1    0    0    0  501 -0.00000000000E+00  0.00000000000E+00  0.17445348983E+03  0.17445348983E+03  0.00000000000E+00 0.  1.
         21   -1    0    0  501  502  0.00000000000E+00 -0.00000000000E+00 -0.10396287108E+03  0.10396287108E+03  0.00000000000E+00 0. -1.
         23    2    1    2    0    0 -0.29823724282E+02 -0.12226169585E+01  0.68151542551E+02  0.11716352438E+03  0.90508062458E+02 0.  0.
         23    2    1    2    0    0  0.45948986231E+02  0.19654376536E+02  0.46101829640E+02  0.11110373463E+03  0.87869547052E+02 0.  0.
        -13    1    3    3    0    0 -0.30589715244E+02  0.37370584511E+02  0.13301185979E+02  0.50092043419E+02  0.00000000000E+00 0. -1.
         13    1    3    3    0    0  0.76599096134E+00 -0.38593201470E+02  0.54850356571E+02  0.67071480958E+02  0.00000000000E+00 0.  1.
        -13    1    4    4    0    0  0.69469958016E+02  0.25179048664E+02  0.22290287498E+02  0.77181062931E+02  0.00000000000E+00 0.  1.
         13    1    4    4    0    0 -0.23520971785E+02 -0.55246721281E+01  0.23811542142E+02  0.33922671696E+02  0.00000000000E+00 0. -1.
         -1    1    1    2    0  502 -0.16125261949E+02 -0.18431759577E+02 -0.43762753434E+02  0.50149101908E+02  0.00000000000E+00 0.  1.
<scales pt_clust_5="13000.00000" pt_clust_6="13000.00000" pt_clust_7="13000.00000" pt_clust_8="13000.00000" pt_clust_9="24.48987"></scales>
<clustering>
<clus scale="   24.490">  2  9  1 -1</clus>
<clus scale="   87.870">  7  8 -1 -1</clus>
<clus scale="   90.508">  5  6 -1 -1</clus>
<clus scale="   95.685">  2  7  1 -1</clus>
<clus scale="   24.490">  2  5  1 -1</clus>
</clustering>
</event>
<event>
 9    1  0.1601012E-005  0.1348963E+03  0.7546771E-02  0.1227629E+00
         -3   -1    0    0    0  501 -0.00000000000E+00  0.00000000000E+00  0.22164583405E+03  0.22164583405E+03  0.00000000000E+00 0.  1.
         21   -1    0    0  501  502  0.00000000000E+00 -0.00000000000E+00 -0.10232922491E+03  0.10232922491E+03  0.00000000000E+00 0. -1.
         23    2    1    2    0    0 -0.52078309782E+02 -0.49517169880E+02  0.97322055743E+02  0.15087527743E+03  0.90153570886E+02 0.  0.
         23    2    1    2    0    0  0.38414213388E+02  0.66577289412E+02  0.42099087579E+02  0.14340218056E+03  0.11350623313E+03 0.  0.
        -13    1    4    4    0    0  0.51043856931E+02  0.93862531808E+02  0.35806217239E+02  0.11268422871E+03  0.00000000000E+00 0. -1.
         13    1    4    4    0    0 -0.12629643543E+02 -0.27285242397E+02  0.62928703403E+01  0.30717951849E+02  0.00000000000E+00 0.  1.
        -13    1    3    3    0    0 -0.37422384578E+02 -0.27168181729E+02  0.11143676568E+03  0.12065114053E+03  0.00000000000E+00 0.  1.
         13    1    3    3    0    0 -0.14655925204E+02 -0.22348988151E+02 -0.14114709936E+02  0.30224136903E+02  0.00000000000E+00 0. -1.
         -3    1    1    2    0  502  0.13664096394E+02 -0.17060119531E+02 -0.20104534182E+02  0.29697600970E+02  0.00000000000E+00 0.  1.
<scales pt_clust_5="13000.00000" pt_clust_6="13000.00000" pt_clust_7="13000.00000" pt_clust_8="13000.00000" pt_clust_9="21.85761"></scales>
<clustering>
<clus scale="   21.858">  2  9  1 -1</clus>
<clus scale="   90.154">  7  8 -1 -1</clus>
<clus scale="  113.506">  5  6 -1 -1</clus>
<clus scale="  115.935">  1  7  2 -1</clus>
<clus scale="   21.858">  2  5  1 -1</clus>
</clustering>
</event>
<event>
 9    1  0.1601012E-005  0.9784626E+02  0.7546771E-02  0.1284979E+00
         21   -1    0    0  501  502  0.00000000000E+00  0.00000000000E+00  0.28117130190E+02  0.28117130190E+02  0.00000000000E+00 0.  1.
          1   -1    0    0  502    0 -0.00000000000E+00 -0.00000000000E+00 -0.45715375657E+03  0.45715375657E+03  0.00000000000E+00 0. -1.
         23    2    1    2    0    0 -0.21196237208E+02  0.36401650838E+02 -0.23422864196E+03  0.25432579601E+03  0.89689426055E+02 0.  0.
         23    2    1    2    0    0  0.36441549399E+02 -0.15503109166E+02 -0.14741542877E+03  0.17695228643E+03  0.89512402022E+02 0.  0.
        -13    1    4    4    0    0  0.53879534155E+02 -0.31155022111E+02 -0.59997924605E+02  0.86448774198E+02  0.00000000000E+00 0.  1.
         13    1    4    4    0    0 -0.17437984756E+02  0.15651912944E+02 -0.87417504165E+02  0.90503512228E+02  0.00000000000E+00 0. -1.
        -13    1    3    3    0    0 -0.63696396551E+01 -0.30191184932E+02 -0.71329903270E+02  0.77717662455E+02  0.00000000000E+00 0.  1.
         13    1    3    3    0    0 -0.14826597553E+02  0.66592835770E+02 -0.16289873869E+03  0.17660813355E+03  0.00000000000E+00 0. -1.
          1    1    1    2  501    0 -0.15245312191E+02 -0.20898541671E+02 -0.47392555646E+02  0.53992804321E+02  0.00000000000E+00 0. -1.
<scales pt_clust_5="13000.00000" pt_clust_6="13000.00000" pt_clust_7="13000.00000" pt_clust_8="13000.00000" pt_clust_9="25.86829"></scales>
<clustering>
<clus scale="   25.868">  1  9  2 -1</clus>
<clus scale="   89.512">  5  6 -1 -1</clus>
<clus scale="   89.689">  7  8 -1 -1</clus>
<clus scale="   97.684">  1  5  2 -1</clus>
<clus scale="   25.868">  1  5  2 -1</clus>
</clustering>
</event>
<event>
 9    1  0.1601012E-005  0.1110612E+03  0.7546771E-02  0.1259661E+00
          2   -1    0    0  502    0 -0.00000000000E+00  0.00000000000E+00  0.45902929869E+03  0.45902929869E+03  0.00000000000E+00 0. -1.
         21   -1    0    0  501  502  0.00000000000E+00 -0.00000000000E+00 -0.58899581549E+02  0.58899581549E+02  0.00000000000E+00 0. -1.
         23    2    1    2    0    0  0.42909321746E+02  0.40608514699E+02  0.31268845481E+03  0.33189669905E+03  0.94292564436E+02 0.  0.
         23    2    1    2    0    0 -0.71242626514E+02 -0.19901867687E+01  0.57406243573E+02  0.12949676076E+03  0.91621294309E+02 0.  0.
        -13    1    4    4    0    0  0.20245575945E+02 -0.67735696280E+01  0.23655124549E+02  0.31864235567E+02  0.00000000000E+00 0.  1.
         13    1    4    4    0    0 -0.91488202459E+02  0.47833828593E+01  0.33751119024E+02  0.97632525195E+02  0.00000000000E+00 0. -1.
        -13    1    3    3    0    0  0.13535471513E+02 -0.24998257486E+02  0.35182076108E+02  0.45231629926E+02  0.00000000000E+00 0. -1.
         13    1    3    3    0    0  0.29373850233E+02  0.65606772185E+02  0.27750637871E+03  0.28666506913E+03  0.00000000000E+00 0.  1.
          2    1    1    2  501    0  0.28333304768E+02 -0.38618327930E+02  0.30035018752E+02  0.56535420425E+02  0.00000000000E+00 0. -1.
<scales pt_clust_5="13000.00000" pt_clust_6="13000.00000" pt_clust_7="13000.00000" pt_clust_8="13000.00000" pt_clust_9="47.89730"></scales>
<clustering>
<clus scale="   47.897">  2  9  1 -1</clus>
<clus scale="   91.621">  5  6 -1 -1</clus>
<clus scale="   94.293">  7  8 -1 -1</clus>
<clus scale="  108.802">  2  5  1 -1</clus>
<clus scale="   47.897">  2  5  1 -1</clus>
</clustering>
</event>
<event>
 9    1  0.1601012E-005  0.1255572E+03  0.7546771E-02  0.1239653E+00
         -2   -1    0    0    0  501 -0.00000000000E+00  0.00000000000E+00  0.43612340234E+02  0.43612340234E+02  0.00000000000E+00 0.  1.
         21   -1    0    0  501  502  0.00000000000E+00 -0.00000000000E+00 -0.49152394832E+03  0.49152394832E+03  0.00000000000E+00 0.  1.
         23    2    1    2    0    0  0.98836120954E+01 -0.71334379102E+02 -0.94139681624E+02  0.14842480356E+03  0.89338475614E+02 0.  0.
         23    2    1    2    0    0 -0.24221677456E+02  0.56970648165E+02 -0.22268536645E+03  0.25406314124E+03  0.10548442016E+03 0.  0.
        -11    1    4    4    0    0  0.95563582481E+01  0.58090744698E+02 -0.47491722133E+02  0.75639422748E+02  0.00000000000E+00 0. -1.
         11    1    4    4    0    0 -0.33778035704E+02 -0.11200965331E+01 -0.17519364431E+03  0.17842371849E+03  0.00000000000E+00 0.  1.
        -13    1    3    3    0    0  0.45480374808E+02 -0.63060433463E+02 -0.70063365713E+02  0.10466115792E+03  0.00000000000E+00 0.  1.
         13    1    3    3    0    0 -0.35596762713E+02 -0.82739456394E+01 -0.24076315910E+02  0.43763645642E+02  0.00000000000E+00 0. -1.
         -2    1    1    2    0  502  0.14338065361E+02  0.14363730938E+02 -0.13108656001E+03  0.13264834375E+03  0.00000000000E+00 0.  1.
<scales pt_clust_5="13000.00000" pt_clust_6="13000.00000" pt_clust_7="13000.00000" pt_clust_8="13000.00000" pt_clust_9="20.29524"></scales>
<clustering>
<clus scale="   20.295">  2  9  1 -1</clus>
<clus scale="   89.338">  7  8 -1 -1</clus>
<clus scale="  105.484">  5  6 -1 -1</clus>
<clus scale="  112.334">  1  7  2 -1</clus>
<clus scale="   20.295">  2  5  1 -1</clus>
</clustering>
</event>
<event>
 9    1  0.1601012E-005  0.1986516E+03  0.7546771E-02  0.1151009E+00
         21   -1    0    0  501  502  0.00000000000E+00  0.00000000000E+00  0.71503050117E+02  0.71503050117E+02  0.00000000000E+00 0.  1.
          1   -1    0    0  502    0 -0.00000000000E+00 -0.00000000000E+00 -0.12153525669E+04  0.12153525669E+04  0.00000000000E+00 0. -1.
         23    2    1    2    0    0  0.79502329202E+02  0.15322864069E+03 -0.92606675793E+03  0.94648837950E+03  0.91874782755E+02 0.  0.
         23    2    1    2    0    0 -0.95006718209E+02 -0.17210889563E+03 -0.13746455724E+03  0.25641568235E+03  0.90580070643E+02 0.  0.
        -11    1    4    4    0    0 -0.10919953771E+03 -0.15489670723E+03 -0.13743492209E+03  0.23410657137E+03  0.00000000000E+00 0.  1.
         11    1    4    4    0    0  0.14192819500E+02 -0.17212188397E+02 -0.29635157303E-01  0.22309110986E+02  0.00000000000E+00 0. -1.
        -13    1    3    3    0    0 -0.47513749960E+01  0.70236952411E+02 -0.23295420938E+03  0.24335872434E+03  0.00000000000E+00 0.  1.
         13    1    3    3    0    0  0.84253704198E+02  0.82991688277E+02 -0.69311254855E+03  0.70312965515E+03  0.00000000000E+00 0. -1.
          1    1    1    2  501    0  0.15504389007E+02  0.18880254941E+02 -0.80318201567E+02  0.83951555126E+02  0.00000000000E+00 0. -1.
<scales pt_clust_5="13000.00000" pt_clust_6="13000.00000" pt_clust_7="13000.00000" pt_clust_8="13000.00000" pt_clust_9="24.43053"></scales>
<clustering>
<clus scale="   24.431">  1  9  2 -1</clus>
<clus scale="   90.580">  5  6 -1 -1</clus>
<clus scale="   91.875">  7  8 -1 -1</clus>
<clus scale="  198.056">  1  5  2 -1</clus>
<clus scale="   24.431">  1  5  2 -1</clus>
</clustering>
</event>
<event>
 9    1  0.1601012E-005  0.1092484E+03  0.7546771E-02  0.1262100E+00
         21   -1    0    0  501  502  0.00000000000E+00  0.00000000000E+00  0.15793438563E+03  0.15793438563E+03  0.00000000000E+00 0. -1.
         -1   -1    0    0    0  501 -0.00000000000E+00 -0.00000000000E+00 -0.12327856759E+03  0.12327856759E+03  0.00000000000E+00 0.  1.
         23    2    1    2    0    0  0.45075167980E+02  0.22249566904E+02 -0.24934408647E+02  0.10651916672E+03  0.90541670786E+02 0.  0.
         23    2    1    2    0    0 -0.78783581813E+02 -0.15878822467E+02  0.21110588670E+02  0.12314258777E+03  0.90881517388E+02 0.  0.
        -11    1    4    4    0    0 -0.17801956983E+02 -0.47465788421E+02 -0.18535978692E+01  0.50728163458E+02  0.00000000000E+00 0.  1.
         11    1    4    4    0    0 -0.60981624830E+02  0.31586965954E+02  0.22964186539E+02  0.72414424313E+02  0.00000000000E+00 0. -1.
        -13    1    3    3    0    0  0.20752469908E+02 -0.26741675881E+02 -0.37375558635E+02  0.50425337078E+02  0.00000000000E+00 0.  1.
         13    1    3    3    0    0  0.24322698071E+02  0.48991242785E+02  0.12441149987E+02  0.56093829644E+02  0.00000000000E+00 0. -1.
         -1    1    1    2    0  502  0.33708413833E+02 -0.63707444374E+01  0.38479638022E+02  0.51551198727E+02  0.00000000000E+00 0.  1.
<scales pt_clust_5="13000.00000" pt_clust_6="13000.00000" pt_clust_7="13000.00000" pt_clust_8="13000.00000" pt_clust_9="34.30515"></scales>
<clustering>
<clus scale="   34.305">  1  9  2 -1</clus>
<clus scale="   90.542">  7  8 -1 -1</clus>
<clus scale="   90.882">  5  6 -1 -1</clus>
<clus scale="  108.966">  2  7  1 -1</clus>
<clus scale="   34.305">  1  5  2 -1</clus>
</clustering>
</event>
<event>
 9    1  0.1601012E-005  0.1091898E+03  0.7546771E-02  0.1263407E+00
         21   -1    0    0  501  502  0.00000000000E+00  0.00000000000E+00  0.14192826343E+03  0.14192826343E+03  0.00000000000E+00 0.  1.
          1   -1    0    0  502    0 -0.00000000000E+00 -0.00000000000E+00 -0.20545074882E+03  0.20545074882E+03  0.00000000000E+00 0. -1.
         23    2    1    2    0    0 -0.35468146868E+02 -0.49194179003E+02 -0.97869048306E+02  0.14707060556E+03  0.91506041947E+02 0.  0.
         23    2    1    2    0    0 -0.22417872165E+02  0.73729987773E+02 -0.18055007900E+02  0.11846268759E+03  0.88140529565E+02 0.  0.
        -13    1    3    3    0    0 -0.22864565317E+02 -0.71852595568E+02 -0.94544070858E+02  0.12093041458E+03  0.00000000000E+00 0. -1.
         13    1    3    3    0    0 -0.12603581551E+02  0.22658416564E+02 -0.33249774472E+01  0.26140190974E+02  0.00000000000E+00 0.  1.
        -13    1    4    4    0    0  0.12606633143E+02  0.71317691797E+02 -0.33876634368E+02  0.79954779210E+02  0.00000000000E+00 0. -1.
         13    1    4    4    0    0 -0.35024505308E+02  0.24122959762E+01  0.15821626468E+02  0.38507908383E+02  0.00000000000E+00 0.  1.
          1    1    1    2  501    0  0.57886019034E+02 -0.24535808770E+02  0.52401570810E+02  0.81845719099E+02  0.00000000000E+00 0. -1.
<scales pt_clust_5="13000.00000" pt_clust_6="13000.00000" pt_clust_7="13000.00000" pt_clust_8="13000.00000" pt_clust_9="62.87127"></scales>
<clustering>
<clus scale="   62.871">  1  9  2 -1</clus>
<clus scale="   88.141">  7  8 -1 -1</clus>
<clus scale="   91.506">  5  6 -1 -1</clus>
<clus scale="  106.385">  1  7  2 -1</clus>
<clus scale="   62.871">  1  5  2 -1</clus>
</clustering>
</event>
<event>
 9    1  0.1601012E-005  0.1082337E+03  0.7546771E-02  0.1264592E+00
         21   -1    0    0  501  502  0.00000000000E+00  0.00000000000E+00  0.11367325401E+03  0.11367325401E+03  0.00000000000E+00 0. -1.
          2   -1    0    0  502    0 -0.00000000000E+00 -0.00000000000E+00 -0.44430791262E+03  0.44430791262E+03  0.00000000000E+00 0. -1.
         23    2    1    2    0    0  0.69838433690E+02  0.25814609005E+01 -0.22541745019E+03  0.25290408033E+03  0.90903114542E+02 0.  0.
         23    2    1    2    0    0 -0.29865818619E+02 -0.46545553291E+02 -0.17981354005E+03  0.20970799241E+03  0.92661088064E+02 0.  0.
        -11    1    4    4    0    0 -0.29432167676E+02  0.14754460938E+02 -0.19955036505E+02  0.38498702492E+02  0.00000000000E+00 0.  1.
         11    1    4    4    0    0 -0.43365094310E+00 -0.61300014229E+02 -0.15985850355E+03  0.17120928992E+03  0.00000000000E+00 0. -1.
        -13    1    3    3    0    0 -0.19068590151E+02  0.15259926066E+02 -0.39662904758E+02  0.46579206602E+02  0.00000000000E+00 0.  1.
         13    1    3    3    0    0  0.88907023840E+02 -0.12678465166E+02 -0.18575454544E+03  0.20632487372E+03  0.00000000000E+00 0. -1.
          2    1    1    2  501    0 -0.39972615071E+02  0.43964092391E+02  0.74596331637E+02  0.95369093888E+02  0.00000000000E+00 0. -1.
<scales pt_clust_5="13000.00000" pt_clust_6="13000.00000" pt_clust_7="13000.00000" pt_clust_8="13000.00000" pt_clust_9="59.41928"></scales>
<clustering>
<clus scale="   59.419">  1  9  2 -1</clus>
<clus scale="   90.903">  7  8 -1 -1</clus>
<clus scale="   92.661">  5  6 -1 -1</clus>
<clus scale="  106.733">  2  7  1 -1</clus>
<clus scale="   59.419">  1  5  2 -1</clus>
</clustering>
</event>
<event>
 9    1  0.1601012E-005  0.1018202E+03  0.7546771E-02  0.1276793E+00
          1   -1    0    0  502    0 -0.00000000000E+00  0.00000000000E+00  0.59449539594E+03  0.59449539594E+03  0.00000000000E+00 0. -1.
         21   -1    0    0  501  502  0.00000000000E+00 -0.00000000000E+00 -0.27529250063E+02  0.27529250063E+02  0.00000000000E+00 0.  1.
         23    2    1    2    0    0  0.50375949531E+01  0.38939813592E+02  0.30105540378E+03  0.31684770620E+03  0.90644505245E+02 0.  0.
         23    2    1    2    0    0 -0.31576024220E+02 -0.46651996911E+02  0.25276720194E+03  0.27457434764E+03  0.91248889759E+02 0.  0.
        -11    1    3    3    0    0 -0.38800978734E+02  0.34777917554E+02  0.19876671086E+03  0.20548290646E+03  0.00000000000E+00 0.  1.
         11    1    3    3    0    0  0.43838573687E+02  0.41618960386E+01  0.10228869292E+03  0.11136479974E+03  0.00000000000E+00 0. -1.
        -13    1    4    4    0    0 -0.42862577781E+02 -0.17337422423E+02  0.23281363490E+03  0.23736043349E+03  0.00000000000E+00 0.  1.
         13    1    4    4    0    0  0.11286553561E+02 -0.29314574488E+02  0.19953567042E+02  0.37213914151E+02  0.00000000000E+00 0. -1.
          1    1    1    2  501    0  0.26538429267E+02  0.77121833187E+01  0.13143540151E+02  0.30602592165E+02  0.00000000000E+00 0. -1.
<scales pt_clust_5="13000.00000" pt_clust_6="13000.00000" pt_clust_7="13000.00000" pt_clust_8="13000.00000" pt_clust_9="27.63632"></scales>
<clustering>
<clus scale="   27.636">  2  9  1 -1</clus>
<clus scale="   90.645">  5  6 -1 -1</clus>
<clus scale="   91.249">  7  8 -1 -1</clus>
<clus scale="  101.279">  1  5  2 -1</clus>
<clus scale="   27.636">  2  5  1 -1</clus>
</clustering>
</event>
<event>
 9    1  0.1601012E-005  0.1826308E+03  0.7546771E-02  0.1165430E+00
          2   -1    0    0  502    0 -0.00000000000E+00  0.00000000000E+00  0.34822365806E+03  0.34822365806E+03  0.00000000000E+00 0. -1.
         21   -1    0    0  501  502  0.00000000000E+00 -0.00000000000E+00 -0.16759762815E+03  0.16759762815E+03  0.00000000000E+00 0.  1.
         23    2    1    2    0    0  0.13272345898E+03 -0.62750043699E+01  0.11386791257E+03  0.19978547122E+03  0.96402493508E+02 0.  0.
         23    2    1    2    0    0 -0.20386110129E+03  0.39040662967E+02  0.32931617764E+02  0.23072236581E+03  0.95209225677E+02 0.  0.
        -11    1    3    3    0    0  0.17021078271E+02 -0.39804252862E+02  0.36432255576E+02  0.56580958792E+02  0.00000000000E+00 0.  1.
         11    1    3    3    0    0  0.11570238071E+03  0.33529248492E+02  0.77435656995E+02  0.14320451243E+03  0.00000000000E+00 0. -1.
        -11    1    4    4    0    0 -0.17562291379E+03  0.31791577336E+02 -0.10079726047E+02  0.17876160974E+03  0.00000000000E+00 0.  1.
         11    1    4    4    0    0 -0.28238187495E+02  0.72490856309E+01  0.43011343811E+02  0.51960756075E+02  0.00000000000E+00 0. -1.
          2    1    1    2  501    0  0.71137642309E+02 -0.32765658597E+02  0.33826499578E+02  0.85313449175E+02  0.00000000000E+00 0. -1.
<scales pt_clust_5="13000.00000" pt_clust_6="13000.00000" pt_clust_7="13000.00000" pt_clust_8="13000.00000" pt_clust_9="78.32087"></scales>
<clustering>
<clus scale="   78.321">  2  9  1 -1</clus>
<clus scale="   95.209">  7  8 -1 -1</clus>
<clus scale="   96.402">  5  6 -1 -1</clus>
<clus scale="  182.004">  2  7  1 -1</clus>
<clus scale="   78.321">  2  5  1 -1</clus>
</clustering>
</event>
<event>
 9    1  0.1601012E-005  0.2179111E+03  0.7546771E-02  0.1135917E+00
          3   -1    0    0  502    0 -0.00000000000E+00  0.00000000000E+00  0.58749217427E+03  0.58749217427E+03  0.00000000000E+00 0. -1.
         21   -1    0    0  501  502  0.00000000000E+00 -0.00000000000E+00 -0.16867616619E+03  0.16867616619E+03  0.00000000000E+00 0. -1.
         23    2    1    2    0    0  0.20342896646E+03  0.11880492211E+02  0.32312844896E+03  0.39158887747E+03  0.86054424274E+02 0.  0.
         23    2    1    2    0    0 -0.18518688555E+03 -0.43457556428E+02  0.17688140046E+03  0.27557202300E+03  0.92033516950E+02 0.  0.
        -11    1    4    4    0    0 -0.17279995271E+03 -0.26612011329E+02  0.18367806148E+03  0.25358559319E+03  0.00000000000E+00 0.  1.
         11    1    4    4    0    0 -0.12386932844E+02 -0.16845545099E+02 -0.67966610217E+01  0.21986429815E+02  0.00000000000E+00 0. -1.
        -13    1    3    3    0    0  0.43376121599E+02  0.32381101610E+02  0.12392706994E+03  0.13523291881E+03  0.00000000000E+00 0.  1.
         13    1    3    3    0    0  0.16005284487E+03 -0.20500609399E+02  0.19920137903E+03  0.25635595866E+03  0.00000000000E+00 0. -1.
          3    1    1    2  501    0 -0.18242080913E+02  0.31577064217E+02 -0.81193841348E+02  0.89007439989E+02  0.00000000000E+00 0. -1.
<scales pt_clust_5="13000.00000" pt_clust_6="13000.00000" pt_clust_7="13000.00000" pt_clust_8="13000.00000" pt_clust_9="36.46758"></scales>
<clustering>
<clus scale="   36.468">  2  9  1 -1</clus>
<clus scale="   86.054">  7  8 -1 -1</clus>
<clus scale="   92.034">  5  6 -1 -1</clus>
<clus scale="  215.454">  1  7  2 -1</clus>
<clus scale="   36.468">  2  5  1 -1</clus>
</clustering>
</event>
<event>
 9    1  0.1601012E-005  0.2228777E+03  0.7546771E-02  0.1131810E+00
          1   -1    0    0  502    0 -0.00000000000E+00  0.00000000000E+00  0.10820101154E+04  0.10820101154E+04  0.00000000000E+00 0. -1.
         21   -1    0    0  501  502  0.00000000000E+00 -0.00000000000E+00 -0.12962659526E+03  0.12962659526E+03  0.00000000000E+00 0. -1.
         23    2    1    2    0    0 -0.18771938203E+03  0.87776197647E+02  0.70384723359E+03  0.73939628802E+03  0.91447882685E+02 0.  0.
         23    2    1    2    0    0  0.18665008171E+03 -0.62343819107E+02  0.32558174940E+03  0.39109886341E+03  0.90718469104E+02 0.  0.
        -11    1    4    4    0    0  0.26447205930E+00 -0.26732348661E+02  0.45962756511E+02  0.53172017043E+02  0.00000000000E+00 0. -1.
         11    1    4    4    0    0  0.18638560965E+03 -0.35611470446E+02  0.27961899289E+03  0.33792684637E+03  0.00000000000E+00 0.  1.
        -13    1    3    3    0    0 -0.16135455495E+03  0.73369876666E+02  0.67448518865E+03  0.69738705245E+03  0.00000000000E+00 0. -1.
         13    1    3    3    0    0 -0.26364827076E+02  0.14406320981E+02  0.29362044936E+02  0.42009235577E+02  0.00000000000E+00 0.  1.
          1    1    1    2  501    0  0.10693003216E+01 -0.25432378540E+02 -0.77045462867E+02  0.81141559202E+02  0.00000000000E+00 0. -1.
<scales pt_clust_5="13000.00000" pt_clust_6="13000.00000" pt_clust_7="13000.00000" pt_clust_8="13000.00000" pt_clust_9="25.45485"></scales>
<clustering>
<clus scale="   25.455">  2  9  1 -1</clus>
<clus scale="   90.718">  5  6 -1 -1</clus>
<clus scale="   91.448">  7  8 -1 -1</clus>
<clus scale="  222.579">  2  5  1 -1</clus>
<clus scale="   25.455">  2  5  1 -1</clus>
</clustering>
</event>
<event>
 9    1  0.1601012E-005  0.1068077E+03  0.7546771E-02  0.1266736E+00
         21   -1    0    0  501  502  0.00000000000E+00  0.00000000000E+00  0.70350730935E+02  0.70350730935E+02  0.00000000000E+00 0.  1.
         -2   -1    0    0    0  501 -0.00000000000E+00 -0.00000000000E+00 -0.25614040922E+03  0.25614040922E+03  0.00000000000E+00 0.  1.
         23    2    1    2    0    0  0.20729512871E+02 -0.57422336113E+02 -0.10054130505E+03  0.14861843059E+03  0.90839674716E+02 0.  0.
         23    2    1    2    0    0  0.13844703270E+02  0.53619513186E+02 -0.93805223862E+02  0.14205291647E+03  0.91175013308E+02 0.  0.
        -11    1    4    4    0    0  0.44099454211E+02  0.45178409088E+02 -0.27856388171E+02  0.69006006053E+02  0.00000000000E+00 0.  1.
         11    1    4    4    0    0 -0.30254750941E+02  0.84411040980E+01 -0.65948835692E+02  0.73046910421E+02  0.00000000000E+00 0. -1.
        -13    1    3    3    0    0  0.52112214159E+02 -0.30182091493E+02 -0.31314813364E+02  0.67876793144E+02  0.00000000000E+00 0.  1.
         13    1    3    3    0    0 -0.31382701288E+02 -0.27240244620E+02 -0.69226491683E+02  0.80741637448E+02  0.00000000000E+00 0. -1.
         -2    1    1    2    0  502 -0.34574216141E+02  0.38028229276E+01  0.85568506277E+01  0.35819793085E+02  0.00000000000E+00 0.  1.
<scales pt_clust_5="13000.00000" pt_clust_6="13000.00000" pt_clust_7="13000.00000" pt_clust_8="13000.00000" pt_clust_9="34.78272"></scales>
<clustering>
<clus scale="   34.783">  1  9  2 -1</clus>
<clus scale="   90.840">  7  8 -1 -1</clus>
<clus scale="   91.175">  5  6 -1 -1</clus>
<clus scale="  106.522">  2  7  1 -1</clus>
<clus scale="   34.783">  1  5  2 -1</clus>
</clustering>
</event>
<event>
 9    1  0.1601012E-005  0.9423206E+02  0.7546771E-02  0.1293698E+00
         21   -1    0    0  501  502  0.00000000000E+00  0.00000000000E+00  0.14547029435E+03  0.14547029435E+03  0.00000000000E+00 0.  1.
          2   -1    0    0  502    0 -0.00000000000E+00 -0.00000000000E+00 -0.20003049421E+03  0.20003049421E+03  0.00000000000E+00 0. -1.
         23    2    1    2    0    0 -0.17199362306E+02  0.11899584458E+02 -0.14658429668E+03  0.17399995130E+03  0.91387137198E+02 0.  0.
         23    2    1    2    0    0  0.18728870645E+02 -0.42465329397E+02  0.97330421259E+02  0.14044023137E+03  0.89978735749E+02 0.  0.
        -11    1    4    4    0    0  0.16145895253E+02 -0.64015575605E+02  0.98641280717E+02  0.11869619250E+03  0.00000000000E+00 0.  1.
         11    1    4    4    0    0  0.25829753921E+01  0.21550246207E+02 -0.13108594579E+01  0.21744038861E+02  0.00000000000E+00 0. -1.
        -13    1    3    3    0    0  0.21329244462E+01 -0.24859470332E+02 -0.37268682087E+01  0.25227607467E+02  0.00000000000E+00 0.  1.
         13    1    3    3    0    0 -0.19332286752E+02  0.36759054790E+02 -0.14285742847E+03  0.14877234383E+03  0.00000000000E+00 0. -1.
          2    1    1    2  501    0 -0.15295083397E+01  0.30565744939E+02 -0.53063244431E+01  0.31060605895E+02  0.00000000000E+00 0. -1.
<scales pt_clust_5="13000.00000" pt_clust_6="13000.00000" pt_clust_7="13000.00000" pt_clust_8="13000.00000" pt_clust_9="30.60400"></scales>
<clustering>
<clus scale="   30.604">  1  9  2 -1</clus>
<clus scale="   89.979">  5  6 -1 -1</clus>
<clus scale="   91.387">  7  8 -1 -1</clus>
<clus scale="   92.867">  1  5  2 -1</clus>
<clus scale="   30.604">  1  5  2 -1</clus>
</clustering>
</event>
<event>
 9    1  0.1601012E-005  0.1409644E+03  0.7546771E-02  0.1213728E+00
          2   -1    0    0  502    0 -0.00000000000E+00  0.00000000000E+00  0.46430517950E+03  0.46430517950E+03  0.00000000000E+00 0. -1.
         21   -1    0    0  501  502  0.00000000000E+00 -0.00000000000E+00 -0.14208922231E+03  0.14208922231E+03  0.00000000000E+00 0. -1.
         23    2    1    2    0    0  0.32754483554E+02  0.77277018313E+02  0.23777444427E+03  0.27068531729E+03  0.98434043379E+02 0.  0.
         23    2    1    2    0    0  0.50096222644E+01 -0.15189385105E+03  0.14781857160E+03  0.23077838844E+03  0.91167407334E+02 0.  0.
        -11    1    3    3    0    0  0.11943348406E+01  0.92242997136E+02  0.19286071219E+03  0.21378833285E+03  0.00000000000E+00 0. -1.
         11    1    3    3    0    0  0.31560148713E+02 -0.14965978823E+02  0.44913732077E+02  0.56896984437E+02  0.00000000000E+00 0.  1.
        -11    1    4    4    0    0 -0.24021532042E+02 -0.17912558816E+02  0.11077973917E+01  0.29985346088E+02  0.00000000000E+00 0.  1.
         11    1    4    4    0    0  0.29031154306E+02 -0.13398129224E+03  0.14671077420E+03  0.20079304235E+03  0.00000000000E+00 0. -1.
          2    1    1    2  501    0 -0.37764105818E+02  0.74616832740E+02 -0.63377058671E+02  0.10493069609E+03  0.00000000000E+00 0. -1.
<scales pt_clust_5="13000.00000" pt_clust_6="13000.00000" pt_clust_7="13000.00000" pt_clust_8="13000.00000" pt_clust_9="83.62894"></scales>
<clustering>
<clus scale="   83.629">  2  9  1 -1</clus>
<clus scale="   91.167">  7  8 -1 -1</clus>
<clus scale="   98.434">  5  6 -1 -1</clus>
<clus scale="  135.990">  2  7  1 -1</clus>
<clus scale="   83.629">  2  5  1 -1</clus>
</clustering>
</event>
<event>
 9    1  0.1601012E-005  0.2818201E+03  0.7546771E-02  0.1094787E+00
          2   -1    0    0  502    0 -0.00000000000E+00  0.00000000000E+00  0.30686007287E+04  0.30686007287E+04  0.00000000000E+00 0. -1.
         21   -1    0    0  501  502  0.00000000000E+00 -0.00000000000E+00 -0.76656858584E+02  0.76656858584E+02  0.00000000000E+00 0. -1.
         23    2    1    2    0    0 -0.61880250584E+02  0.20675500021E+03  0.12641589271E+04  0.12857497308E+04  0.92074870547E+02 0.  0.
         23    2    1    2    0    0  0.52767515857E+02 -0.42643539723E+03  0.13790540328E+04  0.14472509384E+04  0.90076048749E+02 0.  0.
        -11    1    4    4    0    0  0.42727913306E+02 -0.29787299691E+03  0.10892228043E+04  0.11300266874E+04  0.00000000000E+00 0. -1.
         11    1    4    4    0    0  0.10039602551E+02 -0.12856240033E+03  0.28983122853E+03  0.31722425101E+03  0.00000000000E+00 0.  1.
        -13    1    3    3    0    0 -0.28286833278E+02  0.19778754416E+03  0.10874699097E+04  0.11056721313E+04  0.00000000000E+00 0.  1.
         13    1    3    3    0    0 -0.33593417306E+02  0.89674560555E+01  0.17668901745E+03  0.18007759950E+03  0.00000000000E+00 0. -1.
          2    1    1    2  501    0  0.91127347268E+01  0.21968039702E+03  0.34873091024E+03  0.41225691810E+03  0.00000000000E+00 0. -1.
<scales pt_clust_5="13000.00000" pt_clust_6="13000.00000" pt_clust_7="13000.00000" pt_clust_8="13000.00000" pt_clust_9="219.86932"></scales>
<clustering>
<clus scale="   90.076">  5  6 -1 -1</clus>
<clus scale="   92.075">  7  8 -1 -1</clus>
<clus scale="  219.869">  2  9  1 -1</clus>
<clus scale="  281.173">  2  5  1 -1</clus>
<clus scale="  219.869">  2  5  1 -1</clus>
</clustering>
</event>
<event>
 9    1  0.1601012E-005  0.9443928E+02  0.7546771E-02  0.1314955E+00
          1   -1    0    0  502    0 -0.00000000000E+00  0.00000000000E+00  0.42187256781E+03  0.42187256781E+03  0.00000000000E+00 0. -1.
         21   -1    0    0  501  502  0.00000000000E+00 -0.00000000000E+00 -0.24760603574E+02  0.24760603574E+02  0.00000000000E+00 0.  1.
         23    2    1    2    0    0  0.33284932663E+02 -0.74419469934E+01  0.17137122656E+03  0.18404127331E+03  0.57791207560E+02 0.  0.
         23    2    1    2    0    0 -0.86871537943E+00  0.17481456086E+02  0.19795708191E+03  0.21873378123E+03  0.91384379401E+02 0.  0.
        -13    1    3    3    0    0  0.42330970395E+02  0.11711040428E+02  0.92863815568E+02  0.10272656796E+03  0.00000000000E+00 0.  1.
         13    1    3    3    0    0 -0.90460377315E+01 -0.19152987422E+02  0.78507410990E+02  0.81314705350E+02  0.00000000000E+00 0. -1.
        -13    1    4    4    0    0 -0.37837606912E+02  0.76191062571E+01  0.16091389760E+03  0.16547814877E+03  0.00000000000E+00 0.  1.
         13    1    4    4    0    0  0.36968891533E+02  0.98623498285E+01  0.37043184306E+02  0.53255632461E+02  0.00000000000E+00 0. -1.
          1    1    1    2  501    0 -0.32416217284E+02 -0.10039509092E+02  0.27783655769E+02  0.43858116851E+02  0.00000000000E+00 0. -1.
<scales pt_clust_5="13000.00000" pt_clust_6="13000.00000" pt_clust_7="13000.00000" pt_clust_8="13000.00000" pt_clust_9="33.93527"></scales>
<clustering>
<clus scale="   33.935">  2  9  1 -1</clus>
<clus scale="   57.791">  5  6 -1 -1</clus>
<clus scale="   62.510">  1  5  2 -1</clus>
<clus scale="   91.384">  7  8 -1 -1</clus>
<clus scale="   33.935">  2  5  1 -1</clus>
</clustering>
</event>
<event>
 9    1  0.1601012E-005  0.9002731E+02  0.7546771E-02  0.1303763E+00
         -1   -1    0    0    0  501 -0.00000000000E+00  0.00000000000E+00  0.28610411531E+03  0.28610411531E+03  0.00000000000E+00 0.  1.
         21   -1    0    0  501  502  0.00000000000E+00 -0.00000000000E+00 -0.62286073463E+02  0.62286073463E+02  0.00000000000E+00 0. -1.
         23    2    1    2    0    0 -0.14522729273E+02 -0.93771002371E+00  0.21418016589E+03  0.23253151852E+03  0.89364280771E+02 0.  0.
         23    2    1    2    0    0 -0.47559741771E+01  0.10660110911E+02  0.21673184982E+02  0.91139403498E+02  0.87751961048E+02 0.  0.
        -11    1    4    4    0    0  0.37622047201E+02  0.53154660798E+01  0.29004632265E+02  0.47801059696E+02  0.00000000000E+00 0.  1.
         11    1    4    4    0    0 -0.42378021378E+02  0.53446448311E+01 -0.73314472835E+01  0.43338343802E+02  0.00000000000E+00 0. -1.
        -13    1    3    3    0    0 -0.15374238673E+02 -0.42134651029E+02  0.75083872913E+02  0.87460185249E+02  0.00000000000E+00 0.  1.
         13    1    3    3    0    0  0.85150939999E+00  0.41196941005E+02  0.13909629298E+03  0.14507133327E+03  0.00000000000E+00 0. -1.
         -1    1    1    2    0  502  0.19278703450E+02 -0.97224008872E+01 -0.12035309024E+02  0.24719266758E+02  0.00000000000E+00 0.  1.
<scales pt_clust_5="13000.00000" pt_clust_6="13000.00000" pt_clust_7="13000.00000" pt_clust_8="13000.00000" pt_clust_9="21.59151"></scales>
<clustering>
<clus scale="   21.592">  2  9  1 -1</clus>
<clus scale="   87.752">  5  6 -1 -1</clus>
<clus scale="   88.427">  2  5  1 -1</clus>
<clus scale="   89.364">  7  8 -1 -1</clus>
<clus scale="   21.592">  2  5  1 -1</clus>
</clustering>
</event>
<event>
 9    1  0.1601012E-005  0.1131560E+03  0.7546771E-02  0.1255854E+00
         -3   -1    0    0    0  501 -0.00000000000E+00  0.00000000000E+00  0.33407052243E+03  0.33407052243E+03  0.00000000000E+00 0.  1.
         21   -1    0    0  501  502  0.00000000000E+00 -0.00000000000E+00 -0.77043277271E+02  0.77043277271E+02  0.00000000000E+00 0. -1.
         23    2    1    2    0    0  0.19295044237E+02 -0.84451075732E+02  0.17999960573E+03  0.21883392702E+03  0.89354052098E+02 0.  0.
         23    2    1    2    0    0 -0.19749305333E+02  0.38540469969E+02  0.98438281693E+02  0.14162016801E+03  0.92145394880E+02 0.  0.
        -11    1    3    3    0    0 -0.19906504182E+02 -0.78298253114E+02  0.92861067653E+02  0.12308559313E+03  0.00000000000E+00 0.  1.
         11    1    3    3    0    0  0.39201548419E+02 -0.61528226178E+01  0.87138538081E+02  0.95748333895E+02  0.00000000000E+00 0. -1.
        -11    1    4    4    0    0  0.20683269394E+02  0.34386696919E+02  0.59133063369E+01  0.40561185259E+02  0.00000000000E+00 0. -1.
         11    1    4    4    0    0 -0.40432574727E+02  0.41537730501E+01  0.92524975356E+02  0.10105898275E+03  0.00000000000E+00 0.  1.
         -3    1    1    2    0  502  0.45426109567E+00  0.45910605763E+02 -0.21410642272E+02  0.50659704669E+02  0.00000000000E+00 0.  1.
<scales pt_clust_5="13000.00000" pt_clust_6="13000.00000" pt_clust_7="13000.00000" pt_clust_8="13000.00000" pt_clust_9="45.91285"></scales>
<clustering>
<clus scale="   45.913">  2  9  1 -1</clus>
<clus scale="   89.354">  5  6 -1 -1</clus>
<clus scale="   92.145">  7  8 -1 -1</clus>
<clus scale="  110.895">  1  5  2 -1</clus>
<clus scale="   45.913">  2  5  1 -1</clus>
</clustering>
</event>
<event>
 9    1  0.1601012E-005  0.9640993E+02  0.7546771E-02  0.1299344E+00
         21   -1    0    0  501  502  0.00000000000E+00  0.00000000000E+00  0.13382147198E+03  0.13382147198E+03  0.00000000000E+00 0.  1.
          4   -1    0    0  502    0 -0.00000000000E+00 -0.00000000000E+00 -0.10520641656E+03  0.10520641656E+03  0.00000000000E+00 0. -1.
         23    2    1    2    0    0  0.18269340113E+02  0.41984274900E+02 -0.26370641817E+02  0.88208380073E+02  0.70631858522E+02 0.  0.
         23    2    1    2    0    0 -0.33777499592E+01 -0.13509816812E+02  0.53487420393E+01  0.91689300092E+02  0.90467642640E+02 0.  0.
        -11    1    4    4    0    0 -0.12602062445E+02 -0.43229280621E+02  0.28157109180E+02  0.53107489850E+02  0.00000000000E+00 0.  1.
         11    1    4    4    0    0  0.92243124853E+01  0.29719463809E+02 -0.22808367141E+02  0.38581810242E+02  0.00000000000E+00 0. -1.
        -13    1    3    3    0    0 -0.11801832178E+02  0.43864285746E+02 -0.34454482106E+02  0.57012894541E+02  0.00000000000E+00 0. -1.
         13    1    3    3    0    0  0.30071172291E+02 -0.18800108463E+01  0.80838402895E+01  0.31195485532E+02  0.00000000000E+00 0.  1.
          4    1    1    2  501    0 -0.14891590154E+02 -0.28474458088E+02  0.49636955199E+02  0.59130208372E+02  0.00000000000E+00 0. -1.
<scales pt_clust_5="13000.00000" pt_clust_6="13000.00000" pt_clust_7="13000.00000" pt_clust_8="13000.00000" pt_clust_9="32.13338"></scales>
<clustering>
<clus scale="   32.133">  1  9  2 -1</clus>
<clus scale="   70.632">  7  8 -1 -1</clus>
<clus scale="   78.098">  2  7  1 -1</clus>
<clus scale="   90.468">  5  6 -1 -1</clus>
<clus scale="   32.133">  1  5  2 -1</clus>
</clustering>
</event>
<event>
 9    1  0.1601012E-005  0.1058200E+03  0.7546771E-02  0.1269265E+00
         -2   -1    0    0    0  501 -0.00000000000E+00  0.00000000000E+00  0.75560858850E+02  0.75560858850E+02  0.00000000000E+00 0.  1.
         21   -1    0    0  501  502  0.00000000000E+00 -0.00000000000E+00 -0.30019997203E+03  0.30019997203E+03  0.00000000000E+00 0.  1.
         23    2    1    2    0    0 -0.38267634506E+02 -0.73308345156E+01 -0.38632424920E+02  0.10344600089E+03  0.87695255633E+02 0.  0.
         23    2    1    2    0    0  0.98287452770E+02  0.17907597545E+02 -0.15121942010E+03  0.20214075695E+03  0.89512385634E+02 0.  0.
        -13    1    4    4    0    0  0.60241541755E+02  0.36537264437E+02 -0.14239080333E+03  0.15886836035E+03  0.00000000000E+00 0.  1.
         13    1    4    4    0    0  0.38045911014E+02 -0.18629666892E+02 -0.88286167659E+01  0.43272396599E+02  0.00000000000E+00 0. -1.
        -13    1    3    3    0    0 -0.54507781045E+02  0.24854092824E+02 -0.24607659433E+02  0.64763886753E+02  0.00000000000E+00 0. -1.
         13    1    3    3    0    0  0.16240146539E+02 -0.32184927340E+02 -0.14024765487E+02  0.38682114142E+02  0.00000000000E+00 0.  1.
         -2    1    1    2    0  502 -0.60019818264E+02 -0.10576763029E+02 -0.34787268160E+02  0.70174073037E+02  0.00000000000E+00 0.  1.
<scales pt_clust_5="13000.00000" pt_clust_6="13000.00000" pt_clust_7="13000.00000" pt_clust_8="13000.00000" pt_clust_9="60.94465"></scales>
<clustering>
<clus scale="   60.945">  2  9  1 -1</clus>
<clus scale="   87.695">  7  8 -1 -1</clus>
<clus scale="   89.512">  5  6 -1 -1</clus>
<clus scale="  104.287">  1  7  2 -1</clus>
<clus scale="   60.945">  2  5  1 -1</clus>
</clustering>
</event>
<event>
 9    1  0.1601012E-005  0.9527607E+02  0.7546771E-02  0.1292718E+00
          1   -1    0    0  502    0 -0.00000000000E+00  0.00000000000E+00  0.37814986716E+03  0.37814986716E+03  0.00000000000E+00 0. -1.
         21   -1    0    0  501  502  0.00000000000E+00 -0.00000000000E+00 -0.29815051536E+02  0.29815051536E+02  0.00000000000E+00 0.  1.
         23    2    1    2    0    0  0.88477650943E+01  0.19276195119E+02  0.18059322704E+03  0.20485161251E+03  0.94342009986E+02 0.  0.
         23    2    1    2    0    0 -0.10968850748E+02  0.20803166265E+01  0.14856018729E+03  0.17432918290E+03  0.90531162353E+02 0.  0.
        -11    1    3    3    0    0  0.49529948468E+02  0.10604628980E+01  0.71333726398E+02  0.86849530215E+02  0.00000000000E+00 0.  1.
         11    1    3    3    0    0 -0.40682183374E+02  0.18215732221E+02  0.10925950064E+03  0.11800208229E+03  0.00000000000E+00 0. -1.
        -11    1    4    4    0    0 -0.21946112974E+02 -0.33530205514E+02  0.12241660600E+03  0.12880889714E+03  0.00000000000E+00 0. -1.
         11    1    4    4    0    0  0.10977262226E+02  0.35610522141E+02  0.26143581294E+02  0.45520285763E+02  0.00000000000E+00 0.  1.
          1    1    1    2  501    0  0.21210856535E+01 -0.21356511746E+02  0.19181401290E+02  0.28784123293E+02  0.00000000000E+00 0. -1.
<scales pt_clust_5="13000.00000" pt_clust_6="13000.00000" pt_clust_7="13000.00000" pt_clust_8="13000.00000" pt_clust_9="21.46158"></scales>
<clustering>
<clus scale="   21.462">  2  9  1 -1</clus>
<clus scale="   90.531">  7  8 -1 -1</clus>
<clus scale="   91.504">  2  7  1 -1</clus>
<clus scale="   94.342">  5  6 -1 -1</clus>
<clus scale="   21.462">  2  5  1 -1</clus>
</clustering>
</event>
<event>
 9    1  0.1601012E-005  0.1994669E+03  0.7546771E-02  0.1153200E+00
          1   -1    0    0  502    0 -0.00000000000E+00  0.00000000000E+00  0.63555397206E+03  0.63555397206E+03  0.00000000000E+00 0. -1.
         21   -1    0    0  501  502  0.00000000000E+00 -0.00000000000E+00 -0.69490393717E+02  0.69490393717E+02  0.00000000000E+00 0.  1.
         23    2    1    2    0    0 -0.77398637285E+02 -0.13158596687E+03  0.31298385357E+03  0.36722019155E+03  0.11656054544E+03 0.  0.
         23    2    1    2    0    0  0.93113629187E+02  0.14859791902E+03  0.20670500087E+03  0.28598806227E+03  0.91163177320E+02 0.  0.
        -11    1    4    4    0    0 -0.44687967577E+01  0.63742379470E+02  0.41513211868E+02  0.76199789006E+02  0.00000000000E+00 0.  1.
         11    1    4    4    0    0  0.97582425944E+02  0.84855539547E+02  0.16519178900E+03  0.20978827326E+03  0.00000000000E+00 0. -1.
        -13    1    3    3    0    0 -0.40418281119E+02  0.10682256491E+02  0.44018537140E+02  0.60707327929E+02  0.00000000000E+00 0.  1.
         13    1    3    3    0    0 -0.36980356166E+02 -0.14226822336E+03  0.26896531643E+03  0.30651286362E+03  0.00000000000E+00 0. -1.
          1    1    1    2  501    0 -0.15714991902E+02 -0.17011952142E+02  0.46374723907E+02  0.51836111965E+02  0.00000000000E+00 0. -1.
<scales pt_clust_5="13000.00000" pt_clust_6="13000.00000" pt_clust_7="13000.00000" pt_clust_8="13000.00000" pt_clust_9="23.15962"></scales>
<clustering>
<clus scale="   23.160">  2  9  1 -1</clus>
<clus scale="   91.163">  5  6 -1 -1</clus>
<clus scale="  116.561">  7  8 -1 -1</clus>
<clus scale="  185.772">  2  5  1 -1</clus>
<clus scale="   23.160">  2  5  1 -1</clus>
</clustering>
</event>
<event>
 9    1  0.1601012E-005  0.1051204E+03  0.7546771E-02  0.1271388E+00
          1   -1    0    0  502    0 -0.00000000000E+00  0.00000000000E+00  0.30426012668E+03  0.30426012668E+03  0.00000000000E+00 0. -1.
         21   -1    0    0  501  502  0.00000000000E+00 -0.00000000000E+00 -0.10023859646E+03  0.10023859646E+03  0.00000000000E+00 0. -1.
         23    2    1    2    0    0  0.35216525675E+02  0.33129746683E+02  0.22659878861E+03  0.24901437314E+03  0.91232468087E+02 0.  0.
         23    2    1    2    0    0 -0.60610242080E+02 -0.37138893041E+02  0.10703035786E+02  0.11343090700E+03  0.87744611613E+02 0.  0.
        -13    1    4    4    0    0 -0.23585351002E+02 -0.43603822695E+02  0.41647487642E+02  0.64746238210E+02  0.00000000000E+00 0. -1.
         13    1    4    4    0    0 -0.37024891077E+02  0.64649296532E+01 -0.30944451856E+02  0.48684668792E+02  0.00000000000E+00 0.  1.
        -13    1    3    3    0    0  0.51068160329E+02 -0.97536615158E+00  0.18920902324E+03  0.19598204717E+03  0.00000000000E+00 0.  1.
         13    1    3    3    0    0 -0.15851634654E+02  0.34105112835E+02  0.37389765369E+02  0.53032325963E+02  0.00000000000E+00 0. -1.
          1    1    1    2  501    0  0.25393716405E+02  0.40091463580E+01 -0.33280294181E+02  0.42053443000E+02  0.00000000000E+00 0. -1.
<scales pt_clust_5="13000.00000" pt_clust_6="13000.00000" pt_clust_7="13000.00000" pt_clust_8="13000.00000" pt_clust_9="25.70825"></scales>
<clustering>
<clus scale="   25.708">  2  9  1 -1</clus>
<clus scale="   87.745">  5  6 -1 -1</clus>
<clus scale="   91.232">  7  8 -1 -1</clus>
<clus scale="  102.108">  2  5  1 -1</clus>
<clus scale="   25.708">  2  5  1 -1</clus>
</clustering>
</event>
<event>
 9    1  0.1601012E-005  0.1308888E+03  0.7546771E-02  0.1226516E+00
         21   -1    0    0  501  502  0.00000000000E+00  0.00000000000E+00  0.20229217834E+03  0.20229217834E+03  0.00000000000E+00 0. -1.
          4   -1    0    0  502    0 -0.00000000000E+00 -0.00000000000E+00 -0.23616704356E+03  0.23616704356E+03  0.00000000000E+00 0. -1.
         23    2    1    2    0    0  0.53336725812E+02  0.68536385994E+02 -0.82226283092E+02  0.15117805795E+03  0.92474867120E+02 0.  0.
         23    2    1    2    0    0 -0.42042546008E+02 -0.87601202005E+02 -0.80004688480E+02  0.15702635312E+03  0.93888120278E+02 0.  0.
        -11    1    3    3    0    0  0.72628077807E+02  0.29180933593E+02 -0.71598153347E+02  0.10607855643E+03  0.00000000000E+00 0. -1.
         11    1    3    3    0    0 -0.19291351996E+02  0.39355452401E+02 -0.10628129745E+02  0.45099501520E+02  0.00000000000E+00 0.  1.
        -11    1    4    4    0    0  0.14984009999E+02 -0.17563989809E+02 -0.60321921764E+02  0.64589074455E+02  0.00000000000E+00 0.  1.
         11    1    4    4    0    0 -0.57026556007E+02 -0.70037212197E+02 -0.19682766716E+02  0.92437278670E+02  0.00000000000E+00 0. -1.
          4    1    1    2  501    0 -0.11294179804E+02  0.19064816012E+02  0.12835610634E+03  0.13025481082E+03  0.00000000000E+00 0. -1.
<scales pt_clust_5="13000.00000" pt_clust_6="13000.00000" pt_clust_7="13000.00000" pt_clust_8="13000.00000" pt_clust_9="22.15910"></scales>
<clustering>
<clus scale="   22.159">  1  9  2 -1</clus>
<clus scale="   92.475">  5  6 -1 -1</clus>
<clus scale="   93.888">  7  8 -1 -1</clus>
<clus scale="  129.879">  2  5  1 -1</clus>
<clus scale="   22.159">  1  5  2 -1</clus>
</clustering>
</event>
<event>
 9    1  0.1601012E-005  0.9325975E+02  0.7546771E-02  0.1299745E+00
         21   -1    0    0  501  502  0.00000000000E+00  0.00000000000E+00  0.13603234224E+03  0.13603234224E+03  0.00000000000E+00 0. -1.
         -3   -1    0    0    0  501 -0.00000000000E+00 -0.00000000000E+00 -0.12233954752E+03  0.12233954752E+03  0.00000000000E+00 0.  1.
         23    2    1    2    0    0  0.29898384661E+02  0.20105425672E+02 -0.48613079436E+02  0.10798718335E+03  0.89441929371E+02 0.  0.
         23    2    1    2    0    0 -0.18562888224E+02  0.23919958929E+02  0.22070530997E+02  0.89675474756E+02  0.81472922986E+02 0.  0.
        -13    1    3    3    0    0 -0.30683343202E+02 -0.18819533430E+01 -0.78425598259E+01  0.31725621240E+02  0.00000000000E+00 0. -1.
         13    1    3    3    0    0  0.60581727863E+02  0.21987379015E+02 -0.40770519610E+02  0.76261562114E+02  0.00000000000E+00 0.  1.
        -13    1    4    4    0    0  0.32189601554E+02  0.65389900720E+01  0.41132080381E+01  0.33103584696E+02  0.00000000000E+00 0.  1.
         13    1    4    4    0    0 -0.50752489778E+02  0.17380968857E+02  0.17957322959E+02  0.56571890059E+02  0.00000000000E+00 0. -1.
         -3    1    1    2    0  502 -0.11335496437E+02 -0.44025384601E+02  0.40235343156E+02  0.60709231651E+02  0.00000000000E+00 0.  1.
<scales pt_clust_5="13000.00000" pt_clust_6="13000.00000" pt_clust_7="13000.00000" pt_clust_8="13000.00000" pt_clust_9="45.46128"></scales>
<clustering>
<clus scale="   45.461">  1  9  2 -1</clus>
<clus scale="   81.473">  7  8 -1 -1</clus>
<clus scale="   85.647">  1  7  2 -1</clus>
<clus scale="   89.442">  5  6 -1 -1</clus>
<clus scale="   45.461">  1  5  2 -1</clus>
</clustering>
</event>
<event>
 9    1  0.1601012E-005  0.1916094E+03  0.7546771E-02  0.1181469E+00
          3   -1    0    0  502    0 -0.00000000000E+00  0.00000000000E+00  0.12939705193E+04  0.12939705193E+04  0.00000000000E+00 0. -1.
         21   -1    0    0  501  502  0.00000000000E+00 -0.00000000000E+00 -0.44721192993E+02  0.44721192993E+02  0.00000000000E+00 0. -1.
         23    2    1    2    0    0 -0.64716978114E+02  0.92793141381E+00  0.19909794227E+03  0.22719358133E+03  0.88248424745E+02 0.  0.
         23    2    1    2    0    0  0.17837762560E+03 -0.84497969705E+02  0.55276848146E+03  0.59449479841E+03  0.94406498963E+02 0.  0.
        -11    1    3    3    0    0 -0.48940700710E+02  0.28780345245E+02  0.18251729561E+03  0.19114409134E+03  0.00000000000E+00 0.  1.
         11    1    3    3    0    0 -0.15776277404E+02 -0.27852413831E+02  0.16580646661E+02  0.36049489992E+02  0.00000000000E+00 0. -1.
        -11    1    4    4    0    0  0.13694532901E+03 -0.41867907328E+02  0.47790719682E+03  0.49890102583E+03  0.00000000000E+00 0. -1.
         11    1    4    4    0    0  0.41432296590E+02 -0.42630062377E+02  0.74861284642E+02  0.95593772586E+02  0.00000000000E+00 0.  1.
          3    1    1    2  501    0 -0.11366064749E+03  0.83570038292E+02  0.49738290263E+03  0.51700333259E+03  0.00000000000E+00 0. -1.
<scales pt_clust_5="13000.00000" pt_clust_6="13000.00000" pt_clust_7="13000.00000" pt_clust_8="13000.00000" pt_clust_9="166.73813"></scales>
<clustering>
<clus scale="   88.248">  5  6 -1 -1</clus>
<clus scale="   94.406">  7  8 -1 -1</clus>
<clus scale="  109.439">  1  5  2 -1</clus>
<clus scale="  166.738">  2  9  1 -1</clus>
<clus scale="  166.738">  2  5  1 -1</clus>
</clustering>
</event>
<event>
 9    1  0.2468229E-005  0.1645452E+03  0.7546771E-02  0.1188556E+00
         21   -1    0    0  501  502  0.00000000000E+00  0.00000000000E+00  0.12255886285E+03  0.12255886285E+03  0.00000000000E+00 0. -1.
         -3   -1    0    0    0  501 -0.00000000000E+00 -0.00000000000E+00 -0.52787479392E+03  0.52787479392E+03  0.00000000000E+00 0.  1.
         23    2    1    2    0    0 -0.12383980722E+02  0.11688648704E+03 -0.43604200438E+03  0.46083495595E+03  0.91762809540E+02 0.  0.
         23    2    1    2    0    0 -0.61061294506E+01 -0.10018736621E+03  0.45252521213E+02  0.16075840784E+03  0.11713531427E+03 0.  0.
        -13    1    3    3    0    0 -0.43953565285E+02  0.80358627497E+02 -0.35384793871E+03  0.36551031264E+03  0.00000000000E+00 0.  1.
         13    1    3    3    0    0  0.31569584562E+02  0.36527859544E+02 -0.82194065667E+02  0.95324643316E+02  0.00000000000E+00 0. -1.
        -13    1    4    4    0    0  0.16761714582E+02  0.23281672834E+02  0.81775923169E+01  0.29830594727E+02  0.00000000000E+00 0.  1.
         13    1    4    4    0    0 -0.22867844033E+02 -0.12346903904E+03  0.37074928896E+02  0.13092781311E+03  0.00000000000E+00 0. -1.
         -3    1    1    2    0  502  0.18490110173E+02 -0.16699120831E+02 -0.14526447898E+02  0.28840292982E+02  0.00000000000E+00 0.  1.
<scales pt_clust_5="13000.00000" pt_clust_6="13000.00000" pt_clust_7="13000.00000" pt_clust_8="13000.00000" pt_clust_9="24.91475"></scales>
<clustering>
<clus scale="   24.915">  1  9  2 -1</clus>
<clus scale="   91.763">  5  6 -1 -1</clus>
<clus scale="  117.135">  7  8 -1 -1</clus>
<clus scale="  147.563">  2  5  1 -1</clus>
<clus scale="   24.915">  1  5  2 -1</clus>
</clustering>
</event>
<event>
 9    1  0.1601012E-005  0.1483109E+03  0.7546771E-02  0.1205115E+00
         21   -1    0    0  501  502  0.00000000000E+00  0.00000000000E+00  0.36221401452E+03  0.36221401452E+03  0.00000000000E+00 0. -1.
          4   -1    0    0  502    0 -0.00000000000E+00 -0.00000000000E+00 -0.68415476092E+02  0.68415476092E+02  0.00000000000E+00 0. -1.
         23    2    1    2    0    0 -0.94461512652E+02 -0.71863152852E+02  0.13646493775E+03  0.20618059947E+03  0.98997324470E+02 0.  0.
         23    2    1    2    0    0  0.70082454276E+02  0.75776167229E+02  0.13970643477E+03  0.19411133773E+03  0.86647248102E+02 0.  0.
        -11    1    3    3    0    0 -0.20397877851E+02  0.40490440113E+01 -0.11782874974E+02  0.23901973158E+02  0.00000000000E+00 0.  1.
         11    1    3    3    0    0 -0.74063634801E+02 -0.75912196863E+02  0.14824781273E+03  0.18227862631E+03  0.00000000000E+00 0. -1.
        -11    1    4    4    0    0  0.55528587332E+02  0.29951298627E+02  0.21754809661E+02  0.66736616965E+02  0.00000000000E+00 0.  1.
         11    1    4    4    0    0  0.14553866944E+02  0.45824868602E+02  0.11795162511E+03  0.12737472077E+03  0.00000000000E+00 0. -1.
          4    1    1    2  501    0  0.24379058376E+02 -0.39130143769E+01  0.17627165908E+02  0.30337553408E+02  0.00000000000E+00 0. -1.
<scales pt_clust_5="13000.00000" pt_clust_6="13000.00000" pt_clust_7="13000.00000" pt_clust_8="13000.00000" pt_clust_9="24.69111"></scales>
<clustering>
<clus scale="   24.691">  1  9  2 -1</clus>
<clus scale="   86.647">  7  8 -1 -1</clus>
<clus scale="   98.997">  5  6 -1 -1</clus>
<clus scale="  140.369">  1  7  2 -1</clus>
<clus scale="   24.691">  1  5  2 -1</clus>
</clustering>
</event>
<event>
 9    1  0.1601012E-005  0.9975488E+02  0.7546771E-02  0.1282469E+00
         -1   -1    0    0    0  501 -0.00000000000E+00  0.00000000000E+00  0.65840657530E+03  0.65840657530E+03  0.00000000000E+00 0.  1.
         21   -1    0    0  501  502  0.00000000000E+00 -0.00000000000E+00 -0.27553822666E+02  0.27553822666E+02  0.00000000000E+00 0.  1.
         23    2    1    2    0    0 -0.16207326706E+02 -0.22484750168E+02  0.35537598144E+03  0.36912682524E+03  0.95886826528E+02 0.  0.
         23    2    1    2    0    0 -0.45001593306E+01  0.31704497181E+02  0.27727054245E+03  0.29409546972E+03  0.92670194917E+02 0.  0.
        -11    1    3    3    0    0 -0.37031080034E+02  0.26969417647E+02  0.14854775848E+03  0.15545123649E+03  0.00000000000E+00 0. -1.
         11    1    3    3    0    0  0.20823753328E+02 -0.49454167815E+02  0.20682822296E+03  0.21367558876E+03  0.00000000000E+00 0.  1.
        -11    1    4    4    0    0  0.27603344175E+02 -0.19403294781E+02  0.14229712928E+03  0.14624262532E+03  0.00000000000E+00 0.  1.
         11    1    4    4    0    0 -0.32103503506E+02  0.51107791962E+02  0.13497341317E+03  0.14785284440E+03  0.00000000000E+00 0. -1.
         -1    1    1    2    0  502  0.20707486036E+02 -0.92197470131E+01 -0.17937712493E+01  0.22738103004E+02  0.00000000000E+00 0.  1.
<scales pt_clust_5="13000.00000" pt_clust_6="13000.00000" pt_clust_7="13000.00000" pt_clust_8="13000.00000" pt_clust_9="22.66724"></scales>
<clustering>
<clus scale="   22.667">  2  9  1 -1</clus>
<clus scale="   92.670">  7  8 -1 -1</clus>
<clus scale="   95.887">  5  6 -1 -1</clus>
<clus scale="   96.667">  2  7  1 -1</clus>
<clus scale="   22.667">  2  5  1 -1</clus>
</clustering>
</event>
<event>
 9    1  0.1601012E-005  0.1189366E+03  0.7546771E-02  0.1247088E+00
         -4   -1    0    0    0  501 -0.00000000000E+00  0.00000000000E+00  0.27022570401E+03  0.27022570401E+03  0.00000000000E+00 0.  1.
         21   -1    0    0  501  502  0.00000000000E+00 -0.00000000000E+00 -0.12761755665E+03  0.12761755665E+03  0.00000000000E+00 0. -1.
         23    2    1    2    0    0 -0.89899295343E+01  0.75910094903E+02  0.19584210137E+03  0.22657607285E+03  0.84495128725E+02 0.  0.
         23    2    1    2    0    0 -0.25167644067E+02 -0.76550834710E+02 -0.60964313433E+02  0.13623992929E+03  0.91385065622E+02 0.  0.
        -13    1    3    3    0    0  0.30559308729E+02  0.57779179719E+02  0.83067108965E+02  0.10569980866E+03  0.00000000000E+00 0.  1.
         13    1    3    3    0    0 -0.39549238263E+02  0.18130915184E+02  0.11277499241E+03  0.12087626419E+03  0.00000000000E+00 0. -1.
        -13    1    4    4    0    0  0.17773137637E+02 -0.49268191971E+02  0.53612942809E+01  0.52649621441E+02  0.00000000000E+00 0.  1.
         13    1    4    4    0    0 -0.42940781704E+02 -0.27282642739E+02 -0.66325607714E+02  0.83590307852E+02  0.00000000000E+00 0. -1.
         -4    1    1    2    0  502  0.34157573602E+02  0.64073980726E+00  0.77303594193E+01  0.35027258508E+02  0.00000000000E+00 0.  1.
<scales pt_clust_5="13000.00000" pt_clust_6="13000.00000" pt_clust_7="13000.00000" pt_clust_8="13000.00000" pt_clust_9="34.16358"></scales>
<clustering>
<clus scale="   34.164">  2  9  1 -1</clus>
<clus scale="   84.495">  5  6 -1 -1</clus>
<clus scale="   91.385">  7  8 -1 -1</clus>
<clus scale="  113.728">  1  5  2 -1</clus>
<clus scale="   34.164">  2  5  1 -1</clus>
</clustering>
</event>
<event>
 9    1  0.1601012E-005  0.2137613E+03  0.7546771E-02  0.1152039E+00
          1   -1    0    0  502    0 -0.00000000000E+00  0.00000000000E+00  0.11448189492E+04  0.11448189492E+04  0.00000000000E+00 0. -1.
         21   -1    0    0  501  502  0.00000000000E+00 -0.00000000000E+00 -0.82810383642E+03  0.82810383642E+03  0.00000000000E+00 0. -1.
         23    2    1    2    0    0 -0.67897463390E+01 -0.12683935377E+03  0.23395357822E+03  0.28071496573E+03  0.89063420653E+02 0.  0.
         23    2    1    2    0    0  0.14084983962E+03  0.26439812055E+03  0.84761485742E+03  0.90360454291E+03  0.91132760153E+02 0.  0.
        -11    1    4    4    0    0 -0.66540679698E+01  0.39431898600E+02  0.16779211390E+03  0.17249157874E+03  0.00000000000E+00 0.  1.
         11    1    4    4    0    0  0.14750390759E+03  0.22496622195E+03  0.67982274351E+03  0.73111296417E+03  0.00000000000E+00 0. -1.
        -13    1    3    3    0    0 -0.32546602798E+02 -0.12512786598E+03  0.19701469677E+03  0.23565028102E+03  0.00000000000E+00 0.  1.
         13    1    3    3    0    0  0.25756856459E+02 -0.17114877885E+01  0.36938881451E+02  0.45064684709E+02  0.00000000000E+00 0. -1.
          1    1    1    2  501    0 -0.13406009328E+03 -0.13755876678E+03 -0.76485332288E+03  0.78860327697E+03  0.00000000000E+00 0. -1.
<scales pt_clust_5="13000.00000" pt_clust_6="13000.00000" pt_clust_7="13000.00000" pt_clust_8="13000.00000" pt_clust_9="193.36156"></scales>
<clustering>
<clus scale="   89.063">  7  8 -1 -1</clus>
<clus scale="   91.133">  5  6 -1 -1</clus>
<clus scale="  155.134">  1  7  2 -1</clus>
<clus scale="  193.362">  2  9  1 -1</clus>
<clus scale="  193.362">  2  5  1 -1</clus>
</clustering>
</event>
<event>
 9    1  0.1601012E-005  0.1688320E+03  0.7546771E-02  0.1181636E+00
         21   -1    0    0  501  502  0.00000000000E+00  0.00000000000E+00  0.23219822816E+03  0.23219822816E+03  0.00000000000E+00 0.  1.
          1   -1    0    0  502    0 -0.00000000000E+00 -0.00000000000E+00 -0.26199560025E+03  0.26199560025E+03  0.00000000000E+00 0. -1.
         23    2    1    2    0    0 -0.54427431779E+02 -0.12242316596E+03 -0.15229902709E+03  0.21628731330E+03  0.75069510120E+02 0.  0.
         23    2    1    2    0    0  0.68044611749E+02  0.16382875018E+03  0.12119713506E+03  0.23429972931E+03  0.93475606625E+02 0.  0.
        -13    1    3    3    0    0  0.10586544218E+02 -0.26594273109E+02 -0.52272955104E+01  0.29097334912E+02  0.00000000000E+00 0.  1.
         13    1    3    3    0    0 -0.65013975997E+02 -0.95828892848E+02 -0.14707173158E+03  0.18718997839E+03  0.00000000000E+00 0. -1.
        -13    1    4    4    0    0  0.52923964016E+02  0.13390922490E+03  0.13562372490E+03  0.19780399702E+03  0.00000000000E+00 0.  1.
         13    1    4    4    0    0  0.15120647733E+02  0.29919525284E+02 -0.14426589842E+02  0.36495732293E+02  0.00000000000E+00 0. -1.
          1    1    1    2  501    0 -0.13617179970E+02 -0.41405584226E+02  0.13045199367E+01  0.43606785799E+02  0.00000000000E+00 0. -1.
<scales pt_clust_5="13000.00000" pt_clust_6="13000.00000" pt_clust_7="13000.00000" pt_clust_8="13000.00000" pt_clust_9="43.58727"></scales>
<clustering>
<clus scale="   43.587">  1  9  2 -1</clus>
<clus scale="   75.070">  5  6 -1 -1</clus>
<clus scale="   93.476">  7  8 -1 -1</clus>
<clus scale="  159.380">  2  5  1 -1</clus>
<clus scale="   43.587">  1  5  2 -1</clus>
</clustering>
</event>
<event>
 9    1  0.1601012E-005  0.2026465E+03  0.7546771E-02  0.1147905E+00
          1   -1    0    0  502    0 -0.00000000000E+00  0.00000000000E+00  0.32862924380E+03  0.32862924380E+03  0.00000000000E+00 0. -1.
         21   -1    0    0  501  502  0.00000000000E+00 -0.00000000000E+00 -0.36521363872E+03  0.36521363872E+03  0.00000000000E+00 0. -1.
         23    2    1    2    0    0 -0.29262710236E+02 -0.16061199022E+03  0.15224344438E+03  0.23964109758E+03  0.87162329461E+02 0.  0.
         23    2    1    2    0    0  0.10357028898E+03  0.22016020825E+03 -0.20332159943E+02  0.26066005691E+03  0.91284974055E+02 0.  0.
        -11    1    4    4    0    0  0.65219466978E+02  0.12142562784E+03  0.33498820001E+02  0.14184474932E+03  0.00000000000E+00 0. -1.
         11    1    4    4    0    0  0.38350822002E+02  0.98734580407E+02 -0.53830979943E+02  0.11881530759E+03  0.00000000000E+00 0.  1.
        -13    1    3    3    0    0  0.21605785420E+02 -0.84268235591E+02  0.10530718335E+03  0.13659263654E+03  0.00000000000E+00 0. -1.
         13    1    3    3    0    0 -0.50868495656E+02 -0.76343754631E+02  0.46936261034E+02  0.10304846103E+03  0.00000000000E+00 0.  1.
          1    1    1    2  501    0 -0.74307578744E+02 -0.59548218023E+02 -0.16849567935E+03  0.19354172803E+03  0.00000000000E+00 0. -1.
<scales pt_clust_5="13000.00000" pt_clust_6="13000.00000" pt_clust_7="13000.00000" pt_clust_8="13000.00000" pt_clust_9="95.22398"></scales>
<clustering>
<clus scale="   87.162">  7  8 -1 -1</clus>
<clus scale="   91.285">  5  6 -1 -1</clus>
<clus scale="   95.224">  2  9  1 -1</clus>
<clus scale="  200.823">  1  7  2 -1</clus>
<clus scale="   95.224">  2  5  1 -1</clus>
</clustering>
</event>
<event>
 9    1  0.1601012E-005  0.1235361E+03  0.7546771E-02  0.1241313E+00
          1   -1    0    0  502    0 -0.00000000000E+00  0.00000000000E+00  0.70774790680E+03  0.70774790680E+03  0.00000000000E+00 0. -1.
         21   -1    0    0  501  502  0.00000000000E+00 -0.00000000000E+00 -0.54721290025E+02  0.54721290025E+02  0.00000000000E+00 0. -1.
         23    2    1    2    0    0  0.45610017969E+02  0.50285830479E+02  0.38372639537E+03  0.40304592555E+03  0.10291323100E+03 0.  0.
         23    2    1    2    0    0  0.50237967344E+01 -0.82548207395E+02  0.27276221220E+03  0.29928485148E+03  0.91283913384E+02 0.  0.
        -11    1    4    4    0    0  0.37027963575E+02 -0.75803272310E+02  0.23297753837E+03  0.24778163686E+03  0.00000000000E+00 0.  1.
         11    1    4    4    0    0 -0.32004166841E+02 -0.67449350850E+01  0.39784673830E+02  0.51503214620E+02  0.00000000000E+00 0. -1.
        -11    1    3    3    0    0  0.54829580753E+01 -0.23974181584E+02  0.27225001896E+02  0.36688212550E+02  0.00000000000E+00 0.  1.
         11    1    3    3    0    0  0.40127059894E+02  0.74260012062E+02  0.35650139348E+03  0.36635771300E+03  0.00000000000E+00 0. -1.
          1    1    1    2  501    0 -0.50633814703E+02  0.32262376916E+02 -0.34619907899E+01  0.60138419799E+02  0.00000000000E+00 0. -1.
<scales pt_clust_5="13000.00000" pt_clust_6="13000.00000" pt_clust_7="13000.00000" pt_clust_8="13000.00000" pt_clust_9="60.03869"></scales>
<clustering>
<clus scale="   60.039">  2  9  1 -1</clus>
<clus scale="   91.284">  5  6 -1 -1</clus>
<clus scale="  102.913">  7  8 -1 -1</clus>
<clus scale="  114.030">  2  5  1 -1</clus>
<clus scale="   60.039">  2  5  1 -1</clus>
</clustering>
</event>
<event>
 9    1  0.1601012E-005  0.1014067E+03  0.7546771E-02  0.1287378E+00
          3   -1    0    0  502    0 -0.00000000000E+00  0.00000000000E+00  0.71313082560E+02  0.71313082560E+02  0.00000000000E+00 0. -1.
         21   -1    0    0  501  502  0.00000000000E+00 -0.00000000000E+00 -0.31238430768E+03  0.31238430768E+03  0.00000000000E+00 0.  1.
         23    2    1    2    0    0 -0.61313487382E+02 -0.12586998296E+02 -0.29935190472E+02  0.98894450408E+02  0.70471415708E+02 0.  0.
         23    2    1    2    0    0  0.90681451418E+01  0.40806956005E+02 -0.47129568614E+02  0.11037799122E+03  0.90634793498E+02 0.  0.
        -13    1    4    4    0    0 -0.24641203274E+02 -0.85735532198E+01  0.97525064620E+01  0.27853295961E+02  0.00000000000E+00 0. -1.
         13    1    4    4    0    0  0.33709348416E+02  0.49380509225E+02 -0.56882075076E+02  0.82524695255E+02  0.00000000000E+00 0.  1.
        -13    1    3    3    0    0 -0.57159386716E+02  0.15876968683E+02 -0.28620915068E+01  0.59392467469E+02  0.00000000000E+00 0. -1.
         13    1    3    3    0    0 -0.41541006659E+01 -0.28463966979E+02 -0.27073098965E+02  0.39501982939E+02  0.00000000000E+00 0.  1.
          3    1    1    2  501    0  0.52245342240E+02 -0.28219957709E+02 -0.16400646603E+03  0.17442494861E+03  0.00000000000E+00 0. -1.
<scales pt_clust_5="13000.00000" pt_clust_6="13000.00000" pt_clust_7="13000.00000" pt_clust_8="13000.00000" pt_clust_9="59.37964"></scales>
<clustering>
<clus scale="   59.380">  2  9  1 -1</clus>
<clus scale="   70.471">  7  8 -1 -1</clus>
<clus scale="   83.874">  1  7  2 -1</clus>
<clus scale="   90.635">  5  6 -1 -1</clus>
<clus scale="   59.380">  2  5  1 -1</clus>
</clustering>
</event>
<event>
 9    1  0.1601012E-005  0.9782567E+02  0.7546771E-02  0.1285624E+00
         21   -1    0    0  501  502  0.00000000000E+00  0.00000000000E+00  0.20966470421E+03  0.20966470421E+03  0.00000000000E+00 0.  1.
          1   -1    0    0  502    0 -0.00000000000E+00 -0.00000000000E+00 -0.63381493967E+02  0.63381493967E+02  0.00000000000E+00 0. -1.
         23    2    1    2    0    0  0.37300277112E+02  0.97612997122E+01  0.22919485616E+02  0.10050609180E+03  0.89942081495E+02 0.  0.
         23    2    1    2    0    0 -0.21903595637E+02 -0.24562159681E+02  0.86825170798E+02  0.13021766349E+03  0.91296015299E+02 0.  0.
        -11    1    4    4    0    0  0.24797483539E+02 -0.20164448015E+02  0.75464704131E+02  0.81953899988E+02  0.00000000000E+00 0.  1.
         11    1    4    4    0    0 -0.46701079176E+02 -0.43977116658E+01  0.11360466667E+02  0.48263763498E+02  0.00000000000E+00 0. -1.
        -13    1    3    3    0    0  0.84914729589E+01 -0.34165113768E+02 -0.12266137168E+02  0.37280265997E+02  0.00000000000E+00 0. -1.
         13    1    3    3    0    0  0.28808804153E+02  0.43926413480E+02  0.35185622784E+02  0.63225825805E+02  0.00000000000E+00 0.  1.
          1    1    1    2  501    0 -0.15396681475E+02  0.14800859969E+02  0.36538553827E+02  0.42322442888E+02  0.00000000000E+00 0. -1.
<scales pt_clust_5="13000.00000" pt_clust_6="13000.00000" pt_clust_7="13000.00000" pt_clust_8="13000.00000" pt_clust_9="21.35704"></scales>
<clustering>
<clus scale="   21.357">  1  9  2 -1</clus>
<clus scale="   89.942">  7  8 -1 -1</clus>
<clus scale="   91.296">  5  6 -1 -1</clus>
<clus scale="   96.563">  2  7  1 -1</clus>
<clus scale="   21.357">  1  5  2 -1</clus>
</clustering>
</event>
<event>
 9    1  0.1601012E-005  0.4222479E+03  0.7546771E-02  0.1036382E+00
         21   -1    0    0  501  502  0.00000000000E+00  0.00000000000E+00  0.29344708015E+03  0.29344708015E+03  0.00000000000E+00 0. -1.
         -1   -1    0    0    0  501 -0.00000000000E+00 -0.00000000000E+00 -0.92576523983E+03  0.92576523983E+03  0.00000000000E+00 0.  1.
         23    2    1    2    0    0 -0.23652950677E+03  0.32900436808E+03 -0.61253794665E+03  0.74032908941E+03  0.93243459576E+02 0.  0.
         23    2    1    2    0    0  0.25763833013E+03 -0.34772765800E+03 -0.40277072228E+02  0.44400823601E+03  0.90714044169E+02 0.  0.
        -11    1    4    4    0    0  0.12516309620E+03 -0.15420796545E+03 -0.63069444566E+02  0.20838342568E+03  0.00000000000E+00 0.  1.
         11    1    4    4    0    0  0.13247523392E+03 -0.19351969255E+03  0.22792372338E+02  0.23562481033E+03  0.00000000000E+00 0. -1.
        -11    1    3    3    0    0 -0.23505471601E+03  0.28385075841E+03 -0.52004257074E+03  0.63739018501E+03  0.00000000000E+00 0.  1.
         11    1    3    3    0    0 -0.14747907598E+01  0.45153609671E+02 -0.92495375909E+02  0.10293890440E+03  0.00000000000E+00 0. -1.
         -1    1    1    2    0  502 -0.21108823352E+02  0.18723289915E+02  0.20496859196E+02  0.34874994558E+02  0.00000000000E+00 0.  1.
<scales pt_clust_5="13000.00000" pt_clust_6="13000.00000" pt_clust_7="13000.00000" pt_clust_8="13000.00000" pt_clust_9="28.21602"></scales>
<clustering>
<clus scale="   28.216">  1  9  2 -1</clus>
<clus scale="   90.714">  5  6 -1 -1</clus>
<clus scale="   93.243">  7  8 -1 -1</clus>
<clus scale="  421.697">  1  5  2 -1</clus>
<clus scale="   28.216">  1  5  2 -1</clus>
</clustering>
</event>
<event>
 9    1  0.1601012E-005  0.1232709E+03  0.7546771E-02  0.1241395E+00
          2   -1    0    0  502    0 -0.00000000000E+00  0.00000000000E+00  0.29984166121E+02  0.29984166121E+02  0.00000000000E+00 0. -1.
         21   -1    0    0  501  502  0.00000000000E+00 -0.00000000000E+00 -0.13898047717E+04  0.13898047717E+04  0.00000000000E+00 0. -1.
         23    2    1    2    0    0 -0.30534090183E+02  0.36140402752E+02 -0.18894725326E+03  0.21942662487E+03  0.10103721993E+03 0.  0.
         23    2    1    2    0    0  0.87828109497E+02 -0.10157591461E+03 -0.54593050873E+03  0.56939641164E+03  0.90225883127E+02 0.  0.
        -11    1    3    3    0    0 -0.64790128316E+02  0.45974284291E+01 -0.10691176297E+03  0.12509605164E+03  0.00000000000E+00 0. -1.
         11    1    3    3    0    0  0.34256038132E+02  0.31542974323E+02 -0.82035490293E+02  0.94330573227E+02  0.00000000000E+00 0.  1.
        -13    1    4    4    0    0  0.99406812836E+02 -0.56725386037E+02 -0.41593453575E+03  0.43139427661E+03  0.00000000000E+00 0. -1.
         13    1    4    4    0    0 -0.11578703339E+02 -0.44850528574E+02 -0.12999597297E+03  0.13800213503E+03  0.00000000000E+00 0.  1.
          2    1    1    2  501    0 -0.57294019313E+02  0.65435511859E+02 -0.62494284361E+03  0.63096590133E+03  0.00000000000E+00 0. -1.
<scales pt_clust_5="13000.00000" pt_clust_6="13000.00000" pt_clust_7="13000.00000" pt_clust_8="13000.00000" pt_clust_9="86.97362"></scales>
<clustering>
<clus scale="   86.974">  2  9  1 -1</clus>
<clus scale="   90.226">  7  8 -1 -1</clus>
<clus scale="  101.037">  5  6 -1 -1</clus>
<clus scale="  114.577">  2  7  1 -1</clus>
<clus scale="   86.974">  2  5  1 -1</clus>
</clustering>
</event>
<event>
 9    1  0.1601012E-005  0.1002487E+03  0.7546771E-02  0.1280165E+00
         21   -1    0    0  501  502  0.00000000000E+00  0.00000000000E+00  0.11335656022E+03  0.11335656022E+03  0.00000000000E+00 0. -1.
          2   -1    0    0  502    0 -0.00000000000E+00 -0.00000000000E+00 -0.34847998289E+03  0.34847998289E+03  0.00000000000E+00 0. -1.
         23    2    1    2    0    0 -0.38216262032E+02 -0.14636682080E+02 -0.29670152648E+03  0.31311759899E+03  0.91302353932E+02 0.  0.
         23    2    1    2    0    0  0.31444859331E+02  0.43796312449E+02  0.45477452393E+02  0.11472825549E+03  0.90484682513E+02 0.  0.
        -11    1    4    4    0    0  0.22735686313E+02 -0.24046825496E+02  0.29848351007E+02  0.44565517010E+02  0.00000000000E+00 0.  1.
         11    1    4    4    0    0  0.87091730172E+01  0.67843137946E+02  0.15629101386E+02  0.70162738481E+02  0.00000000000E+00 0. -1.
        -13    1    3    3    0    0  0.15268753180E+02  0.24866753711E+02 -0.13797110217E+03  0.14102310200E+03  0.00000000000E+00 0.  1.
         13    1    3    3    0    0 -0.53485015212E+02 -0.39503435791E+02 -0.15873042432E+03  0.17209449699E+03  0.00000000000E+00 0. -1.
          2    1    1    2  501    0  0.67714027014E+01 -0.29159630370E+02  0.16100651416E+02  0.33990688635E+02  0.00000000000E+00 0. -1.
<scales pt_clust_5="13000.00000" pt_clust_6="13000.00000" pt_clust_7="13000.00000" pt_clust_8="13000.00000" pt_clust_9="29.93553"></scales>
<clustering>
<clus scale="   29.936">  1  9  2 -1</clus>
<clus scale="   90.485">  5  6 -1 -1</clus>
<clus scale="   91.302">  7  8 -1 -1</clus>
<clus scale="   99.505">  1  5  2 -1</clus>
<clus scale="   29.936">  1  5  2 -1</clus>
</clustering>
</event>
<event>
 9    1  0.1601012E-005  0.1421604E+03  0.7546771E-02  0.1211361E+00
          3   -1    0    0  502    0 -0.00000000000E+00  0.00000000000E+00  0.23278699238E+03  0.23278699238E+03  0.00000000000E+00 0. -1.
         21   -1    0    0  501  502  0.00000000000E+00 -0.00000000000E+00 -0.22445548531E+03  0.22445548531E+03  0.00000000000E+00 0.  1.
         23    2    1    2    0    0 -0.39222174712E+02 -0.10824482580E+03  0.15838690582E+03  0.21426366364E+03  0.86989564433E+02 0.  0.
         23    2    1    2    0    0  0.71191005430E+02  0.60084672624E+02 -0.83733769148E+02  0.15500174292E+03  0.91300980677E+02 0.  0.
        -13    1    3    3    0    0 -0.65175387383E+02 -0.56921263412E+02  0.10133051659E+03  0.13325064706E+03  0.00000000000E+00 0. -1.
         13    1    3    3    0    0  0.25953212670E+02 -0.51323562386E+02  0.57056389230E+02  0.81013016583E+02  0.00000000000E+00 0.  1.
        -13    1    4    4    0    0  0.75368834834E+02  0.32455760850E+02 -0.18620723762E+02  0.84146117142E+02  0.00000000000E+00 0. -1.
         13    1    4    4    0    0 -0.41778294043E+01  0.27628911774E+02 -0.65113045386E+02  0.70855625773E+02  0.00000000000E+00 0.  1.
          3    1    1    2  501    0 -0.31968830717E+02  0.48160153174E+02 -0.66321629606E+02  0.87977071131E+02  0.00000000000E+00 0. -1.
<scales pt_clust_5="13000.00000" pt_clust_6="13000.00000" pt_clust_7="13000.00000" pt_clust_8="13000.00000" pt_clust_9="57.80490"></scales>
<clustering>
<clus scale="   57.805">  2  9  1 -1</clus>
<clus scale="   86.990">  5  6 -1 -1</clus>
<clus scale="   91.301">  7  8 -1 -1</clus>
<clus scale="  139.431">  1  5  2 -1</clus>
<clus scale="   57.805">  2  5  1 -1</clus>
</clustering>
</event>
<event>
 9    1  0.1601012E-005  0.9980541E+02  0.7546771E-02  0.1282519E+00
          2   -1    0    0  502    0 -0.00000000000E+00  0.00000000000E+00  0.12035222653E+03  0.12035222653E+03  0.00000000000E+00 0. -1.
         21   -1    0    0  501  502  0.00000000000E+00 -0.00000000000E+00 -0.11272921000E+03  0.11272921000E+03  0.00000000000E+00 0.  1.
         23    2    1    2    0    0  0.58510476935E+01 -0.22572816348E+02  0.14730612598E+01  0.94901261425E+02  0.91979958217E+02 0.  0.
         23    2    1    2    0    0 -0.27005684288E+02  0.48720543332E+02  0.50639046156E+01  0.10452899709E+03  0.88304415380E+02 0.  0.
        -13    1    3    3    0    0 -0.27278136735E+02 -0.44638922959E+02 -0.10452934063E+02  0.53347858600E+02  0.00000000000E+00 0. -1.
         13    1    3    3    0    0  0.33129184429E+02  0.22066106611E+02  0.11925995322E+02  0.41553402825E+02  0.00000000000E+00 0.  1.
        -13    1    4    4    0    0 -0.23638361559E+00  0.55130161527E+02 -0.27731878025E+02  0.61712621448E+02  0.00000000000E+00 0.  1.
         13    1    4    4    0    0 -0.26769300672E+02 -0.64096181944E+01  0.32795782640E+02  0.42816375639E+02  0.00000000000E+00 0. -1.
          2    1    1    2  501    0  0.21154636594E+02 -0.26147726984E+02  0.10860506495E+01  0.33651178016E+02  0.00000000000E+00 0. -1.
<scales pt_clust_5="13000.00000" pt_clust_6="13000.00000" pt_clust_7="13000.00000" pt_clust_8="13000.00000" pt_clust_9="33.63365"></scales>
<clustering>
<clus scale="   33.634">  2  9  1 -1</clus>
<clus scale="   88.304">  7  8 -1 -1</clus>
<clus scale="   91.980">  5  6 -1 -1</clus>
<clus scale="   96.429">  2  7  1 -1</clus>
<clus scale="   33.634">  2  5  1 -1</clus>
</clustering>
</event>
<event>
 9    1  0.1601012E-005  0.9226310E+02  0.7546771E-02  0.1310407E+00
         21   -1    0    0  501  502  0.00000000000E+00  0.00000000000E+00  0.47460842794E+02  0.47460842794E+02  0.00000000000E+00 0. -1.
          1   -1    0    0  502    0 -0.00000000000E+00 -0.00000000000E+00 -0.21703734045E+03  0.21703734045E+03  0.00000000000E+00 0. -1.
         23    2    1    2    0    0  0.16911458512E+01 -0.10370964002E+02 -0.94648580106E+02  0.13259232652E+03  0.92260253999E+02 0.  0.
         23    2    1    2    0    0  0.18930665239E+01 -0.12469021442E+02 -0.26909947286E+02  0.78611982950E+02  0.72778007694E+02 0.  0.
        -11    1    3    3    0    0  0.23086414600E+02  0.34595487880E+02 -0.31510434459E+02  0.52179860104E+02  0.00000000000E+00 0.  1.
         11    1    3    3    0    0 -0.21395268749E+02 -0.44966451882E+02 -0.63138145647E+02  0.80412466418E+02  0.00000000000E+00 0. -1.
        -13    1    4    4    0    0  0.28901141045E+02 -0.29984030503E+02 -0.16236739066E+02  0.44698431006E+02  0.00000000000E+00 0.  1.
         13    1    4    4    0    0 -0.27008074521E+02  0.17515009061E+02 -0.10673208220E+02  0.33913551944E+02  0.00000000000E+00 0. -1.
          1    1    1    2  501    0 -0.35842123751E+01  0.22839985443E+02 -0.48017970265E+02  0.53293873774E+02  0.00000000000E+00 0. -1.
<scales pt_clust_5="13000.00000" pt_clust_6="13000.00000" pt_clust_7="13000.00000" pt_clust_8="13000.00000" pt_clust_9="23.11952"></scales>
<clustering>
<clus scale="   23.120">  1  9  2 -1</clus>
<clus scale="   72.778">  7  8 -1 -1</clus>
<clus scale="   72.782">  1  7  2 -1</clus>
<clus scale="   92.260">  5  6 -1 -1</clus>
<clus scale="   23.120">  1  5  2 -1</clus>
</clustering>
</event>
<event>
 9    1  0.1601012E-005  0.3324587E+03  0.7546771E-02  0.1070327E+00
          1   -1    0    0  502    0 -0.00000000000E+00  0.00000000000E+00  0.10805269518E+04  0.10805269518E+04  0.00000000000E+00 0. -1.
         21   -1    0    0  501  502  0.00000000000E+00 -0.00000000000E+00 -0.15906014898E+03  0.15906014898E+03  0.00000000000E+00 0.  1.
         23    2    1    2    0    0  0.28374157568E+03  0.60815510432E+00  0.43852241865E+03  0.53156699415E+03  0.98751739127E+02 0.  0.
         23    2    1    2    0    0 -0.37494296198E+03  0.82315203492E+02  0.37587002047E+03  0.54474458605E+03  0.90057616416E+02 0.  0.
        -11    1    3    3    0    0  0.24517365267E+03 -0.34979565455E+02  0.37060313331E+03  0.44573576521E+03  0.00000000000E+00 0.  1.
         11    1    3    3    0    0  0.38567923013E+02  0.35587720560E+02  0.67919285340E+02  0.85831228939E+02  0.00000000000E+00 0. -1.
        -11    1    4    4    0    0 -0.26711511940E+03  0.83015399064E+02  0.31361377243E+03  0.42023284231E+03  0.00000000000E+00 0. -1.
         11    1    4    4    0    0 -0.10782784258E+03 -0.70019557190E+00  0.62256248037E+02  0.12451174374E+03  0.00000000000E+00 0.  1.
          1    1    1    2  501    0  0.91201386302E+02 -0.82923358596E+02  0.10707436371E+03  0.16327552060E+03  0.00000000000E+00 0. -1.
<scales pt_clust_5="13000.00000" pt_clust_6="13000.00000" pt_clust_7="13000.00000" pt_clust_8="13000.00000" pt_clust_9="123.26385"></scales>
<clustering>
<clus scale="   90.058">  7  8 -1 -1</clus>
<clus scale="   98.752">  5  6 -1 -1</clus>
<clus scale="  123.264">  2  9  1 -1</clus>
<clus scale="  329.981">  2  7  1 -1</clus>
<clus scale="  123.264">  2  5  1 -1</clus>
</clustering>
</event>
<event>
 9    1  0.1601012E-005  0.1177989E+03  0.7546771E-02  0.1246929E+00
         21   -1    0    0  501  502  0.00000000000E+00  0.00000000000E+00  0.39805710745E+02  0.39805710745E+02  0.00000000000E+00 0. -1.
         -1   -1    0    0    0  501 -0.00000000000E+00 -0.00000000000E+00 -0.64376778524E+03  0.64376778524E+03  0.00000000000E+00 0.  1.
         23    2    1    2    0    0  0.34250149414E+02  0.62484999054E+02 -0.32989595910E+03  0.34943451806E+03  0.90530054363E+02 0.  0.
         23    2    1    2    0    0 -0.54714406763E+02 -0.60740612862E+02 -0.28571689894E+03  0.31052606897E+03  0.90051123305E+02 0.  0.
        -13    1    3    3    0    0 -0.13975508641E+02  0.64846027036E+02 -0.20811287484E+03  0.21842914352E+03  0.00000000000E+00 0.  1.
         13    1    3    3    0    0  0.48225658055E+02 -0.23610279826E+01 -0.12178308425E+03  0.13100537454E+03  0.00000000000E+00 0. -1.
        -13    1    4    4    0    0 -0.41469706965E+02  0.12752141506E+02 -0.71141598121E+02  0.83327550617E+02  0.00000000000E+00 0.  1.
         13    1    4    4    0    0 -0.13244699798E+02 -0.73492754368E+02 -0.21457530082E+03  0.22719851835E+03  0.00000000000E+00 0. -1.
         -1    1    1    2    0  502  0.20464257348E+02 -0.17443861919E+01  0.11650783547E+02  0.23612908954E+02  0.00000000000E+00 0.  1.
<scales pt_clust_5="13000.00000" pt_clust_6="13000.00000" pt_clust_7="13000.00000" pt_clust_8="13000.00000" pt_clust_9="20.53847"></scales>
<clustering>
<clus scale="   20.538">  1  9  2 -1</clus>
<clus scale="   90.051">  7  8 -1 -1</clus>
<clus scale="   90.530">  5  6 -1 -1</clus>
<clus scale="  117.431">  1  7  2 -1</clus>
<clus scale="   20.538">  1  5  2 -1</clus>
</clustering>
</event>
<event>
 9    1  0.1601012E-005  0.1284949E+03  0.7546771E-02  0.1234987E+00
         21   -1    0    0  501  502  0.00000000000E+00  0.00000000000E+00  0.39181360248E+02  0.39181360248E+02  0.00000000000E+00 0. -1.
         -2   -1    0    0    0  501 -0.00000000000E+00 -0.00000000000E+00 -0.55496324932E+03  0.55496324932E+03  0.00000000000E+00 0.  1.
         23    2    1    2    0    0 -0.55704697595E+02  0.23600401160E+02 -0.22418085711E+03  0.24885772473E+03  0.89516021993E+02 0.  0.
         23    2    1    2    0    0  0.77495104286E+02 -0.42739500643E+02 -0.28322992903E+03  0.31510075694E+03  0.10600536886E+03 0.  0.
        -11    1    4    4    0    0  0.51964237114E+02 -0.51471117137E+02 -0.27819908074E+03  0.28765306597E+03  0.00000000000E+00 0.  1.
         11    1    4    4    0    0  0.25530867172E+02  0.87316164936E+01 -0.50308482846E+01  0.27447690970E+02  0.00000000000E+00 0. -1.
        -13    1    3    3    0    0 -0.46889445337E+02  0.56779556907E+02 -0.14855259128E+03  0.16580232369E+03  0.00000000000E+00 0. -1.
         13    1    3    3    0    0 -0.88152522585E+01 -0.33179155747E+02 -0.75628265832E+02  0.83055401036E+02  0.00000000000E+00 0.  1.
         -2    1    1    2    0  502 -0.21790406691E+02  0.19139099483E+02 -0.83711029311E+01  0.30186127891E+02  0.00000000000E+00 0.  1.
<scales pt_clust_5="13000.00000" pt_clust_6="13000.00000" pt_clust_7="13000.00000" pt_clust_8="13000.00000" pt_clust_9="29.00219"></scales>
<clustering>
<clus scale="   29.002">  1  9  2 -1</clus>
<clus scale="   89.516">  7  8 -1 -1</clus>
<clus scale="  106.005">  5  6 -1 -1</clus>
<clus scale="  115.269">  2  7  1 -1</clus>
<clus scale="   29.002">  1  5  2 -1</clus>
</clustering>
</event>
<event>
 9    1  0.1601012E-005  0.9259990E+02  0.7546771E-02  0.1298637E+00
         21   -1    0    0  501  502  0.00000000000E+00  0.00000000000E+00  0.28722327548E+02  0.28722327548E+02  0.00000000000E+00 0. -1.
          2   -1    0    0  502    0 -0.00000000000E+00 -0.00000000000E+00 -0.68375192008E+03  0.68375192008E+03  0.00000000000E+00 0. -1.
         23    2    1    2    0    0  0.13712471863E+02  0.23389994634E+02 -0.35093379831E+03  0.36303987310E+03  0.88928594536E+02 0.  0.
         23    2    1    2    0    0  0.16478272376E+02  0.11124210257E+02 -0.28418786640E+03  0.29944400579E+03  0.92242548099E+02 0.  0.
        -11    1    3    3    0    0  0.47425615349E+02  0.26056066376E+02 -0.15416130469E+03  0.16338242087E+03  0.00000000000E+00 0. -1.
         11    1    3    3    0    0 -0.33713143487E+02 -0.26660717420E+01 -0.19677249362E+03  0.19965745222E+03  0.00000000000E+00 0.  1.
        -13    1    4    4    0    0  0.12503414127E+02 -0.36918055621E+02 -0.72256544474E+02  0.82099247347E+02  0.00000000000E+00 0.  1.
         13    1    4    4    0    0  0.39748582485E+01  0.48042265878E+02 -0.21193132192E+03  0.21734475844E+03  0.00000000000E+00 0. -1.
          2    1    1    2  501    0 -0.30190744239E+02 -0.34514204891E+02 -0.19907927821E+02  0.49990368743E+02  0.00000000000E+00 0. -1.
<scales pt_clust_5="13000.00000" pt_clust_6="13000.00000" pt_clust_7="13000.00000" pt_clust_8="13000.00000" pt_clust_9="45.85533"></scales>
<clustering>
<clus scale="   45.855">  1  9  2 -1</clus>
<clus scale="   88.929">  5  6 -1 -1</clus>
<clus scale="   89.299">  2  5  1 -1</clus>
<clus scale="   92.243">  7  8 -1 -1</clus>
<clus scale="   45.855">  1  5  2 -1</clus>
</clustering>
</event>
<event>
 9    1  0.1601012E-005  0.1120175E+03  0.7546771E-02  0.1261197E+00
          3   -1    0    0  502    0 -0.00000000000E+00  0.00000000000E+00  0.38418692079E+03  0.38418692079E+03  0.00000000000E+00 0. -1.
         21   -1    0    0  501  502  0.00000000000E+00 -0.00000000000E+00 -0.77280594718E+02  0.77280594718E+02  0.00000000000E+00 0.  1.
         23    2    1    2    0    0 -0.32617033551E+02 -0.27089157304E+02  0.30898738261E+03  0.32851881079E+03  0.10321682569E+03 0.  0.
         23    2    1    2    0    0  0.23054740514E+02  0.49338318040E+02 -0.71510885750E+01  0.10820667921E+03  0.93229591175E+02 0.  0.
        -11    1    4    4    0    0  0.56176547374E+02  0.19583052711E+02  0.10313684120E+02  0.60379404672E+02  0.00000000000E+00 0.  1.
         11    1    4    4    0    0 -0.33121806860E+02  0.29755265329E+02 -0.17464772695E+02  0.47827274538E+02  0.00000000000E+00 0. -1.
        -11    1    3    3    0    0  0.31310384684E+02  0.15269887445E+02  0.91476751158E+02  0.97885165649E+02  0.00000000000E+00 0.  1.
         11    1    3    3    0    0 -0.63927418235E+02 -0.42359044750E+02  0.21751063145E+03  0.23063364514E+03  0.00000000000E+00 0. -1.
          3    1    1    2  501    0  0.95622930371E+01 -0.22249160736E+02  0.50700320336E+01  0.24742025511E+02  0.00000000000E+00 0. -1.
<scales pt_clust_5="13000.00000" pt_clust_6="13000.00000" pt_clust_7="13000.00000" pt_clust_8="13000.00000" pt_clust_9="24.21699"></scales>
<clustering>
<clus scale="   24.217">  2  9  1 -1</clus>
<clus scale="   93.230">  5  6 -1 -1</clus>
<clus scale="  102.888">  2  5  1 -1</clus>
<clus scale="  103.217">  7  8 -1 -1</clus>
<clus scale="   24.217">  2  5  1 -1</clus>
</clustering>
</event>
<event>
 9    1  0.1601012E-005  0.1189699E+03  0.7546771E-02  0.1245460E+00
         -1   -1    0    0    0  501 -0.00000000000E+00  0.00000000000E+00  0.37084166298E+03  0.37084166298E+03  0.00000000000E+00 0.  1.
         21   -1    0    0  501  502  0.00000000000E+00 -0.00000000000E+00 -0.57991024961E+02  0.57991024961E+02  0.00000000000E+00 0. -1.
         23    2    1    2    0    0  0.74090746730E+02  0.24004006944E+01  0.19023221802E+03  0.22424243857E+03  0.92742513498E+02 0.  0.
         23    2    1    2    0    0 -0.72749090358E+02 -0.25172778779E+02  0.13390642947E+03  0.17913832599E+03  0.90738685502E+02 0.  0.
        -13    1    4    4    0    0 -0.66248644474E+02 -0.49367084776E+02  0.62889097663E+02  0.10383174158E+03  0.00000000000E+00 0. -1.
         13    1    4    4    0    0 -0.65004458840E+01  0.24194305998E+02  0.71017331808E+02  0.75306584417E+02  0.00000000000E+00 0.  1.
        -13    1    3    3    0    0  0.98980397441E+01  0.42005612308E+02  0.74622313974E+02  0.86202856095E+02  0.00000000000E+00 0.  1.
         13    1    3    3    0    0  0.64192706985E+02 -0.39605211614E+02  0.11560990405E+03  0.13803958248E+03  0.00000000000E+00 0. -1.
         -1    1    1    2    0  502 -0.13416563720E+01  0.22772378084E+02 -0.11288009475E+02  0.25451923372E+02  0.00000000000E+00 0.  1.
<scales pt_clust_5="13000.00000" pt_clust_6="13000.00000" pt_clust_7="13000.00000" pt_clust_8="13000.00000" pt_clust_9="22.81187"></scales>
<clustering>
<clus scale="   22.812">  2  9  1 -1</clus>
<clus scale="   90.739">  5  6 -1 -1</clus>
<clus scale="   92.743">  7  8 -1 -1</clus>
<clus scale="  117.414">  2  5  1 -1</clus>
<clus scale="   22.812">  2  5  1 -1</clus>
</clustering>
</event>
<event>
 9    1  0.1601012E-005  0.1118032E+03  0.7546771E-02  0.1262843E+00
         21   -1    0    0  501  502  0.00000000000E+00  0.00000000000E+00  0.85068004014E+02  0.85068004014E+02  0.00000000000E+00 0. -1.
         -4   -1    0    0    0  501 -0.00000000000E+00 -0.00000000000E+00 -0.28951915297E+03  0.28951915297E+03  0.00000000000E+00 0.  1.
         23    2    1    2    0    0 -0.18854104360E+02 -0.15155215036E+02 -0.14216748610E+03  0.17749928564E+03  0.10348547968E+03 0.  0.
         23    2    1    2    0    0  0.72121315119E+02  0.28632893359E+02 -0.74520707284E+02  0.14079587536E+03  0.90822992837E+02 0.  0.
        -11    1    4    4    0    0  0.13120909764E+02  0.39173621097E+02  0.45663984687E+01  0.41564201639E+02  0.00000000000E+00 0.  1.
         11    1    4    4    0    0  0.59000405355E+02 -0.10540727738E+02 -0.79087105753E+02  0.99231673722E+02  0.00000000000E+00 0. -1.
        -13    1    3    3    0    0  0.17404695778E+02  0.25455519778E+02 -0.67767324184E+01  0.31572630942E+02  0.00000000000E+00 0. -1.
         13    1    3    3    0    0 -0.36258800138E+02 -0.40610734814E+02 -0.13539075368E+03  0.14592665470E+03  0.00000000000E+00 0.  1.
         -4    1    1    2    0  502 -0.53267210760E+02 -0.13477678323E+02  0.12237044428E+02  0.56291995980E+02  0.00000000000E+00 0.  1.
<scales pt_clust_5="13000.00000" pt_clust_6="13000.00000" pt_clust_7="13000.00000" pt_clust_8="13000.00000" pt_clust_9="54.94582"></scales>
<clustering>
<clus scale="   54.946">  1  9  2 -1</clus>
<clus scale="   90.823">  5  6 -1 -1</clus>
<clus scale="  100.197">  1  5  2 -1</clus>
<clus scale="  103.485">  7  8 -1 -1</clus>
<clus scale="   54.946">  1  5  2 -1</clus>
</clustering>
</event>
<event>
 9    1  0.1601012E-005  0.1055151E+03  0.7546771E-02  0.1272020E+00
          3   -1    0    0  502    0 -0.00000000000E+00  0.00000000000E+00  0.33926807678E+03  0.33926807678E+03  0.00000000000E+00 0. -1.
         21   -1    0    0  501  502  0.00000000000E+00 -0.00000000000E+00 -0.86275170335E+02  0.86275170335E+02  0.00000000000E+00 0.  1.
         23    2    1    2    0    0  0.45822914877E+02 -0.16911194939E+01  0.24103504342E+03  0.26118481936E+03  0.89537803717E+02 0.  0.
         23    2    1    2    0    0 -0.33102004029E+02 -0.43685259263E+02  0.29037100681E+02  0.11423320774E+03  0.95926680270E+02 0.  0.
        -13    1    3    3    0    0  0.54872337023E+02  0.23354744786E+02  0.90967619325E+02  0.10877281480E+03  0.00000000000E+00 0. -1.
         13    1    3    3    0    0 -0.90494221455E+01 -0.25045864280E+02  0.15006742410E+03  0.15241200456E+03  0.00000000000E+00 0.  1.
        -13    1    4    4    0    0 -0.52064787628E+02  0.53451165946E+00 -0.90759004238E+01  0.52852623227E+02  0.00000000000E+00 0. -1.
         13    1    4    4    0    0  0.18962783599E+02 -0.44219770922E+02  0.38113001105E+02  0.61380584516E+02  0.00000000000E+00 0.  1.
          3    1    1    2  501    0 -0.12720910848E+02  0.45376378756E+02 -0.17079237661E+02  0.50125220009E+02  0.00000000000E+00 0. -1.
<scales pt_clust_5="13000.00000" pt_clust_6="13000.00000" pt_clust_7="13000.00000" pt_clust_8="13000.00000" pt_clust_9="47.12576"></scales>
<clustering>
<clus scale="   47.126">  2  9  1 -1</clus>
<clus scale="   89.538">  5  6 -1 -1</clus>
<clus scale="   95.927">  7  8 -1 -1</clus>
<clus scale="   99.742">  1  5  2 -1</clus>
<clus scale="   47.126">  2  5  1 -1</clus>
</clustering>
</event>
<event>
 9    1  0.1601012E-005  0.3992622E+03  0.7546771E-02  0.1044140E+00
         21   -1    0    0  501  502  0.00000000000E+00  0.00000000000E+00  0.11556711668E+03  0.11556711668E+03  0.00000000000E+00 0. -1.
          2   -1    0    0  502    0 -0.00000000000E+00 -0.00000000000E+00 -0.20487961018E+04  0.20487961018E+04  0.00000000000E+00 0. -1.
         23    2    1    2    0    0  0.29723366750E+03  0.16353462981E+03 -0.81243176846E+03  0.88485070893E+03  0.88453210494E+02 0.  0.
         23    2    1    2    0    0 -0.43301122329E+03 -0.18120947441E+03 -0.90859623467E+03  0.10269710248E+04  0.93737798748E+02 0.  0.
        -11    1    3    3    0    0  0.88961155250E+02  0.48746718948E+02 -0.35615395307E+03  0.37031873844E+03  0.00000000000E+00 0. -1.
         11    1    3    3    0    0  0.20827251225E+03  0.11478791086E+03 -0.45627781539E+03  0.51453197049E+03  0.00000000000E+00 0.  1.
        -13    1    4    4    0    0 -0.27211467197E+03 -0.16068173440E+03 -0.62127538703E+03  0.69702806328E+03  0.00000000000E+00 0. -1.
         13    1    4    4    0    0 -0.16089655132E+03 -0.20527740008E+02 -0.28732084765E+03  0.32994296148E+03  0.00000000000E+00 0.  1.
          2    1    1    2  501    0  0.13577755578E+03  0.17674844598E+02 -0.21220098200E+03  0.25254148481E+03  0.00000000000E+00 0. -1.
<scales pt_clust_5="13000.00000" pt_clust_6="13000.00000" pt_clust_7="13000.00000" pt_clust_8="13000.00000" pt_clust_9="136.92313"></scales>
<clustering>
<clus scale="   88.453">  5  6 -1 -1</clus>
<clus scale="   93.738">  7  8 -1 -1</clus>
<clus scale="  136.923">  1  9  2 -1</clus>
<clus scale="  398.055">  2  5  1 -1</clus>
<clus scale="  136.923">  1  5  2 -1</clus>
</clustering>
</event>
<event>
 9    1  0.1601012E-005  0.1019673E+03  0.7546771E-02  0.1276389E+00
          3   -1    0    0  502    0 -0.00000000000E+00  0.00000000000E+00  0.45081509920E+03  0.45081509920E+03  0.00000000000E+00 0. -1.
         21   -1    0    0  501  502  0.00000000000E+00 -0.00000000000E+00 -0.98918497625E+02  0.98918497625E+02  0.00000000000E+00 0. -1.
         23    2    1    2    0    0 -0.52042933028E+02 -0.99566015429E+01  0.29573503621E+03  0.31397263735E+03  0.91170195645E+02 0.  0.
         23    2    1    2    0    0  0.26222246543E+02  0.19615275908E+02  0.12688369140E+03  0.15985564377E+03  0.91553210969E+02 0.  0.
        -11    1    4    4    0    0  0.39446407752E+02  0.49010548586E+02  0.98661630425E+02  0.11701354740E+03  0.00000000000E+00 0.  1.
         11    1    4    4    0    0 -0.13224161209E+02 -0.29395272678E+02  0.28222060975E+02  0.42842096368E+02  0.00000000000E+00 0. -1.
        -13    1    3    3    0    0  0.10752635477E+02 -0.28063176777E+02  0.16608638026E+03  0.16878343156E+03  0.00000000000E+00 0.  1.
         13    1    3    3    0    0 -0.62795568506E+02  0.18106575235E+02  0.12964865594E+03  0.14518920579E+03  0.00000000000E+00 0. -1.
          3    1    1    2  501    0  0.25820686486E+02 -0.96586743652E+01 -0.70722126033E+02  0.75905315702E+02  0.00000000000E+00 0. -1.
<scales pt_clust_5="13000.00000" pt_clust_6="13000.00000" pt_clust_7="13000.00000" pt_clust_8="13000.00000" pt_clust_9="27.56806"></scales>
<clustering>
<clus scale="   27.568">  2  9  1 -1</clus>
<clus scale="   91.170">  7  8 -1 -1</clus>
<clus scale="   91.553">  5  6 -1 -1</clus>
<clus scale="  101.624">  1  7  2 -1</clus>
<clus scale="   27.568">  2  5  1 -1</clus>
</clustering>
</event>
<event>
 9    1  0.1601012E-005  0.1922295E+03  0.7546771E-02  0.1174574E+00
          1   -1    0    0  502    0 -0.00000000000E+00  0.00000000000E+00  0.11528039438E+03  0.11528039438E+03  0.00000000000E+00 0. -1.
         21   -1    0    0  501  502  0.00000000000E+00 -0.00000000000E+00 -0.60221391856E+03  0.60221391856E+03  0.00000000000E+00 0.  1.
         23    2    1    2    0    0  0.85375687872E+02  0.22188603456E+02 -0.13525796048E+03  0.18527816294E+03  0.90840187059E+02 0.  0.
         23    2    1    2    0    0 -0.21593158470E+03 -0.83331785583E+02 -0.17558794030E+03  0.30464158633E+03  0.91677344958E+02 0.  0.
        -11    1    4    4    0    0 -0.18538684526E+02 -0.43258220602E+02 -0.40766478891E+02  0.62264454344E+02  0.00000000000E+00 0. -1.
         11    1    4    4    0    0 -0.19739290018E+03 -0.40073564982E+02 -0.13482146141E+03  0.24237713198E+03  0.00000000000E+00 0.  1.
        -13    1    3    3    0    0  0.19385056193E+01  0.40607540893E+02 -0.35938469415E+02  0.54261439027E+02  0.00000000000E+00 0.  1.
         13    1    3    3    0    0  0.83437182252E+02 -0.18418937437E+02 -0.99319491065E+02  0.13101672391E+03  0.00000000000E+00 0. -1.
          1    1    1    2  501    0  0.13055589683E+03  0.61143182127E+02 -0.17608762339E+03  0.22757456367E+03  0.00000000000E+00 0. -1.
<scales pt_clust_5="13000.00000" pt_clust_6="13000.00000" pt_clust_7="13000.00000" pt_clust_8="13000.00000" pt_clust_9="168.95985"></scales>
<clustering>
<clus scale="   90.840">  7  8 -1 -1</clus>
<clus scale="   91.677">  5  6 -1 -1</clus>
<clus scale="  126.623">  1  7  2 -1</clus>
<clus scale="  168.960">  2  9  1 -1</clus>
<clus scale="  168.960">  2  5  1 -1</clus>
</clustering>
</event>
<event>
 9    1  0.1601012E-005  0.1397887E+03  0.7546771E-02  0.1214766E+00
         21   -1    0    0  501  502  0.00000000000E+00  0.00000000000E+00  0.76571318054E+03  0.76571318054E+03  0.00000000000E+00 0. -1.
          3   -1    0    0  502    0 -0.00000000000E+00 -0.00000000000E+00 -0.15097225827E+03  0.15097225827E+03  0.00000000000E+00 0. -1.
         23    2    1    2    0    0  0.21015602464E+01 -0.12470555836E+03 -0.37782885714E+02  0.16233927092E+03  0.96801857360E+02 0.  0.
         23    2    1    2    0    0 -0.50719394297E+02  0.64543335783E+02  0.29683274290E+02  0.12672086787E+03  0.91862845752E+02 0.  0.
        -11    1    4    4    0    0 -0.64460271198E+02  0.21575351626E+02 -0.73285220788E+01  0.68369069005E+02  0.00000000000E+00 0. -1.
         11    1    4    4    0    0  0.13740876901E+02  0.42967984157E+02  0.37011796369E+02  0.58351798867E+02  0.00000000000E+00 0.  1.
        -13    1    3    3    0    0  0.21519189679E+02 -0.90444019721E+02 -0.65895151190E+02  0.11395335527E+03  0.00000000000E+00 0.  1.
         13    1    3    3    0    0 -0.19417629433E+02 -0.34261538641E+02  0.28112265476E+02  0.48385915648E+02  0.00000000000E+00 0. -1.
          3    1    1    2  501    0  0.48617834050E+02  0.60162222580E+02  0.62284053369E+03  0.62762530002E+03  0.00000000000E+00 0. -1.
<scales pt_clust_5="13000.00000" pt_clust_6="13000.00000" pt_clust_7="13000.00000" pt_clust_8="13000.00000" pt_clust_9="77.35106"></scales>
<clustering>
<clus scale="   77.351">  1  9  2 -1</clus>
<clus scale="   91.863">  5  6 -1 -1</clus>
<clus scale="   96.802">  7  8 -1 -1</clus>
<clus scale="  136.415">  1  5  2 -1</clus>
<clus scale="   77.351">  1  5  2 -1</clus>
</clustering>
</event>
<event>
 9    1  0.1601012E-005  0.1258083E+03  0.7546771E-02  0.1238662E+00
         21   -1    0    0  501  502  0.00000000000E+00  0.00000000000E+00  0.71007873714E+03  0.71007873714E+03  0.00000000000E+00 0. -1.
          4   -1    0    0  502    0 -0.00000000000E+00 -0.00000000000E+00 -0.73237150886E+02  0.73237150886E+02  0.00000000000E+00 0. -1.
         23    2    1    2    0    0 -0.65770526615E+02  0.16949118898E+01 -0.21880873773E+00  0.11267633040E+03  0.91472797360E+02 0.  0.
         23    2    1    2    0    0  0.84164154227E+02  0.57915202120E+02  0.45188910558E+03  0.47524227604E+03  0.10589467269E+03 0.  0.
        -11    1    3    3    0    0 -0.50563749773E+02 -0.42347836101E+02 -0.27651244853E+01  0.66012710344E+02  0.00000000000E+00 0.  1.
         11    1    3    3    0    0 -0.15206776841E+02  0.44042747991E+02  0.25463157475E+01  0.46663620052E+02  0.00000000000E+00 0. -1.
        -11    1    4    4    0    0  0.20824477797E+02  0.75695314573E+02  0.19873997132E+03  0.21368438344E+03  0.00000000000E+00 0. -1.
         11    1    4    4    0    0  0.63339676430E+02 -0.17780112453E+02  0.25314913425E+03  0.26155789260E+03  0.00000000000E+00 0.  1.
          4    1    1    2  501    0 -0.18393627612E+02 -0.59610114010E+02  0.18517128941E+03  0.19539728159E+03  0.00000000000E+00 0. -1.
<scales pt_clust_5="13000.00000" pt_clust_6="13000.00000" pt_clust_7="13000.00000" pt_clust_8="13000.00000" pt_clust_9="62.38342"></scales>
<clustering>
<clus scale="   62.383">  1  9  2 -1</clus>
<clus scale="   91.473">  5  6 -1 -1</clus>
<clus scale="  105.895">  7  8 -1 -1</clus>
<clus scale="  113.936">  2  5  1 -1</clus>
<clus scale="   62.383">  1  5  2 -1</clus>
</clustering>
</event>
<event>
 9    1  0.1601012E-005  0.2385899E+03  0.7546771E-02  0.1157588E+00
         21   -1    0    0  501  502  0.00000000000E+00  0.00000000000E+00  0.53964879608E+02  0.53964879608E+02  0.00000000000E+00 0. -1.
          3   -1    0    0  502    0 -0.00000000000E+00 -0.00000000000E+00 -0.14690619998E+04  0.14690619998E+04  0.00000000000E+00 0. -1.
         23    2    1    2    0    0  0.29498189184E-01  0.26010931478E+02 -0.19609223731E+03  0.21918574927E+03  0.94412169359E+02 0.  0.
         23    2    1    2    0    0  0.21445340567E+03 -0.71715692258E+02 -0.59037364735E+03  0.63805657678E+03  0.86265566528E+02 0.  0.
        -11    1    3    3    0    0 -0.22928129330E+02  0.31449753858E+02 -0.19116099289E+03  0.19508283199E+03  0.00000000000E+00 0.  1.
         11    1    3    3    0    0  0.22957627519E+02 -0.54388223799E+01 -0.49312444222E+01  0.24102917287E+02  0.00000000000E+00 0. -1.
        -11    1    4    4    0    0  0.16910564847E+03 -0.90782983120E+02 -0.49079412833E+03  0.52698875394E+03  0.00000000000E+00 0. -1.
         11    1    4    4    0    0  0.45347757199E+02  0.19067290862E+02 -0.99579519017E+02  0.11106782284E+03  0.00000000000E+00 0.  1.
          3    1    1    2  501    0 -0.21448290386E+03  0.45704760779E+02 -0.62863123556E+03  0.66578455339E+03  0.00000000000E+00 0. -1.
<scales pt_clust_5="13000.00000" pt_clust_6="13000.00000" pt_clust_7="13000.00000" pt_clust_8="13000.00000" pt_clust_9="222.44869"></scales>
<clustering>
<clus scale="   86.266">  7  8 -1 -1</clus>
<clus scale="   94.412">  5  6 -1 -1</clus>
<clus scale="   97.930">  2  5  1 -1</clus>
<clus scale="  222.449">  1  9  2 -1</clus>
<clus scale="  222.449">  1  5  2 -1</clus>
</clustering>
</event>
<event>
 9    1  0.1601012E-005  0.1941240E+03  0.7546771E-02  0.1155603E+00
         -1   -1    0    0    0  501 -0.00000000000E+00  0.00000000000E+00  0.57819623664E+03  0.57819623664E+03  0.00000000000E+00 0.  1.
         21   -1    0    0  501  502  0.00000000000E+00 -0.00000000000E+00 -0.54094725688E+03  0.54094725688E+03  0.00000000000E+00 0.  1.
         23    2    1    2    0    0  0.13497666759E+03 -0.84949404799E+02  0.28418516395E+03  0.33795877791E+03  0.89553481148E+02 0.  0.
         23    2    1    2    0    0 -0.20142575657E+03  0.14911064840E+01  0.21313136056E+03  0.30891052119E+03  0.97088487669E+02 0.  0.
        -11    1    3    3    0    0  0.58825004281E+02 -0.26140511872E+02  0.20002838979E+03  0.21013106436E+03  0.00000000000E+00 0. -1.
         11    1    3    3    0    0  0.76151663314E+02 -0.58808892927E+02  0.84156774163E+02  0.12782771355E+03  0.00000000000E+00 0.  1.
        -13    1    4    4    0    0 -0.10334038744E+03 -0.80511862880E+01  0.42835915786E+02  0.11215602060E+03  0.00000000000E+00 0. -1.
         13    1    4    4    0    0 -0.98085369134E+02  0.95422927720E+01  0.17029544478E+03  0.19675450059E+03  0.00000000000E+00 0.  1.
         -1    1    1    2    0  502  0.66449088977E+02  0.83458298315E+02 -0.46006754476E+03  0.47227419443E+03  0.00000000000E+00 0.  1.
<scales pt_clust_5="13000.00000" pt_clust_6="13000.00000" pt_clust_7="13000.00000" pt_clust_8="13000.00000" pt_clust_9="106.68069"></scales>
<clustering>
<clus scale="   89.553">  5  6 -1 -1</clus>
<clus scale="   97.088">  7  8 -1 -1</clus>
<clus scale="  106.681">  2  9  1 -1</clus>
<clus scale="  190.467">  1  5  2 -1</clus>
<clus scale="  106.681">  2  5  1 -1</clus>
</clustering>
</event>
<event>
 9    1  0.1601012E-005  0.1173799E+03  0.7546771E-02  0.1248390E+00
          1   -1    0    0  502    0 -0.00000000000E+00  0.00000000000E+00  0.10346346299E+03  0.10346346299E+03  0.00000000000E+00 0. -1.
         21   -1    0    0  501  502  0.00000000000E+00 -0.00000000000E+00 -0.49846702871E+03  0.49846702871E+03  0.00000000000E+00 0. -1.
         23    2    1    2    0    0 -0.60617335276E+02 -0.29439438232E+02  0.31801945526E+02  0.11813887505E+03  0.91674904966E+02 0.  0.
         23    2    1    2    0    0  0.72156333881E+02  0.10197967654E+03 -0.26687432365E+03  0.30779951618E+03  0.88950809934E+02 0.  0.
        -11    1    4    4    0    0  0.56167008194E+02  0.80295383122E+02 -0.10469855654E+03  0.14340107776E+03  0.00000000000E+00 0. -1.
         11    1    4    4    0    0  0.15989325687E+02  0.21684293415E+02 -0.16217576711E+03  0.16439843842E+03  0.00000000000E+00 0.  1.
        -13    1    3    3    0    0  0.21886117059E+02 -0.62173065085E+01 -0.73511216808E+01  0.23910165414E+02  0.00000000000E+00 0.  1.
         13    1    3    3    0    0 -0.82503452334E+02 -0.23222131724E+02  0.39153067207E+02  0.94228709641E+02  0.00000000000E+00 0. -1.
          1    1    1    2  501    0 -0.11538998606E+02 -0.72540238305E+02 -0.15993118760E+03  0.17599210047E+03  0.00000000000E+00 0. -1.
<scales pt_clust_5="13000.00000" pt_clust_6="13000.00000" pt_clust_7="13000.00000" pt_clust_8="13000.00000" pt_clust_9="73.45226"></scales>
<clustering>
<clus scale="   73.452">  2  9  1 -1</clus>
<clus scale="   88.951">  5  6 -1 -1</clus>
<clus scale="   91.675">  7  8 -1 -1</clus>
<clus scale="  115.265">  2  5  1 -1</clus>
<clus scale="   73.452">  2  5  1 -1</clus>
</clustering>
</event>
<event>
 9    1  0.1601012E-005  0.1098401E+03  0.7546771E-02  0.1263215E+00
          2   -1    0    0  502    0 -0.00000000000E+00  0.00000000000E+00  0.14249285965E+03  0.14249285965E+03  0.00000000000E+00 0. -1.
         21   -1    0    0  501  502  0.00000000000E+00 -0.00000000000E+00 -0.25357193962E+03  0.25357193962E+03  0.00000000000E+00 0. -1.
         23    2    1    2    0    0  0.38011554145E+02 -0.12464060070E+02  0.31394152913E+02  0.10959573868E+03  0.97084509876E+02 0.  0.
         23    2    1    2    0    0 -0.66089320017E+02 -0.18287670993E+01  0.25390068709E+02  0.11567464069E+03  0.91459413403E+02 0.  0.
        -11    1    3    3    0    0  0.44993947965E+02  0.33169646675E+02  0.42920392318E+01  0.56063378553E+02  0.00000000000E+00 0.  1.
         11    1    3    3    0    0 -0.69823938198E+01 -0.45633706745E+02  0.27102113682E+02  0.53532360127E+02  0.00000000000E+00 0. -1.
        -13    1    4    4    0    0 -0.37376403938E+02  0.29656745064E+02 -0.21484124125E+02  0.52326720598E+02  0.00000000000E+00 0.  1.
         13    1    4    4    0    0 -0.28712916079E+02 -0.31485512164E+02  0.46874192834E+02  0.63347920091E+02  0.00000000000E+00 0. -1.
          2    1    1    2  501    0  0.28077765872E+02  0.14292827170E+02 -0.16786330159E+03  0.17079441989E+03  0.00000000000E+00 0. -1.
<scales pt_clust_5="13000.00000" pt_clust_6="13000.00000" pt_clust_7="13000.00000" pt_clust_8="13000.00000" pt_clust_9="31.50628"></scales>
<clustering>
<clus scale="   31.506">  2  9  1 -1</clus>
<clus scale="   91.459">  7  8 -1 -1</clus>
<clus scale="   97.085">  5  6 -1 -1</clus>
<clus scale="  104.901">  2  7  1 -1</clus>
<clus scale="   31.506">  2  5  1 -1</clus>
</clustering>
</event>
<event>
 9    1  0.1601012E-005  0.1073840E+03  0.7546771E-02  0.1265597E+00
          1   -1    0    0  502    0 -0.00000000000E+00  0.00000000000E+00  0.98118620433E+02  0.98118620433E+02  0.00000000000E+00 0. -1.
         21   -1    0    0  501  502  0.00000000000E+00 -0.00000000000E+00 -0.14464338992E+03  0.14464338992E+03  0.00000000000E+00 0.  1.
         23    2    1    2    0    0  0.18204405402E+02 -0.50894652241E+02 -0.23230827104E+02  0.10879043063E+03  0.91509674163E+02 0.  0.
         23    2    1    2    0    0 -0.39421531674E+02  0.44684790367E+02 -0.23278940282E+02  0.11186436243E+03  0.91765673709E+02 0.  0.
        -11    1    4    4    0    0 -0.98290364406E+01  0.22031450804E+02  0.35107749978E+02  0.42597522116E+02  0.00000000000E+00 0. -1.
         11    1    4    4    0    0 -0.29592495233E+02  0.22653339562E+02 -0.58386690260E+02  0.69266840313E+02  0.00000000000E+00 0.  1.
        -13    1    3    3    0    0 -0.15467087515E+02  0.17773417985E+02  0.97553295631E+01  0.25500816417E+02  0.00000000000E+00 0.  1.
         13    1    3    3    0    0  0.33671492917E+02 -0.68668070226E+02 -0.32986156668E+02  0.83289614211E+02  0.00000000000E+00 0. -1.
          1    1    1    2  501    0  0.21217126272E+02  0.62098618741E+01 -0.15002104478E-01  0.22107217301E+02  0.00000000000E+00 0. -1.
<scales pt_clust_5="13000.00000" pt_clust_6="13000.00000" pt_clust_7="13000.00000" pt_clust_8="13000.00000" pt_clust_9="22.10722"></scales>
<clustering>
<clus scale="   22.107">  2  9  1 -1</clus>
<clus scale="   91.510">  7  8 -1 -1</clus>
<clus scale="   91.766">  5  6 -1 -1</clus>
<clus scale="  107.165">  1  7  2 -1</clus>
<clus scale="   22.107">  2  5  1 -1</clus>
</clustering>
</event>
<event>
 9    1  0.1601012E-005  0.1250463E+03  0.7546771E-02  0.1235166E+00
          4   -1    0    0  502    0 -0.00000000000E+00  0.00000000000E+00  0.46754973364E+03  0.46754973364E+03  0.00000000000E+00 0. -1.
         21   -1    0    0  501  502  0.00000000000E+00 -0.00000000000E+00 -0.56070439527E+02  0.56070439527E+02  0.00000000000E+00 0. -1.
         23    2    1    2    0    0 -0.36684805627E+02 -0.67591131717E+02  0.24073277710E+03  0.26806000901E+03  0.89384352164E+02 0.  0.
         23    2    1    2    0    0  0.78460320615E+02  0.84004224634E+02  0.12865222515E+03  0.19402551798E+03  0.88779360919E+02 0.  0.
        -11    1    3    3    0    0 -0.66639234732E+02 -0.45640078627E+02  0.16342995996E+03  0.18229963301E+03  0.00000000000E+00 0. -1.
         11    1    3    3    0    0  0.29954429105E+02 -0.21951053091E+02  0.77302817143E+02  0.85760376008E+02  0.00000000000E+00 0.  1.
        -13    1    4    4    0    0 -0.12309162209E+02  0.43294186119E+02  0.31205478253E+02  0.54769370080E+02  0.00000000000E+00 0.  1.
         13    1    4    4    0    0  0.90769482823E+02  0.40710038515E+02  0.97446746899E+02  0.13925614790E+03  0.00000000000E+00 0. -1.
          4    1    1    2  501    0 -0.41775514988E+02 -0.16413092917E+02  0.42094291858E+02  0.61534646165E+02  0.00000000000E+00 0. -1.
<scales pt_clust_5="13000.00000" pt_clust_6="13000.00000" pt_clust_7="13000.00000" pt_clust_8="13000.00000" pt_clust_9="44.88411"></scales>
<clustering>
<clus scale="   44.884">  2  9  1 -1</clus>
<clus scale="   88.779">  7  8 -1 -1</clus>
<clus scale="   89.384">  5  6 -1 -1</clus>
<clus scale="  124.615">  2  7  1 -1</clus>
<clus scale="   44.884">  2  5  1 -1</clus>
</clustering>
</event>
<event>
 9    1  0.1601012E-005  0.2471024E+03  0.7546771E-02  0.1150017E+00
         21   -1    0    0  501  502  0.00000000000E+00  0.00000000000E+00  0.41763848148E+02  0.41763848148E+02  0.00000000000E+00 0. -1.
          2   -1    0    0  502    0 -0.00000000000E+00 -0.00000000000E+00 -0.21396411843E+04  0.21396411843E+04  0.00000000000E+00 0. -1.
         23    2    1    2    0    0  0.23165462871E+02  0.44027151903E+02 -0.26231840677E+03  0.28268244551E+03  0.92862208100E+02 0.  0.
         23    2    1    2    0    0 -0.24333686819E+03 -0.42291192211E+02 -0.10957803097E+04  0.11268735943E+04  0.90045733306E+02 0.  0.
        -11    1    4    4    0    0 -0.12869933662E+02 -0.24527020552E+02 -0.68083546138E+02  0.73502239315E+02  0.00000000000E+00 0.  1.
         11    1    4    4    0    0 -0.23046693453E+03 -0.17764171659E+02 -0.10276967636E+04  0.10533713550E+04  0.00000000000E+00 0. -1.
        -11    1    3    3    0    0 -0.33283712002E+02  0.27086100661E+02 -0.14758278096E+03  0.15369495623E+03  0.00000000000E+00 0. -1.
         11    1    3    3    0    0  0.56449174873E+02  0.16941051242E+02 -0.11473562581E+03  0.12898748928E+03  0.00000000000E+00 0.  1.
          2    1    1    2  501    0  0.22017140532E+03 -0.17359596924E+01 -0.73977861973E+03  0.77184899267E+03  0.00000000000E+00 0. -1.
<scales pt_clust_5="13000.00000" pt_clust_6="13000.00000" pt_clust_7="13000.00000" pt_clust_8="13000.00000" pt_clust_9="230.11167"></scales>
<clustering>
<clus scale="   90.046">  5  6 -1 -1</clus>
<clus scale="   92.862">  7  8 -1 -1</clus>
<clus scale="  105.349">  2  7  1 -1</clus>
<clus scale="  230.112">  1  9  2 -1</clus>
<clus scale="  230.112">  1  5  2 -1</clus>
</clustering>
</event>
<event>
 9    1  0.2761318E-005  0.1939804E+03  0.7546771E-02  0.1155055E+00
          2   -1    0    0  502    0 -0.00000000000E+00  0.00000000000E+00  0.11338243986E+04  0.11338243986E+04  0.00000000000E+00 0. -1.
         21   -1    0    0  501  502  0.00000000000E+00 -0.00000000000E+00 -0.11424593277E+03  0.11424593277E+03  0.00000000000E+00 0. -1.
         23    2    1    2    0    0 -0.64526019888E+02 -0.15803607272E+03  0.94332937742E+03  0.96296268750E+03  0.91037441171E+02 0.  0.
         23    2    1    2    0    0  0.14866504817E+02  0.17619792337E+03  0.91720967066E+01  0.19969544878E+03  0.92344050915E+02 0.  0.
        -11    1    3    3    0    0  0.16645921169E+02 -0.33945130888E+02  0.10451569108E+03  0.11114354810E+03  0.00000000000E+00 0.  1.
         11    1    3    3    0    0 -0.81171941057E+02 -0.12409094183E+03  0.83881368633E+03  0.85181913939E+03  0.00000000000E+00 0. -1.
        -11    1    4    4    0    0  0.93425521815E+01  0.13943822285E+03  0.46237567819E+02  0.14720127021E+03  0.00000000000E+00 0. -1.
         11    1    4    4    0    0  0.55239526357E+01  0.36759700520E+02 -0.37065471112E+02  0.52494178571E+02  0.00000000000E+00 0.  1.
          2    1    1    2  501    0  0.49659515071E+02 -0.18161850653E+02  0.67076991724E+02  0.85412195119E+02  0.00000000000E+00 0. -1.
<scales pt_clust_5="13000.00000" pt_clust_6="13000.00000" pt_clust_7="13000.00000" pt_clust_8="13000.00000" pt_clust_9="52.87646"></scales>
<clustering>
<clus scale="   52.876">  2  9  1 -1</clus>
<clus scale="   91.037">  5  6 -1 -1</clus>
<clus scale="   92.344">  7  8 -1 -1</clus>
<clus scale="  193.362">  1  5  2 -1</clus>
<clus scale="   52.876">  2  5  1 -1</clus>
</clustering>
</event>
<event>
 9    1  0.1601012E-005  0.1548151E+03  0.7546771E-02  0.1195676E+00
         21   -1    0    0  501  502  0.00000000000E+00  0.00000000000E+00  0.28006693617E+03  0.28006693617E+03  0.00000000000E+00 0.  1.
          4   -1    0    0  502    0 -0.00000000000E+00 -0.00000000000E+00 -0.55805038128E+03  0.55805038128E+03  0.00000000000E+00 0. -1.
         23    2    1    2    0    0  0.12395344246E+03 -0.41318472200E+02 -0.50608933397E+03  0.52980014642E+03  0.86545416665E+02 0.  0.
         23    2    1    2    0    0 -0.36790742977E+02  0.59586780463E+02  0.10478477762E+03  0.15620154478E+03  0.92276377245E+02 0.  0.
        -11    1    4    4    0    0 -0.10701748334E+02  0.38664142156E+02 -0.59231572215E+01  0.40552769295E+02  0.00000000000E+00 0. -1.
         11    1    4    4    0    0 -0.26088994643E+02  0.20922638307E+02  0.11070793484E+03  0.11564877549E+03  0.00000000000E+00 0.  1.
        -13    1    3    3    0    0  0.70146711013E+02 -0.61416364210E+02 -0.23764199556E+03  0.25527680841E+03  0.00000000000E+00 0. -1.
         13    1    3    3    0    0  0.53806731448E+02  0.20097892010E+02 -0.26844733841E+03  0.27452333801E+03  0.00000000000E+00 0.  1.
          4    1    1    2  501    0 -0.87162699484E+02 -0.18268308263E+02  0.12332111124E+03  0.15211562624E+03  0.00000000000E+00 0. -1.
<scales pt_clust_5="13000.00000" pt_clust_6="13000.00000" pt_clust_7="13000.00000" pt_clust_8="13000.00000" pt_clust_9="89.05654"></scales>
<clustering>
<clus scale="   86.545">  7  8 -1 -1</clus>
<clus scale="   89.057">  1  9  2 -1</clus>
<clus scale="   92.276">  5  6 -1 -1</clus>
<clus scale="  151.469">  2  7  1 -1</clus>
<clus scale="   89.057">  1  5  2 -1</clus>
</clustering>
</event>
<event>
 9    1  0.1601012E-005  0.9558961E+02  0.7546771E-02  0.1291362E+00
         -4   -1    0    0    0  501 -0.00000000000E+00  0.00000000000E+00  0.17262511065E+02  0.17262511065E+02  0.00000000000E+00 0.  1.
         21   -1    0    0  501  502  0.00000000000E+00 -0.00000000000E+00 -0.89493596213E+03  0.89493596213E+03  0.00000000000E+00 0. -1.
         23    2    1    2    0    0 -0.25525506085E+02  0.40721554898E+02 -0.29598846955E+03  0.31350711214E+03  0.91475345095E+02 0.  0.
         23    2    1    2    0    0  0.16778426733E+02  0.84162937501E+01 -0.33790993958E+03  0.34985946873E+03  0.88691436964E+02 0.  0.
        -11    1    4    4    0    0 -0.35710256413E+02  0.12892732572E+02 -0.13891475269E+03  0.14400956039E+03  0.00000000000E+00 0.  1.
         11    1    4    4    0    0  0.52488683146E+02 -0.44764388222E+01 -0.19899518688E+03  0.20584990834E+03  0.00000000000E+00 0. -1.
        -13    1    3    3    0    0  0.18368713667E+02  0.51559177691E+02 -0.12155252408E+03  0.13330706866E+03  0.00000000000E+00 0.  1.
         13    1    3    3    0    0 -0.43894219752E+02 -0.10837622793E+02 -0.17443594547E+03  0.18020004347E+03  0.00000000000E+00 0. -1.
         -4    1    1    2    0  502  0.87470793521E+01 -0.49137848648E+02 -0.24377504194E+03  0.24883189233E+03  0.00000000000E+00 0.  1.
<scales pt_clust_5="13000.00000" pt_clust_6="13000.00000" pt_clust_7="13000.00000" pt_clust_8="13000.00000" pt_clust_9="49.91032"></scales>
<clustering>
<clus scale="   49.910">  2  9  1 -1</clus>
<clus scale="   88.691">  5  6 -1 -1</clus>
<clus scale="   91.475">  7  8 -1 -1</clus>
<clus scale="   92.929">  2  5  1 -1</clus>
<clus scale="   49.910">  2  5  1 -1</clus>
</clustering>
</event>
<event>
 9    1  0.1601012E-005  0.9283744E+02  0.7546771E-02  0.1296382E+00
         21   -1    0    0  501  502  0.00000000000E+00  0.00000000000E+00  0.11359125081E+03  0.11359125081E+03  0.00000000000E+00 0. -1.
          1   -1    0    0  502    0 -0.00000000000E+00 -0.00000000000E+00 -0.41088254751E+03  0.41088254751E+03  0.00000000000E+00 0. -1.
         23    2    1    2    0    0 -0.28078096360E+01  0.13573636737E+01 -0.28333033442E+03  0.29779953449E+03  0.91644738593E+02 0.  0.
         23    2    1    2    0    0  0.47896446487E+02 -0.30793313660E+02 -0.85339573786E+02  0.13726304247E+03  0.91192117098E+02 0.  0.
        -11    1    4    4    0    0 -0.10747416418E+02 -0.45729121676E+02 -0.36034003249E+02  0.59203960333E+02  0.00000000000E+00 0. -1.
         11    1    4    4    0    0  0.58643862905E+02  0.14935808016E+02 -0.49305570536E+02  0.78059082133E+02  0.00000000000E+00 0.  1.
        -11    1    3    3    0    0 -0.50395298833E+01  0.46329287687E+02 -0.13836668774E+03  0.14600390418E+03  0.00000000000E+00 0.  1.
         11    1    3    3    0    0  0.22317202473E+01 -0.44971924013E+02 -0.14496364668E+03  0.15179563031E+03  0.00000000000E+00 0. -1.
          1    1    1    2  501    0 -0.45088636851E+02  0.29435949987E+02  0.71378611506E+02  0.89411221360E+02  0.00000000000E+00 0. -1.
<scales pt_clust_5="13000.00000" pt_clust_6="13000.00000" pt_clust_7="13000.00000" pt_clust_8="13000.00000" pt_clust_9="53.84664"></scales>
<clustering>
<clus scale="   53.847">  1  9  2 -1</clus>
<clus scale="   91.192">  5  6 -1 -1</clus>
<clus scale="   91.645">  7  8 -1 -1</clus>
<clus scale="   92.391">  1  5  2 -1</clus>
<clus scale="   53.847">  1  5  2 -1</clus>
</clustering>
</event>
<event>
 9    1  0.1601012E-005  0.1485219E+03  0.7546771E-02  0.1202957E+00
         21   -1    0    0  501  502  0.00000000000E+00  0.00000000000E+00  0.67782295776E+02  0.67782295776E+02  0.00000000000E+00 0. -1.
         -3   -1    0    0    0  501 -0.00000000000E+00 -0.00000000000E+00 -0.61210715252E+03  0.61210715252E+03  0.00000000000E+00 0.  1.
         23    2    1    2    0    0 -0.57783635380E+02 -0.64478240679E+02 -0.19610928096E+03  0.23413607988E+03  0.94151270749E+02 0.  0.
         23    2    1    2    0    0  0.14109994284E+03  0.90930370682E+02 -0.23654074318E+03  0.30393450328E+03  0.90813726483E+02 0.  0.
        -13    1    3    3    0    0 -0.71913581501E+01  0.22161973258E+02 -0.64953591428E+02  0.69006070241E+02  0.00000000000E+00 0.  1.
         13    1    3    3    0    0 -0.50592277230E+02 -0.86640213937E+02 -0.13115568953E+03  0.16513000963E+03  0.00000000000E+00 0. -1.
        -13    1    4    4    0    0  0.68785821270E+02  0.92652646968E+02 -0.17119045196E+03  0.20645138178E+03  0.00000000000E+00 0.  1.
         13    1    4    4    0    0  0.72314121574E+02 -0.17222762859E+01 -0.65350291226E+02  0.97483121503E+02  0.00000000000E+00 0. -1.
         -3    1    1    2    0  502 -0.83316307465E+02 -0.26452130003E+02 -0.11167483261E+03  0.14181886514E+03  0.00000000000E+00 0.  1.
<scales pt_clust_5="13000.00000" pt_clust_6="13000.00000" pt_clust_7="13000.00000" pt_clust_8="13000.00000" pt_clust_9="87.41466"></scales>
<clustering>
<clus scale="   87.415">  1  9  2 -1</clus>
<clus scale="   90.814">  7  8 -1 -1</clus>
<clus scale="   94.151">  5  6 -1 -1</clus>
<clus scale="  146.429">  1  7  2 -1</clus>
<clus scale="   87.415">  1  5  2 -1</clus>
</clustering>
</event>
<event>
 9    1  0.1601012E-005  0.9939901E+02  0.7546771E-02  0.1286392E+00
         -2   -1    0    0    0  501 -0.00000000000E+00  0.00000000000E+00  0.35600046794E+03  0.35600046794E+03  0.00000000000E+00 0.  1.
         21   -1    0    0  501  502  0.00000000000E+00 -0.00000000000E+00 -0.50570187077E+02  0.50570187077E+02  0.00000000000E+00 0.  1.
         23    2    1    2    0    0  0.57679005620E+01  0.52984032397E+02  0.19033561680E+03  0.21382817754E+03  0.81573685209E+02 0.  0.
         23    2    1    2    0    0  0.14465946947E+02 -0.21180209918E+02  0.12200303422E+03  0.15441993467E+03  0.91120310321E+02 0.  0.
        -11    1    3    3    0    0 -0.21039117575E+02 -0.10566312823E+02  0.82730988981E+02  0.86015742587E+02  0.00000000000E+00 0. -1.
         11    1    3    3    0    0  0.26807018137E+02  0.63550345220E+02  0.10760462782E+03  0.12781243495E+03  0.00000000000E+00 0.  1.
        -11    1    4    4    0    0  0.52199232187E+02 -0.19839316128E+02  0.83845795977E+02  0.10073964368E+03  0.00000000000E+00 0.  1.
         11    1    4    4    0    0 -0.37733285241E+02 -0.13408937902E+01  0.38157238243E+02  0.53680290997E+02  0.00000000000E+00 0. -1.
         -2    1    1    2    0  502 -0.20233847509E+02 -0.31803822479E+02 -0.69083701556E+01  0.38322542811E+02  0.00000000000E+00 0.  1.
<scales pt_clust_5="13000.00000" pt_clust_6="13000.00000" pt_clust_7="13000.00000" pt_clust_8="13000.00000" pt_clust_9="37.69472"></scales>
<clustering>
<clus scale="   37.695">  2  9  1 -1</clus>
<clus scale="   81.574">  5  6 -1 -1</clus>
<clus scale="   90.728">  1  5  2 -1</clus>
<clus scale="   91.120">  7  8 -1 -1</clus>
<clus scale="   37.695">  2  5  1 -1</clus>
</clustering>
</event>
<event>
 9    1  0.1601012E-005  0.1267265E+03  0.7546771E-02  0.1233758E+00
         -1   -1    0    0    0  501 -0.00000000000E+00  0.00000000000E+00  0.86055427137E+03  0.86055427137E+03  0.00000000000E+00 0.  1.
         21   -1    0    0  501  502  0.00000000000E+00 -0.00000000000E+00 -0.14821295442E+03  0.14821295442E+03  0.00000000000E+00 0.  1.
         23    2    1    2    0    0  0.19961489877E+02  0.89573290464E+02  0.49796960728E+03  0.51486503349E+03  0.93222516014E+02 0.  0.
         23    2    1    2    0    0 -0.26290096772E+02 -0.62657837609E+02  0.34261011562E+03  0.36271689726E+03  0.97799194427E+02 0.  0.
        -11    1    4    4    0    0  0.36569684910E+02 -0.33869912510E+02  0.13608187468E+03  0.14492339164E+03  0.00000000000E+00 0.  1.
         11    1    4    4    0    0 -0.62859781682E+02 -0.28787925099E+02  0.20652824095E+03  0.21779350563E+03  0.00000000000E+00 0. -1.
        -13    1    3    3    0    0  0.42395705161E+02  0.79396740146E+02  0.46542556959E+03  0.47404873061E+03  0.00000000000E+00 0.  1.
         13    1    3    3    0    0 -0.22434215284E+02  0.10176550318E+02  0.32544037690E+02  0.40816302882E+02  0.00000000000E+00 0. -1.
         -1    1    1    2    0  502  0.63286068942E+01 -0.26915452855E+02 -0.12823840596E+03  0.13118529503E+03  0.00000000000E+00 0.  1.
<scales pt_clust_5="13000.00000" pt_clust_6="13000.00000" pt_clust_7="13000.00000" pt_clust_8="13000.00000" pt_clust_9="27.64946"></scales>
<clustering>
<clus scale="   27.649">  2  9  1 -1</clus>
<clus scale="   93.223">  7  8 -1 -1</clus>
<clus scale="   97.799">  5  6 -1 -1</clus>
<clus scale="  123.229">  1  7  2 -1</clus>
<clus scale="   27.649">  2  5  1 -1</clus>
</clustering>
</event>
<event>
 9    1  0.1601012E-005  0.1469604E+03  0.7546771E-02  0.1204315E+00
         21   -1    0    0  501  502  0.00000000000E+00  0.00000000000E+00  0.14331942281E+03  0.14331942281E+03  0.00000000000E+00 0.  1.
         -1   -1    0    0    0  501 -0.00000000000E+00 -0.00000000000E+00 -0.78872888966E+03  0.78872888966E+03  0.00000000000E+00 0.  1.
         23    2    1    2    0    0 -0.20304337699E+02 -0.13904768164E+03 -0.51454891277E+03  0.54105509134E+03  0.90738659526E+02 0.  0.
         23    2    1    2    0    0  0.63156905303E+00  0.87007703375E+02 -0.23868046897E+03  0.26966593149E+03  0.90446719181E+02 0.  0.
        -11    1    4    4    0    0  0.39324662777E+02  0.29732600274E+02 -0.14565699290E+03  0.15377391261E+03  0.00000000000E+00 0. -1.
         11    1    4    4    0    0 -0.38693093724E+02  0.57275103101E+02 -0.93023476079E+02  0.11589201888E+03  0.00000000000E+00 0.  1.
        -11    1    3    3    0    0 -0.31424646644E+02 -0.35522072732E+02 -0.70540374623E+02  0.85001591278E+02  0.00000000000E+00 0. -1.
         11    1    3    3    0    0  0.11120308945E+02 -0.10352560891E+03 -0.44400853814E+03  0.45605350006E+03  0.00000000000E+00 0.  1.
         -1    1    1    2    0  502  0.19672768646E+02  0.52039978269E+02  0.10781991489E+03  0.12132728964E+03  0.00000000000E+00 0.  1.
<scales pt_clust_5="13000.00000" pt_clust_6="13000.00000" pt_clust_7="13000.00000" pt_clust_8="13000.00000" pt_clust_9="55.63432"></scales>
<clustering>
<clus scale="   55.634">  1  9  2 -1</clus>
<clus scale="   90.447">  5  6 -1 -1</clus>
<clus scale="   90.739">  7  8 -1 -1</clus>
<clus scale="  146.780">  1  5  2 -1</clus>
<clus scale="   55.634">  1  5  2 -1</clus>
</clustering>
</event>
<event>
 9    1  0.1601012E-005  0.1474743E+03  0.7546771E-02  0.1217085E+00
         21   -1    0    0  501  502  0.00000000000E+00  0.00000000000E+00  0.35858904415E+03  0.35858904415E+03  0.00000000000E+00 0.  1.
         -2   -1    0    0    0  501 -0.00000000000E+00 -0.00000000000E+00 -0.36014792224E+03  0.36014792224E+03  0.00000000000E+00 0.  1.
         23    2    1    2    0    0  0.64970076821E+02  0.71841832485E+01 -0.14155987905E+03  0.17965505690E+03  0.89241339882E+02 0.  0.
         23    2    1    2    0    0 -0.17247155377E+03 -0.49183196748E+02 -0.13506979854E+03  0.24077932919E+03  0.86979372192E+02 0.  0.
        -13    1    4    4    0    0 -0.24855329552E+02  0.21829396789E+02 -0.96163787877E+01  0.34449741832E+02  0.00000000000E+00 0. -1.
         13    1    4    4    0    0 -0.14761622422E+03 -0.71012593537E+02 -0.12545341975E+03  0.20632958736E+03  0.00000000000E+00 0.  1.
        -13    1    3    3    0    0  0.34998507375E+02 -0.21431604351E+02 -0.13044982900E+03  0.13675294172E+03  0.00000000000E+00 0.  1.
         13    1    3    3    0    0  0.29971569446E+02  0.28615787600E+02 -0.11110050048E+02  0.42902115181E+02  0.00000000000E+00 0. -1.
         -2    1    1    2    0  502  0.10750147695E+03  0.41999013500E+02  0.27507079949E+03  0.29830258030E+03  0.00000000000E+00 0.  1.
<scales pt_clust_5="13000.00000" pt_clust_6="13000.00000" pt_clust_7="13000.00000" pt_clust_8="13000.00000" pt_clust_9="119.09349"></scales>
<clustering>
<clus scale="   86.979">  5  6 -1 -1</clus>
<clus scale="   89.241">  7  8 -1 -1</clus>
<clus scale="  110.620">  2  7  1 -1</clus>
<clus scale="  119.093">  1  9  2 -1</clus>
<clus scale="  119.093">  1  5  2 -1</clus>
</clustering>
</event>
<event>
 9    1  0.1601012E-005  0.9430907E+02  0.7546771E-02  0.1302989E+00
          4   -1    0    0  502    0 -0.00000000000E+00  0.00000000000E+00  0.10752469134E+03  0.10752469134E+03  0.00000000000E+00 0. -1.
         21   -1    0    0  501  502  0.00000000000E+00 -0.00000000000E+00 -0.13306073011E+03  0.13306073011E+03  0.00000000000E+00 0. -1.
         23    2    1    2    0    0  0.14572206251E+02 -0.11597325626E+02  0.26081988798E+02  0.94845671936E+02  0.89266926623E+02 0.  0.
         23    2    1    2    0    0 -0.56582559626E+02 -0.16347198858E+01 -0.27431361592E+02  0.95490852708E+02  0.71845424274E+02 0.  0.
        -11    1    4    4    0    0 -0.36337319947E+02 -0.52391662524E+01 -0.51872354816E+02  0.63549908561E+02  0.00000000000E+00 0. -1.
         11    1    4    4    0    0 -0.20245239679E+02  0.36044463666E+01  0.24440993224E+02  0.31940944147E+02  0.00000000000E+00 0.  1.
        -13    1    3    3    0    0 -0.29791285786E+02 -0.29661023393E+02  0.20022320640E+02  0.46563830827E+02  0.00000000000E+00 0. -1.
         13    1    3    3    0    0  0.44363492036E+02  0.18063697767E+02  0.60596681576E+01  0.48281841109E+02  0.00000000000E+00 0.  1.
          4    1    1    2  501    0  0.42010353376E+02  0.13232045511E+02 -0.24186665973E+02  0.50248896804E+02  0.00000000000E+00 0. -1.
<scales pt_clust_5="13000.00000" pt_clust_6="13000.00000" pt_clust_7="13000.00000" pt_clust_8="13000.00000" pt_clust_9="44.04494"></scales>
<clustering>
<clus scale="   44.045">  2  9  1 -1</clus>
<clus scale="   71.845">  5  6 -1 -1</clus>
<clus scale="   78.022">  2  5  1 -1</clus>
<clus scale="   89.267">  7  8 -1 -1</clus>
<clus scale="   44.045">  2  5  1 -1</clus>
</clustering>
</event>
<event>
 9    1  0.1601012E-005  0.1157332E+03  0.7546771E-02  0.1250949E+00
         21   -1    0    0  501  502  0.00000000000E+00  0.00000000000E+00  0.28830863404E+03  0.28830863404E+03  0.00000000000E+00 0.  1.
          1   -1    0    0  502    0 -0.00000000000E+00 -0.00000000000E+00 -0.15511338135E+03  0.15511338135E+03  0.00000000000E+00 0. -1.
         23    2    1    2    0    0 -0.13563408150E+02 -0.72108318854E+02 -0.11362824311E+03  0.16333033246E+03  0.91552412207E+02 0.  0.
         23    2    1    2    0    0  0.19322670863E+02  0.49192217128E+02  0.16647609605E+03  0.19634192788E+03  0.89680668228E+02 0.  0.
        -11    1    4    4    0    0 -0.31853404744E+02  0.41498691936E+02  0.86046900666E+02  0.10070178718E+03  0.00000000000E+00 0. -1.
         11    1    4    4    0    0  0.51176075607E+02  0.76935251918E+01  0.80429195382E+02  0.95640140706E+02  0.00000000000E+00 0.  1.
        -11    1    3    3    0    0  0.20436038818E+02 -0.16372356404E+02 -0.90268130058E+02  0.93989473033E+02  0.00000000000E+00 0.  1.
         11    1    3    3    0    0 -0.33999446968E+02 -0.55735962450E+02 -0.23360113050E+02  0.69340859426E+02  0.00000000000E+00 0. -1.
          1    1    1    2  501    0 -0.57592627135E+01  0.22916101726E+02  0.80347399743E+02  0.83749755049E+02  0.00000000000E+00 0. -1.
<scales pt_clust_5="13000.00000" pt_clust_6="13000.00000" pt_clust_7="13000.00000" pt_clust_8="13000.00000" pt_clust_9="23.62873"></scales>
<clustering>
<clus scale="   23.629">  1  9  2 -1</clus>
<clus scale="   89.681">  5  6 -1 -1</clus>
<clus scale="   91.552">  7  8 -1 -1</clus>
<clus scale="  114.258">  1  5  2 -1</clus>
<clus scale="   23.629">  1  5  2 -1</clus>
</clustering>
</event>
<event>
 9    1  0.1601012E-005  0.9400979E+02  0.7546771E-02  0.1293964E+00
         21   -1    0    0  501  502  0.00000000000E+00  0.00000000000E+00  0.10797294094E+03  0.10797294094E+03  0.00000000000E+00 0. -1.
         -1   -1    0    0    0  501 -0.00000000000E+00 -0.00000000000E+00 -0.24857234283E+03  0.24857234283E+03  0.00000000000E+00 0.  1.
         23    2    1    2    0    0  0.13809935636E+01 -0.68880287516E+01 -0.15889417354E+03  0.18351587876E+03  0.91549807693E+02 0.  0.
         23    2    1    2    0    0  0.26601527112E+02  0.53163412123E+02 -0.12706450885E+02  0.11069555893E+03  0.92509800778E+02 0.  0.
        -11    1    3    3    0    0 -0.37814329482E+02  0.27547445162E+01 -0.29697655090E+02  0.48160802001E+02  0.00000000000E+00 0. -1.
         11    1    3    3    0    0  0.39195323045E+02 -0.96427732678E+01 -0.12919651845E+03  0.13535507676E+03  0.00000000000E+00 0.  1.
        -11    1    4    4    0    0 -0.28049666283E+02 -0.20545898281E+01  0.98454442606E+01  0.29798286706E+02  0.00000000000E+00 0.  1.
         11    1    4    4    0    0  0.54651193395E+02  0.55218001951E+02 -0.22551895146E+02  0.80897272226E+02  0.00000000000E+00 0. -1.
         -1    1    1    2    0  502 -0.27982520676E+02 -0.46275383371E+02  0.31001222522E+02  0.62333846082E+02  0.00000000000E+00 0.  1.
<scales pt_clust_5="13000.00000" pt_clust_6="13000.00000" pt_clust_7="13000.00000" pt_clust_8="13000.00000" pt_clust_9="54.07802"></scales>
<clustering>
<clus scale="   54.078">  1  9  2 -1</clus>
<clus scale="   91.550">  5  6 -1 -1</clus>
<clus scale="   92.510">  7  8 -1 -1</clus>
<clus scale="   93.065">  2  5  1 -1</clus>
<clus scale="   54.078">  1  5  2 -1</clus>
</clustering>
</event>
<event>
 9    1  0.1601012E-005  0.9440315E+02  0.7546771E-02  0.1292711E+00
          1   -1    0    0  502    0 -0.00000000000E+00  0.00000000000E+00  0.21971132474E+03  0.21971132474E+03  0.00000000000E+00 0. -1.
         21   -1    0    0  501  502  0.00000000000E+00 -0.00000000000E+00 -0.10526730185E+03  0.10526730185E+03  0.00000000000E+00 0.  1.
         23    2    1    2    0    0 -0.37274117203E+02  0.94651238135E+01  0.12780230337E+03  0.16148234946E+03  0.90907491760E+02 0.  0.
         23    2    1    2    0    0 -0.21590397459E+02  0.19697152408E+02 -0.18589422748E+02  0.97596092836E+02  0.91243123704E+02 0.  0.
        -11    1    4    4    0    0 -0.46234642886E+02 -0.16179651967E+02  0.28698628664E+01  0.49067906553E+02  0.00000000000E+00 0.  1.
         11    1    4    4    0    0  0.24644245427E+02  0.35876804375E+02 -0.21459285614E+02  0.48528186283E+02  0.00000000000E+00 0. -1.
        -11    1    3    3    0    0 -0.43228687348E+02  0.42815126167E+02  0.58801321840E+02  0.84613532539E+02  0.00000000000E+00 0. -1.
         11    1    3    3    0    0  0.59545701451E+01 -0.33350002354E+02  0.69000981533E+02  0.76868816923E+02  0.00000000000E+00 0.  1.
          1    1    1    2  501    0  0.58864514662E+02 -0.29162276221E+02  0.52311422576E+01  0.65900184295E+02  0.00000000000E+00 0. -1.
<scales pt_clust_5="13000.00000" pt_clust_6="13000.00000" pt_clust_7="13000.00000" pt_clust_8="13000.00000" pt_clust_9="65.69223"></scales>
<clustering>
<clus scale="   65.692">  2  9  1 -1</clus>
<clus scale="   90.907">  7  8 -1 -1</clus>
<clus scale="   91.243">  5  6 -1 -1</clus>
<clus scale="   94.079">  1  7  2 -1</clus>
<clus scale="   65.692">  2  5  1 -1</clus>
</clustering>
</event>
<event>
 9    1  0.1601012E-005  0.9695565E+02  0.7546771E-02  0.1287025E+00
          3   -1    0    0  502    0 -0.00000000000E+00  0.00000000000E+00  0.38879328297E+03  0.38879328297E+03  0.00000000000E+00 0. -1.
         21   -1    0    0  501  502  0.00000000000E+00 -0.00000000000E+00 -0.32128127978E+02  0.32128127978E+02  0.00000000000E+00 0.  1.
         23    2    1    2    0    0 -0.25166666113E+02  0.24809441211E+01  0.17515152035E+03  0.19916088825E+03  0.91364589209E+02 0.  0.
         23    2    1    2    0    0  0.40010124707E+02  0.18303052111E+02  0.15415347287E+03  0.18433217496E+03  0.90990360647E+02 0.  0.
        -11    1    4    4    0    0 -0.86217662419E+01  0.43430697771E+02  0.87636412771E+02  0.98187072496E+02  0.00000000000E+00 0. -1.
         11    1    4    4    0    0  0.48631890949E+02 -0.25127645660E+02  0.66517060099E+02  0.86145102460E+02  0.00000000000E+00 0.  1.
        -13    1    3    3    0    0  0.22290984300E+02  0.83695745956E+01  0.77151540566E+01  0.25029210177E+02  0.00000000000E+00 0.  1.
         13    1    3    3    0    0 -0.47457650413E+02 -0.58886304745E+01  0.16743636629E+03  0.17413167807E+03  0.00000000000E+00 0. -1.
          3    1    1    2  501    0 -0.14843458594E+02 -0.20783996232E+02  0.27360161775E+02  0.37428347743E+02  0.00000000000E+00 0. -1.
<scales pt_clust_5="13000.00000" pt_clust_6="13000.00000" pt_clust_7="13000.00000" pt_clust_8="13000.00000" pt_clust_9="25.54022"></scales>
<clustering>
<clus scale="   25.540">  2  9  1 -1</clus>
<clus scale="   90.990">  5  6 -1 -1</clus>
<clus scale="   91.365">  7  8 -1 -1</clus>
<clus scale="   96.603">  2  5  1 -1</clus>
<clus scale="   25.540">  2  5  1 -1</clus>
</clustering>
</event>
<event>
 9    1  0.1601012E-005  0.1382825E+03  0.7546771E-02  0.1223452E+00
         21   -1    0    0  501  502  0.00000000000E+00  0.00000000000E+00  0.39425364169E+03  0.39425364169E+03  0.00000000000E+00 0. -1.
          1   -1    0    0  502    0 -0.00000000000E+00 -0.00000000000E+00 -0.16240928380E+03  0.16240928380E+03  0.00000000000E+00 0. -1.
         23    2    1    2    0    0 -0.12632382908E+02 -0.72934036586E+02 -0.74890440918E+02  0.13924754787E+03  0.91117235786E+02 0.  0.
         23    2    1    2    0    0  0.85231023861E+02 -0.39698643092E+02  0.22411457671E+03  0.25998988953E+03  0.92342240990E+02 0.  0.
        -13    1    3    3    0    0 -0.43959319348E+02 -0.66780470899E+02 -0.71292417691E+02  0.10711984817E+03  0.00000000000E+00 0. -1.
         13    1    3    3    0    0  0.31326936440E+02 -0.61535656875E+01 -0.35980232279E+01  0.32127699708E+02  0.00000000000E+00 0.  1.
        -13    1    4    4    0    0  0.63527738539E+02 -0.69476868943E+02  0.14764219552E+03  0.17510290340E+03  0.00000000000E+00 0. -1.
         13    1    4    4    0    0  0.21703285322E+02  0.29778225851E+02  0.76472381188E+02  0.84886986124E+02  0.00000000000E+00 0.  1.
          1    1    1    2  501    0 -0.72598640953E+02  0.11263267968E+03  0.82620222093E+02  0.15742548808E+03  0.00000000000E+00 0. -1.
<scales pt_clust_5="13000.00000" pt_clust_6="13000.00000" pt_clust_7="13000.00000" pt_clust_8="13000.00000" pt_clust_9="102.93185"></scales>
<clustering>
<clus scale="   91.117">  5  6 -1 -1</clus>
<clus scale="   92.342">  7  8 -1 -1</clus>
<clus scale="  117.394">  2  5  1 -1</clus>
<clus scale="  102.932">  1  9  2 -1</clus>
<clus scale="  102.932">  1  5  2 -1</clus>
</clustering>
</event>
<event>
 9    1  0.1601012E-005  0.1368934E+03  0.7546771E-02  0.1217601E+00
         -1   -1    0    0    0  501 -0.00000000000E+00  0.00000000000E+00  0.44619895889E+03  0.44619895889E+03  0.00000000000E+00 0.  1.
         21   -1    0    0  501  502  0.00000000000E+00 -0.00000000000E+00 -0.93952672504E+02  0.93952672504E+02  0.00000000000E+00 0. -1.
         23    2    1    2    0    0  0.10629231397E+03  0.43896059325E+01  0.32538812923E+03  0.35416370641E+03  0.90758865397E+02 0.  0.
         23    2    1    2    0    0 -0.85087581430E+02  0.42134450722E+02  0.86758907773E+01  0.13172261985E+03  0.90886572436E+02 0.  0.
        -11    1    3    3    0    0 -0.11122025176E+02  0.18416423746E+02  0.46050560476E+02  0.50828321119E+02  0.00000000000E+00 0. -1.
         11    1    3    3    0    0  0.11741433915E+03 -0.14026817813E+02  0.27933756875E+03  0.30333538529E+03  0.00000000000E+00 0.  1.
        -11    1    4    4    0    0 -0.11488072625E+02 -0.27656797215E+02  0.30444986276E+00  0.29949406247E+02  0.00000000000E+00 0.  1.
         11    1    4    4    0    0 -0.73599508805E+02  0.69791247937E+02  0.83714409146E+01  0.10177321361E+03  0.00000000000E+00 0. -1.
         -1    1    1    2    0  502 -0.21204732543E+02 -0.46524056654E+02  0.18182266381E+02  0.54265305127E+02  0.00000000000E+00 0.  1.
<scales pt_clust_5="13000.00000" pt_clust_6="13000.00000" pt_clust_7="13000.00000" pt_clust_8="13000.00000" pt_clust_9="51.12855"></scales>
<clustering>
<clus scale="   51.129">  2  9  1 -1</clus>
<clus scale="   90.759">  5  6 -1 -1</clus>
<clus scale="   90.887">  7  8 -1 -1</clus>
<clus scale="  136.809">  1  5  2 -1</clus>
<clus scale="   51.129">  2  5  1 -1</clus>
</clustering>
</event>
<event>
 9    1  0.1601012E-005  0.9516629E+02  0.7546771E-02  0.1291401E+00
          1   -1    0    0  502    0 -0.00000000000E+00  0.00000000000E+00  0.30502748415E+03  0.30502748415E+03  0.00000000000E+00 0. -1.
         21   -1    0    0  501  502  0.00000000000E+00 -0.00000000000E+00 -0.40381608794E+02  0.40381608794E+02  0.00000000000E+00 0.  1.
         23    2    1    2    0    0  0.95941090628E+01 -0.22322468200E+02  0.13144252291E+03  0.16236217918E+03  0.92162904061E+02 0.  0.
         23    2    1    2    0    0  0.16595377326E+02  0.24848196143E+02  0.12009067802E+03  0.15364945249E+03  0.91068896451E+02 0.  0.
        -13    1    4    4    0    0  0.41345464426E+02  0.38998298694E+02  0.10924738841E+03  0.12314749938E+03  0.00000000000E+00 0. -1.
         13    1    4    4    0    0 -0.24750087100E+02 -0.14150102550E+02  0.10843289617E+02  0.30501953107E+02  0.00000000000E+00 0.  1.
        -13    1    3    3    0    0 -0.40958505984E+02 -0.36982285910E+01  0.63468354459E+02  0.75627429713E+02  0.00000000000E+00 0.  1.
         13    1    3    3    0    0  0.50552615047E+02 -0.18624239609E+02  0.67974168447E+02  0.86734749467E+02  0.00000000000E+00 0. -1.
          1    1    1    2  501    0 -0.26189486389E+02 -0.25257279431E+01  0.13112674425E+02  0.29397461277E+02  0.00000000000E+00 0. -1.
<scales pt_clust_5="13000.00000" pt_clust_6="13000.00000" pt_clust_7="13000.00000" pt_clust_8="13000.00000" pt_clust_9="26.31100"></scales>
<clustering>
<clus scale="   26.311">  2  9  1 -1</clus>
<clus scale="   91.069">  5  6 -1 -1</clus>
<clus scale="   92.163">  7  8 -1 -1</clus>
<clus scale="   94.107">  2  5  1 -1</clus>
<clus scale="   26.311">  2  5  1 -1</clus>
</clustering>
</event>
<event>
 9    1  0.1601012E-005  0.1349044E+03  0.7546771E-02  0.1221758E+00
         21   -1    0    0  501  502  0.00000000000E+00  0.00000000000E+00  0.26257418660E+02  0.26257418660E+02  0.00000000000E+00 0.  1.
          2   -1    0    0  502    0 -0.00000000000E+00 -0.00000000000E+00 -0.12444505697E+04  0.12444505697E+04  0.00000000000E+00 0. -1.
         23    2    1    2    0    0 -0.53526456566E+02 -0.55135108831E+02 -0.41995090571E+03  0.43714655410E+03  0.93986088206E+02 0.  0.
         23    2    1    2    0    0  0.69501065157E+02  0.11443710478E+03 -0.40576855046E+03  0.43631149278E+03  0.88279970419E+02 0.  0.
        -11    1    4    4    0    0  0.34115736044E+02  0.84063465256E+01 -0.19090188422E+03  0.19410842204E+03  0.00000000000E+00 0. -1.
         11    1    4    4    0    0  0.35385329113E+02  0.10603075826E+03 -0.21486666623E+03  0.24220307073E+03  0.00000000000E+00 0.  1.
        -11    1    3    3    0    0  0.20138168517E+02 -0.97221536881E+01 -0.28403335248E+02  0.36149903967E+02  0.00000000000E+00 0.  1.
         11    1    3    3    0    0 -0.73664625084E+02 -0.45412955143E+02 -0.39154757046E+03  0.40099665013E+03  0.00000000000E+00 0. -1.
          2    1    1    2  501    0 -0.15974608591E+02 -0.59301995954E+02 -0.39247369489E+03  0.39724994151E+03  0.00000000000E+00 0. -1.
<scales pt_clust_5="13000.00000" pt_clust_6="13000.00000" pt_clust_7="13000.00000" pt_clust_8="13000.00000" pt_clust_9="61.41595"></scales>
<clustering>
<clus scale="   61.416">  1  9  2 -1</clus>
<clus scale="   88.280">  5  6 -1 -1</clus>
<clus scale="   93.986">  7  8 -1 -1</clus>
<clus scale="  130.993">  1  5  2 -1</clus>
<clus scale="   61.416">  1  5  2 -1</clus>
</clustering>
</event>
<event>
 9    1  0.1601012E-005  0.9489406E+02  0.7546771E-02  0.1295937E+00
         21   -1    0    0  501  502  0.00000000000E+00  0.00000000000E+00  0.98403371824E+02  0.98403371824E+02  0.00000000000E+00 0.  1.
         -1   -1    0    0    0  501 -0.00000000000E+00 -0.00000000000E+00 -0.42100575330E+03  0.42100575330E+03  0.00000000000E+00 0.  1.
         23    2    1    2    0    0  0.16798494771E+01  0.19048673160E+02 -0.20405826046E+03  0.22272879945E+03  0.87193294458E+02 0.  0.
         23    2    1    2    0    0 -0.29120012919E+01  0.21032338534E+02 -0.19074781998E+03  0.21408868058E+03  0.94859861436E+02 0.  0.
        -11    1    4    4    0    0  0.38970026321E+02  0.35631824338E+02 -0.10705398589E+03  0.11936852916E+03  0.00000000000E+00 0.  1.
         11    1    4    4    0    0 -0.41882027613E+02 -0.14599485804E+02 -0.83693834085E+02  0.94720151428E+02  0.00000000000E+00 0. -1.
        -11    1    3    3    0    0  0.37111938101E+02 -0.45063982493E+01 -0.14623992881E+03  0.15094277178E+03  0.00000000000E+00 0.  1.
         11    1    3    3    0    0 -0.35432088624E+02  0.23555071409E+02 -0.57818331646E+02  0.71786027664E+02  0.00000000000E+00 0. -1.
         -1    1    1    2    0  502  0.12321518148E+01 -0.40081011694E+02  0.72203698958E+02  0.82591645097E+02  0.00000000000E+00 0.  1.
<scales pt_clust_5="13000.00000" pt_clust_6="13000.00000" pt_clust_7="13000.00000" pt_clust_8="13000.00000" pt_clust_9="40.09995"></scales>
<clustering>
<clus scale="   40.100">  1  9  2 -1</clus>
<clus scale="   87.193">  7  8 -1 -1</clus>
<clus scale="   87.230">  2  7  1 -1</clus>
<clus scale="   94.860">  5  6 -1 -1</clus>
<clus scale="   40.100">  1  5  2 -1</clus>
</clustering>
</event>
<event>
 9    1  0.1601012E-005  0.1028205E+03  0.7546771E-02  0.1275130E+00
         21   -1    0    0  501  502  0.00000000000E+00  0.00000000000E+00  0.83173260617E+02  0.83173260617E+02  0.00000000000E+00 0.  1.
         -3   -1    0    0    0  501 -0.00000000000E+00 -0.00000000000E+00 -0.20559659283E+03  0.20559659283E+03  0.00000000000E+00 0.  1.
         23    2    1    2    0    0  0.59842277570E+01 -0.49229499909E+02 -0.12531426884E+03  0.16320431711E+03  0.92046882110E+02 0.  0.
         23    2    1    2    0    0 -0.13806907326E+02  0.22433849358E+02  0.69731857989E+01  0.97354439898E+02  0.93463112299E+02 0.  0.
        -11    1    4    4    0    0  0.36151949594E+02  0.29437273975E+02  0.46744046970E+01  0.46854739545E+02  0.00000000000E+00 0. -1.
         11    1    4    4    0    0 -0.49958856921E+02 -0.70034246172E+01  0.22987811019E+01  0.50499700353E+02  0.00000000000E+00 0.  1.
        -13    1    3    3    0    0  0.11383369408E+02 -0.75645552436E+02 -0.81649373817E+02  0.11188588359E+03  0.00000000000E+00 0.  1.
         13    1    3    3    0    0 -0.53991416513E+01  0.26416052527E+02 -0.43664895022E+02  0.51318433520E+02  0.00000000000E+00 0. -1.
         -3    1    1    2    0  502  0.78226795694E+01  0.26795650551E+02 -0.40822491773E+01  0.28211096442E+02  0.00000000000E+00 0.  1.
<scales pt_clust_5="13000.00000" pt_clust_6="13000.00000" pt_clust_7="13000.00000" pt_clust_8="13000.00000" pt_clust_9="27.91418"></scales>
<clustering>
<clus scale="   27.914">  1  9  2 -1</clus>
<clus scale="   92.047">  7  8 -1 -1</clus>
<clus scale="   93.463">  5  6 -1 -1</clus>
<clus scale="  101.535">  2  7  1 -1</clus>
<clus scale="   27.914">  1  5  2 -1</clus>
</clustering>
</event>
<event>
 9    1  0.1601012E-005  0.1168331E+03  0.7546771E-02  0.1248885E+00
          2   -1    0    0  502    0 -0.00000000000E+00  0.00000000000E+00  0.73843664624E+03  0.73843664624E+03  0.00000000000E+00 0. -1.
         21   -1    0    0  501  502  0.00000000000E+00 -0.00000000000E+00 -0.26382917121E+02  0.26382917121E+02  0.00000000000E+00 0. -1.
         23    2    1    2    0    0  0.45982119609E+02  0.54442178194E+02  0.40168121632E+03  0.41823197330E+03  0.92151385530E+02 0.  0.
         23    2    1    2    0    0 -0.18431061839E+02 -0.75545067629E+02  0.24320135645E+03  0.27098099662E+03  0.90758137189E+02 0.  0.
        -11    1    3    3    0    0 -0.96501325300E+01  0.59772144805E+02  0.21546242368E+03  0.22380770847E+03  0.00000000000E+00 0.  1.
         11    1    3    3    0    0  0.55632252139E+02 -0.53299666108E+01  0.18621879264E+03  0.19442426483E+03  0.00000000000E+00 0. -1.
        -13    1    4    4    0    0  0.34715368862E+02 -0.33245856025E+02  0.13419311585E+03  0.14254205036E+03  0.00000000000E+00 0. -1.
         13    1    4    4    0    0 -0.53146430701E+02 -0.42299211604E+02  0.10900824060E+03  0.12843894626E+03  0.00000000000E+00 0.  1.
          2    1    1    2  501    0 -0.27551057770E+02  0.21102889435E+02  0.67171156360E+02  0.75606593453E+02  0.00000000000E+00 0. -1.
<scales pt_clust_5="13000.00000" pt_clust_6="13000.00000" pt_clust_7="13000.00000" pt_clust_8="13000.00000" pt_clust_9="34.70436"></scales>
<clustering>
<clus scale="   34.704">  2  9  1 -1</clus>
<clus scale="   90.758">  7  8 -1 -1</clus>
<clus scale="   92.151">  5  6 -1 -1</clus>
<clus scale="  115.737">  2  7  1 -1</clus>
<clus scale="   34.704">  2  5  1 -1</clus>
</clustering>
</event>
<event>
 9    1  0.1601012E-005  0.2204382E+03  0.7546771E-02  0.1133645E+00
         21   -1    0    0  501  502  0.00000000000E+00  0.00000000000E+00  0.41914331929E+03  0.41914331929E+03  0.00000000000E+00 0.  1.
          2   -1    0    0  502    0 -0.00000000000E+00 -0.00000000000E+00 -0.14048854404E+03  0.14048854404E+03  0.00000000000E+00 0. -1.
         23    2    1    2    0    0  0.16053067834E+03  0.14667043207E+03  0.85068188223E+02  0.25051463469E+03  0.90767126284E+02 0.  0.
         23    2    1    2    0    0 -0.13572696751E+03 -0.11797867200E+03  0.15153151203E+03  0.25248622565E+03  0.91906029447E+02 0.  0.
        -11    1    4    4    0    0 -0.12393746773E+03 -0.89443873933E+02  0.75598419817E+02  0.17051634399E+03  0.00000000000E+00 0. -1.
         11    1    4    4    0    0 -0.11789499789E+02 -0.28534798062E+02  0.75933092212E+02  0.81969881656E+02  0.00000000000E+00 0.  1.
        -13    1    3    3    0    0  0.15997703631E+03  0.10079696772E+03  0.60825134258E+02  0.19862622638E+03  0.00000000000E+00 0.  1.
         13    1    3    3    0    0  0.55364202543E+00  0.45873464354E+02  0.24243053965E+02  0.51888408309E+02  0.00000000000E+00 0. -1.
          2    1    1    2  501    0 -0.24803710821E+02 -0.28691760078E+02  0.42055075000E+02  0.56631002994E+02  0.00000000000E+00 0. -1.
<scales pt_clust_5="13000.00000" pt_clust_6="13000.00000" pt_clust_7="13000.00000" pt_clust_8="13000.00000" pt_clust_9="37.92679"></scales>
<clustering>
<clus scale="   37.927">  1  9  2 -1</clus>
<clus scale="   90.767">  7  8 -1 -1</clus>
<clus scale="   91.906">  5  6 -1 -1</clus>
<clus scale="  219.966">  2  7  1 -1</clus>
<clus scale="   37.927">  1  5  2 -1</clus>
</clustering>
</event>
<event>
 9    1  0.1601012E-005  0.1447252E+03  0.7546771E-02  0.1207582E+00
          1   -1    0    0  502    0 -0.00000000000E+00  0.00000000000E+00  0.27170819749E+03  0.27170819749E+03  0.00000000000E+00 0. -1.
         21   -1    0    0  501  502  0.00000000000E+00 -0.00000000000E+00 -0.10870991703E+03  0.10870991703E+03  0.00000000000E+00 0.  1.
         23    2    1    2    0    0  0.33847766871E+02 -0.10768477157E+03  0.14067884482E+03  0.20249076636E+03  0.92034187844E+02 0.  0.
         23    2    1    2    0    0 -0.16035611052E+01  0.10689041597E+03  0.27739625347E+02  0.14522110620E+03  0.94295018093E+02 0.  0.
        -13    1    3    3    0    0  0.61705498060E+02 -0.74047178729E+02  0.68946154543E+02  0.11850791279E+03  0.00000000000E+00 0.  1.
         13    1    3    3    0    0 -0.27857731189E+02 -0.33637592839E+02  0.71732690278E+02  0.83982853568E+02  0.00000000000E+00 0. -1.
        -13    1    4    4    0    0  0.43788511778E+02  0.60189899838E+02  0.29514672755E+02  0.80071054159E+02  0.00000000000E+00 0.  1.
         13    1    4    4    0    0 -0.45392072884E+02  0.46700516132E+02 -0.17750474077E+01  0.65150052041E+02  0.00000000000E+00 0. -1.
          1    1    1    2  501    0 -0.32244205766E+02  0.79435559741E+00 -0.54201897091E+01  0.32706241954E+02  0.00000000000E+00 0. -1.
<scales pt_clust_5="13000.00000" pt_clust_6="13000.00000" pt_clust_7="13000.00000" pt_clust_8="13000.00000" pt_clust_9="32.25399"></scales>
<clustering>
<clus scale="   32.254">  2  9  1 -1</clus>
<clus scale="   92.034">  5  6 -1 -1</clus>
<clus scale="   94.295">  7  8 -1 -1</clus>
<clus scale="  143.262">  1  5  2 -1</clus>
<clus scale="   32.254">  2  5  1 -1</clus>
</clustering>
</event>
<event>
 9    1  0.1601012E-005  0.2047748E+03  0.7546771E-02  0.1155080E+00
         21   -1    0    0  501  502  0.00000000000E+00  0.00000000000E+00  0.26610844579E+03  0.26610844579E+03  0.00000000000E+00 0.  1.
         -1   -1    0    0    0  501 -0.00000000000E+00 -0.00000000000E+00 -0.37581868577E+03  0.37581868577E+03  0.00000000000E+00 0.  1.
         23    2    1    2    0    0  0.15730722657E+02  0.13767167639E+03 -0.15571510421E+03  0.22634657078E+03  0.88230552027E+02 0.  0.
         23    2    1    2    0    0 -0.18602519886E+03 -0.33354933185E+02 -0.12805504514E+01  0.21035360841E+03  0.92352989034E+02 0.  0.
        -11    1    3    3    0    0 -0.30296761521E+02  0.69208337794E+02 -0.43853433763E+02  0.87354515806E+02  0.00000000000E+00 0. -1.
         11    1    3    3    0    0  0.46027484178E+02  0.68463338591E+02 -0.11186167045E+03  0.13899205498E+03  0.00000000000E+00 0.  1.
        -11    1    4    4    0    0 -0.12997443189E+03 -0.85686476530E+01 -0.41898157833E+02  0.13682920118E+03  0.00000000000E+00 0.  1.
         11    1    4    4    0    0 -0.56050766974E+02 -0.24786285532E+02  0.40617607381E+02  0.73524407228E+02  0.00000000000E+00 0. -1.
         -1    1    1    2    0  502  0.17029447620E+03 -0.10431674320E+03  0.47285414682E+02  0.20522695237E+03  0.00000000000E+00 0.  1.
<scales pt_clust_5="13000.00000" pt_clust_6="13000.00000" pt_clust_7="13000.00000" pt_clust_8="13000.00000" pt_clust_9="182.76662"></scales>
<clustering>
<clus scale="   88.231">  5  6 -1 -1</clus>
<clus scale="   92.353">  7  8 -1 -1</clus>
<clus scale="  164.273">  2  5  1 -1</clus>
<clus scale="  182.767">  1  9  2 -1</clus>
<clus scale="  182.767">  1  5  2 -1</clus>
</clustering>
</event>
<event>
 9    1  0.1601012E-005  0.1009883E+03  0.7546771E-02  0.1279338E+00
         21   -1    0    0  501  502  0.00000000000E+00  0.00000000000E+00  0.14469832819E+03  0.14469832819E+03  0.00000000000E+00 0. -1.
         -3   -1    0    0    0  501 -0.00000000000E+00 -0.00000000000E+00 -0.11383217559E+03  0.11383217559E+03  0.00000000000E+00 0.  1.
         23    2    1    2    0    0  0.12704715339E+02 -0.37061928886E+02 -0.44075101918E+02  0.10901903406E+03  0.91692632271E+02 0.  0.
         23    2    1    2    0    0 -0.36079924795E+02  0.39271357298E+02  0.50687686578E+02  0.11575472893E+03  0.89363948112E+02 0.  0.
        -11    1    4    4    0    0 -0.37721167011E+02 -0.15187168198E+02 -0.96985229790E+00  0.40675264376E+02  0.00000000000E+00 0.  1.
         11    1    4    4    0    0  0.16412422165E+01  0.54458525496E+02  0.51657538876E+02  0.75079464556E+02  0.00000000000E+00 0. -1.
        -13    1    3    3    0    0  0.11968821921E+01 -0.58750817440E+02 -0.56484716941E+02  0.81508369661E+02  0.00000000000E+00 0.  1.
         13    1    3    3    0    0  0.11507833147E+02  0.21688888554E+02  0.12409615023E+02  0.27510664395E+02  0.00000000000E+00 0. -1.
         -3    1    1    2    0  502  0.23375209456E+02 -0.22094284118E+01  0.24253567940E+02  0.33756740791E+02  0.00000000000E+00 0.  1.
<scales pt_clust_5="13000.00000" pt_clust_6="13000.00000" pt_clust_7="13000.00000" pt_clust_8="13000.00000" pt_clust_9="23.47940"></scales>
<clustering>
<clus scale="   23.479">  1  9  2 -1</clus>
<clus scale="   89.364">  5  6 -1 -1</clus>
<clus scale="   91.693">  7  8 -1 -1</clus>
<clus scale="   98.879">  1  5  2 -1</clus>
<clus scale="   23.479">  1  5  2 -1</clus>
</clustering>
</event>
<event>
 9    1  0.1601012E-005  0.1099818E+03  0.7546771E-02  0.1261295E+00
          4   -1    0    0  502    0 -0.00000000000E+00  0.00000000000E+00  0.16882334818E+03  0.16882334818E+03  0.00000000000E+00 0. -1.
         21   -1    0    0  501  502  0.00000000000E+00 -0.00000000000E+00 -0.12859792377E+03  0.12859792377E+03  0.00000000000E+00 0.  1.
         23    2    1    2    0    0 -0.17164492264E+02 -0.44714449487E+02  0.75808085470E+02  0.12893338961E+03  0.92644219166E+02 0.  0.
         23    2    1    2    0    0  0.38605009019E+02  0.66239880529E+02  0.13986675153E+00  0.12159290464E+03  0.94375560413E+02 0.  0.
        -11    1    3    3    0    0  0.38347652137E+02 -0.19885484729E+02  0.36204666955E+02  0.56362690112E+02  0.00000000000E+00 0.  1.
         11    1    3    3    0    0 -0.55512144401E+02 -0.24828964758E+02  0.39603418515E+02  0.72570699494E+02  0.00000000000E+00 0. -1.
        -13    1    4    4    0    0  0.46783334160E+02  0.30473490640E+01  0.25076505619E+02  0.53167638893E+02  0.00000000000E+00 0. -1.
         13    1    4    4    0    0 -0.81783251408E+01  0.63192531465E+02 -0.24936638868E+02  0.68425265751E+02  0.00000000000E+00 0.  1.
          4    1    1    2  501    0 -0.21440516754E+02 -0.21525431042E+02 -0.35722527811E+02  0.46894977699E+02  0.00000000000E+00 0. -1.
<scales pt_clust_5="13000.00000" pt_clust_6="13000.00000" pt_clust_7="13000.00000" pt_clust_8="13000.00000" pt_clust_9="30.38157"></scales>
<clustering>
<clus scale="   30.382">  2  9  1 -1</clus>
<clus scale="   92.644">  5  6 -1 -1</clus>
<clus scale="   94.376">  7  8 -1 -1</clus>
<clus scale="  108.500">  1  5  2 -1</clus>
<clus scale="   30.382">  2  5  1 -1</clus>
</clustering>
</event>
<event>
 9    1  0.1601012E-005  0.1614088E+03  0.7546771E-02  0.1191105E+00
         21   -1    0    0  501  502  0.00000000000E+00  0.00000000000E+00  0.40429800281E+02  0.40429800281E+02  0.00000000000E+00 0. -1.
          1   -1    0    0  502    0 -0.00000000000E+00 -0.00000000000E+00 -0.93266245786E+03  0.93266245786E+03  0.00000000000E+00 0. -1.
         23    2    1    2    0    0 -0.41363733274E+02  0.11287897973E+03 -0.48195306576E+03  0.50522861351E+03  0.92328607818E+02 0.  0.
         23    2    1    2    0    0  0.90027943796E+02 -0.74660109285E+02 -0.28357563856E+03  0.32685733549E+03  0.11287786497E+03 0.  0.
        -11    1    4    4    0    0  0.11440353554E+03 -0.53062893169E+02 -0.19246649514E+03  0.23010256698E+03  0.00000000000E+00 0. -1.
         11    1    4    4    0    0 -0.24375591748E+02 -0.21597216116E+02 -0.91109143413E+02  0.96754768515E+02  0.00000000000E+00 0.  1.
        -11    1    3    3    0    0  0.52879177382E+00  0.80719555871E+02 -0.39756345263E+03  0.40567551712E+03  0.00000000000E+00 0. -1.
         11    1    3    3    0    0 -0.41892525048E+02  0.32159423859E+02 -0.84389613129E+02  0.99553096395E+02  0.00000000000E+00 0.  1.
          1    1    1    2  501    0 -0.48664210522E+02 -0.38218870445E+02 -0.12670395326E+03  0.14100630914E+03  0.00000000000E+00 0. -1.
<scales pt_clust_5="13000.00000" pt_clust_6="13000.00000" pt_clust_7="13000.00000" pt_clust_8="13000.00000" pt_clust_9="61.87800"></scales>
<clustering>
<clus scale="   61.878">  1  9  2 -1</clus>
<clus scale="   92.329">  7  8 -1 -1</clus>
<clus scale="  112.878">  5  6 -1 -1</clus>
<clus scale="  147.770">  2  7  1 -1</clus>
<clus scale="   61.878">  1  5  2 -1</clus>
</clustering>
</event>
<event>
 9    1  0.1601012E-005  0.1657415E+03  0.7546771E-02  0.1182464E+00
          1   -1    0    0  502    0 -0.00000000000E+00  0.00000000000E+00  0.48425038173E+03  0.48425038173E+03  0.00000000000E+00 0. -1.
         21   -1    0    0  501  502  0.00000000000E+00 -0.00000000000E+00 -0.13731382498E+03  0.13731382498E+03  0.00000000000E+00 0.  1.
         23    2    1    2    0    0 -0.22031809866E+02  0.11415970460E+03  0.23112531348E+03  0.27485070239E+03  0.92769387575E+02 0.  0.
         23    2    1    2    0    0 -0.49922011185E+01 -0.19503989119E+03  0.14048766114E+03  0.25793948024E+03  0.93437205150E+02 0.  0.
        -11    1    4    4    0    0 -0.22038775019E+02 -0.14468656524E+02  0.47000020202E+02  0.53889252407E+02  0.00000000000E+00 0. -1.
         11    1    4    4    0    0  0.17046573901E+02 -0.18057123467E+03  0.93487640938E+02  0.20405022784E+03  0.00000000000E+00 0.  1.
        -11    1    3    3    0    0 -0.31076851568E+02  0.25832064228E+02  0.18526165355E+02  0.44455427660E+02  0.00000000000E+00 0.  1.
         11    1    3    3    0    0  0.90450417011E+01  0.88327640372E+02  0.21259914813E+03  0.23039527473E+03  0.00000000000E+00 0. -1.
          1    1    1    2  501    0  0.27024010985E+02  0.80880186592E+02 -0.24676417874E+02  0.88774024083E+02  0.00000000000E+00 0. -1.
<scales pt_clust_5="13000.00000" pt_clust_6="13000.00000" pt_clust_7="13000.00000" pt_clust_8="13000.00000" pt_clust_9="85.27545"></scales>
<clustering>
<clus scale="   85.275">  2  9  1 -1</clus>
<clus scale="   92.769">  7  8 -1 -1</clus>
<clus scale="   93.437">  5  6 -1 -1</clus>
<clus scale="  165.366">  1  7  2 -1</clus>
<clus scale="   85.275">  2  5  1 -1</clus>
</clustering>
</event>
<event>
 9    1  0.1601012E-005  0.9231130E+02  0.7546771E-02  0.1297883E+00
         21   -1    0    0  501  502  0.00000000000E+00  0.00000000000E+00  0.15216207891E+02  0.15216207891E+02  0.00000000000E+00 0.  1.
          1   -1    0    0  502    0 -0.00000000000E+00 -0.00000000000E+00 -0.10446173521E+04  0.10446173521E+04  0.00000000000E+00 0. -1.
         23    2    1    2    0    0  0.92412783023E+01  0.15137319231E+02 -0.48320773054E+03  0.49206679642E+03  0.91244077208E+02 0.  0.
         23    2    1    2    0    0  0.96235124720E+01  0.36849413168E+02 -0.34911974629E+03  0.36308034231E+03  0.92153385601E+02 0.  0.
        -11    1    3    3    0    0 -0.29395756015E+02  0.37910123578E+02 -0.26276494655E+03  0.26710804008E+03  0.00000000000E+00 0. -1.
         11    1    3    3    0    0  0.38637034318E+02 -0.22772804347E+02 -0.22044278399E+03  0.22495875633E+03  0.00000000000E+00 0.  1.
        -13    1    4    4    0    0  0.50729389500E+02  0.14458420458E+02 -0.17484167352E+03  0.18262564902E+03  0.00000000000E+00 0.  1.
         13    1    4    4    0    0 -0.41105877028E+02  0.22390992710E+02 -0.17427807277E+03  0.18045469329E+03  0.00000000000E+00 0. -1.
          1    1    1    2  501    0 -0.18864790774E+02 -0.51986732399E+02 -0.19707366739E+03  0.20468642128E+03  0.00000000000E+00 0. -1.
<scales pt_clust_5="13000.00000" pt_clust_6="13000.00000" pt_clust_7="13000.00000" pt_clust_8="13000.00000" pt_clust_9="55.30371"></scales>
<clustering>
<clus scale="   55.304">  1  9  2 -1</clus>
<clus scale="   91.244">  5  6 -1 -1</clus>
<clus scale="   91.404">  2  5  1 -1</clus>
<clus scale="   92.153">  7  8 -1 -1</clus>
<clus scale="   55.304">  1  5  2 -1</clus>
</clustering>
</event>
<event>
 9    1  0.1601012E-005  0.1024706E+03  0.7546771E-02  0.1279243E+00
         21   -1    0    0  501  502  0.00000000000E+00  0.00000000000E+00  0.11019418980E+03  0.11019418980E+03  0.00000000000E+00 0. -1.
          3   -1    0    0  502    0 -0.00000000000E+00 -0.00000000000E+00 -0.28190132343E+03  0.28190132343E+03  0.00000000000E+00 0. -1.
         23    2    1    2    0    0  0.20451489376E+02 -0.12050749751E+02 -0.12967717439E+03  0.16101769990E+03  0.92450235998E+02 0.  0.
         23    2    1    2    0    0 -0.21853054424E+02 -0.13903683290E+02 -0.11431864542E+03  0.15425821213E+03  0.10027948406E+03 0.  0.
        -11    1    4    4    0    0 -0.18903316622E+02 -0.35352245051E+02 -0.12416326156E+03  0.13047464172E+03  0.00000000000E+00 0. -1.
         11    1    4    4    0    0 -0.29497378024E+01  0.21448561761E+02  0.98446161415E+01  0.23783570415E+02  0.00000000000E+00 0.  1.
        -13    1    3    3    0    0  0.17182572317E+02 -0.43124520647E+02 -0.11943061174E+03  0.12813522581E+03  0.00000000000E+00 0. -1.
         13    1    3    3    0    0  0.32689170591E+01  0.31073770896E+02 -0.10246562655E+02  0.32882474096E+02  0.00000000000E+00 0.  1.
          3    1    1    2  501    0  0.14015650480E+01  0.25954433041E+02  0.72288686174E+02  0.76819601196E+02  0.00000000000E+00 0. -1.
<scales pt_clust_5="13000.00000" pt_clust_6="13000.00000" pt_clust_7="13000.00000" pt_clust_8="13000.00000" pt_clust_9="25.99225"></scales>
<clustering>
<clus scale="   25.992">  1  9  2 -1</clus>
<clus scale="   92.450">  7  8 -1 -1</clus>
<clus scale="   94.822">  2  7  1 -1</clus>
<clus scale="  100.279">  5  6 -1 -1</clus>
<clus scale="   25.992">  1  5  2 -1</clus>
</clustering>
</event>
<event>
 9    1  0.1601012E-005  0.9074929E+02  0.7546771E-02  0.1301199E+00
         21   -1    0    0  501  502  0.00000000000E+00  0.00000000000E+00  0.15689171321E+03  0.15689171321E+03  0.00000000000E+00 0. -1.
          3   -1    0    0  502    0 -0.00000000000E+00 -0.00000000000E+00 -0.21750147841E+03  0.21750147841E+03  0.00000000000E+00 0. -1.
         23    2    1    2    0    0 -0.16694522196E+02  0.63044774571E+01 -0.16654758866E+03  0.18984360391E+03  0.89353461880E+02 0.  0.
         23    2    1    2    0    0  0.96778750863E+01  0.42986367195E+02  0.56244631789E+02  0.11420590284E+03  0.89095682319E+02 0.  0.
        -13    1    3    3    0    0  0.15109103453E+02  0.29513596682E+02 -0.13607700383E+03  0.14005816066E+03  0.00000000000E+00 0.  1.
         13    1    3    3    0    0 -0.31803625649E+02 -0.23209119225E+02 -0.30470584826E+02  0.49785443247E+02  0.00000000000E+00 0. -1.
        -13    1    4    4    0    0  0.18117581316E+01 -0.25294801159E+02  0.33064162710E+02  0.41669512703E+02  0.00000000000E+00 0.  1.
         13    1    4    4    0    0  0.78661169546E+01  0.68281168354E+02  0.23180469079E+02  0.72536390139E+02  0.00000000000E+00 0. -1.
          3    1    1    2  501    0  0.70166471100E+01 -0.49290844652E+02  0.49693191661E+02  0.70343684867E+02  0.00000000000E+00 0. -1.
<scales pt_clust_5="13000.00000" pt_clust_6="13000.00000" pt_clust_7="13000.00000" pt_clust_8="13000.00000" pt_clust_9="49.78776"></scales>
<clustering>
<clus scale="   49.788">  1  9  2 -1</clus>
<clus scale="   89.096">  7  8 -1 -1</clus>
<clus scale="   89.353">  5  6 -1 -1</clus>
<clus scale="   90.495">  1  7  2 -1</clus>
<clus scale="   49.788">  1  5  2 -1</clus>
</clustering>
</event>
<event>
 9    1  0.1601012E-005  0.1367149E+03  0.7546771E-02  0.1217911E+00
          2   -1    0    0  502    0 -0.00000000000E+00  0.00000000000E+00  0.98037917077E+03  0.98037917077E+03  0.00000000000E+00 0. -1.
         21   -1    0    0  501  502  0.00000000000E+00 -0.00000000000E+00 -0.38494037453E+02  0.38494037453E+02  0.00000000000E+00 0.  1.
         23    2    1    2    0    0  0.56489528344E+02 -0.91703819816E+02  0.63549845361E+03  0.65108284025E+03  0.91923462460E+02 0.  0.
         23    2    1    2    0    0 -0.34556916141E+02  0.83574259318E+02  0.31683083795E+03  0.34217377815E+03  0.92316181166E+02 0.  0.
        -13    1    3    3    0    0 -0.14562878275E+02 -0.62946122019E+02  0.31324899805E+03  0.31984250262E+03  0.00000000000E+00 0.  1.
         13    1    3    3    0    0  0.71052406619E+02 -0.28757697797E+02  0.32224945556E+03  0.33124033763E+03  0.00000000000E+00 0. -1.
        -13    1    4    4    0    0  0.26608346721E+01  0.42366246615E+02  0.35270812133E+02  0.55190661184E+02  0.00000000000E+00 0.  1.
         13    1    4    4    0    0 -0.37217750814E+02  0.41208012703E+02  0.28156002582E+03  0.28698311697E+03  0.00000000000E+00 0. -1.
          2    1    1    2  501    0 -0.21932612203E+02  0.81295604981E+01 -0.10444158251E+02  0.25616589810E+02  0.00000000000E+00 0. -1.
<scales pt_clust_5="13000.00000" pt_clust_6="13000.00000" pt_clust_7="13000.00000" pt_clust_8="13000.00000" pt_clust_9="23.39079"></scales>
<clustering>
<clus scale="   23.391">  2  9  1 -1</clus>
<clus scale="   91.923">  5  6 -1 -1</clus>
<clus scale="   92.316">  7  8 -1 -1</clus>
<clus scale="  136.450">  1  5  2 -1</clus>
<clus scale="   23.391">  2  5  1 -1</clus>
</clustering>
</event>
<event>
 9    1  0.1601012E-005  0.1358530E+03  0.7546771E-02  0.1224687E+00
          1   -1    0    0  502    0 -0.00000000000E+00  0.00000000000E+00  0.44214319689E+02  0.44214319689E+02  0.00000000000E+00 0. -1.
         21   -1    0    0  501  502  0.00000000000E+00 -0.00000000000E+00 -0.54316288734E+03  0.54316288734E+03  0.00000000000E+00 0. -1.
         23    2    1    2    0    0  0.40552576204E+02 -0.90479308232E+02 -0.20298585233E+03  0.24388056047E+03  0.91888273880E+02 0.  0.
         23    2    1    2    0    0 -0.26344264060E+01  0.10559846588E+03 -0.26187649193E+03  0.29031539387E+03  0.67422212144E+02 0.  0.
        -11    1    4    4    0    0  0.26058621360E+02  0.73377013733E+02 -0.20220571508E+03  0.21668038467E+03  0.00000000000E+00 0. -1.
         11    1    4    4    0    0 -0.28693047766E+02  0.32221452151E+02 -0.59670776853E+02  0.73635009195E+02  0.00000000000E+00 0.  1.
        -11    1    3    3    0    0  0.64097298028E+02 -0.50267738832E+02 -0.88532397954E+02  0.12030500683E+03  0.00000000000E+00 0. -1.
         11    1    3    3    0    0 -0.23544721824E+02 -0.40211569400E+02 -0.11445345437E+03  0.12357555364E+03  0.00000000000E+00 0.  1.
          1    1    1    2  501    0 -0.37918149798E+02 -0.15119157651E+02 -0.34086223386E+02  0.53181252683E+02  0.00000000000E+00 0. -1.
<scales pt_clust_5="13000.00000" pt_clust_6="13000.00000" pt_clust_7="13000.00000" pt_clust_8="13000.00000" pt_clust_9="40.82128"></scales>
<clustering>
<clus scale="   40.821">  2  9  1 -1</clus>
<clus scale="   67.422">  5  6 -1 -1</clus>
<clus scale="   91.888">  7  8 -1 -1</clus>
<clus scale="  120.658">  2  5  1 -1</clus>
<clus scale="   40.821">  2  5  1 -1</clus>
</clustering>
</event>
<event>
 9    1  0.1601012E-005  0.1018712E+03  0.7546771E-02  0.1279544E+00
          3   -1    0    0  502    0 -0.00000000000E+00  0.00000000000E+00  0.13144195348E+03  0.13144195348E+03  0.00000000000E+00 0. -1.
         21   -1    0    0  501  502  0.00000000000E+00 -0.00000000000E+00 -0.18322259122E+03  0.18322259122E+03  0.00000000000E+00 0.  1.
         23    2    1    2    0    0 -0.56144855054E+02 -0.47403395122E+02  0.35413763298E+02  0.12365668990E+03  0.92938235978E+02 0.  0.
         23    2    1    2    0    0  0.11988469528E+02 -0.92397794985E+01 -0.14680913771E+02  0.88946885529E+02  0.86411355095E+02 0.  0.
        -11    1    3    3    0    0 -0.18096439064E+02 -0.57468698694E+02  0.53284328301E+02  0.80432282567E+02  0.00000000000E+00 0.  1.
         11    1    3    3    0    0 -0.38048415990E+02  0.10065303571E+02 -0.17870565004E+02  0.43224407329E+02  0.00000000000E+00 0. -1.
        -13    1    4    4    0    0  0.24750506068E+02 -0.33568715828E+02 -0.35265449507E+02  0.54617745851E+02  0.00000000000E+00 0.  1.
         13    1    4    4    0    0 -0.12762036540E+02  0.24328936329E+02  0.20584535736E+02  0.34329139678E+02  0.00000000000E+00 0. -1.
          3    1    1    2  501    0  0.44156385527E+02  0.56643174621E+02 -0.72513487263E+02  0.10206096927E+03  0.00000000000E+00 0. -1.
<scales pt_clust_5="13000.00000" pt_clust_6="13000.00000" pt_clust_7="13000.00000" pt_clust_8="13000.00000" pt_clust_9="71.82086"></scales>
<clustering>
<clus scale="   71.821">  2  9  1 -1</clus>
<clus scale="   86.411">  7  8 -1 -1</clus>
<clus scale="   92.938">  5  6 -1 -1</clus>
<clus scale="   95.954">  2  7  1 -1</clus>
<clus scale="   71.821">  2  5  1 -1</clus>
</clustering>
</event>
<event>
 9    1  0.1601012E-005  0.1975303E+03  0.7546771E-02  0.1175238E+00
         21   -1    0    0  501  502  0.00000000000E+00  0.00000000000E+00  0.14694709705E+03  0.14694709705E+03  0.00000000000E+00 0. -1.
          1   -1    0    0  502    0 -0.00000000000E+00 -0.00000000000E+00 -0.61049436072E+03  0.61049436072E+03  0.00000000000E+00 0. -1.
         23    2    1    2    0    0  0.26415437829E+02 -0.66015636977E+02 -0.20069667829E+03  0.23128764811E+03  0.90327071306E+02 0.  0.
         23    2    1    2    0    0  0.14056592845E+02 -0.15664349105E+03 -0.54150829071E+01  0.18338842270E+03  0.94165914024E+02 0.  0.
        -11    1    3    3    0    0 -0.24453377507E+02 -0.20811447967E+02 -0.19106803871E+02  0.37365144081E+02  0.00000000000E+00 0.  1.
         11    1    3    3    0    0  0.50868815336E+02 -0.45204189009E+02 -0.18158987442E+03  0.19392250403E+03  0.00000000000E+00 0. -1.
        -13    1    4    4    0    0 -0.29195002164E+02 -0.12104613945E+03 -0.18446009842E+02  0.12587601561E+03  0.00000000000E+00 0. -1.
         13    1    4    4    0    0  0.43251595008E+02 -0.35597351606E+02  0.13030926935E+02  0.57512407087E+02  0.00000000000E+00 0.  1.
          1    1    1    2  501    0 -0.40472030673E+02  0.22265912803E+03 -0.25743550248E+03  0.34276538696E+03  0.00000000000E+00 0. -1.
<scales pt_clust_5="13000.00000" pt_clust_6="13000.00000" pt_clust_7="13000.00000" pt_clust_8="13000.00000" pt_clust_9="173.64054"></scales>
<clustering>
<clus scale="   90.327">  5  6 -1 -1</clus>
<clus scale="   94.166">  7  8 -1 -1</clus>
<clus scale="  114.956">  2  5  1 -1</clus>
<clus scale="  173.641">  1  9  2 -1</clus>
<clus scale="  173.641">  1  5  2 -1</clus>
</clustering>
</event>
<event>
 9    1  0.1601012E-005  0.1070558E+03  0.7546771E-02  0.1267394E+00
         21   -1    0    0  501  502  0.00000000000E+00  0.00000000000E+00  0.23804498569E+03  0.23804498569E+03  0.00000000000E+00 0. -1.
         -1   -1    0    0    0  501 -0.00000000000E+00 -0.00000000000E+00 -0.15064799326E+03  0.15064799326E+03  0.00000000000E+00 0.  1.
         23    2    1    2    0    0  0.30377852865E+02 -0.49009571688E+02 -0.95392764746E+02  0.14422108670E+03  0.91516065366E+02 0.  0.
         23    2    1    2    0    0 -0.30881915841E+02  0.25040739458E+02  0.19484333384E+03  0.21763818754E+03  0.88440514342E+02 0.  0.
        -11    1    3    3    0    0  0.51740492963E+01  0.25646099736E+02 -0.99469691240E+01  0.27989916266E+02  0.00000000000E+00 0. -1.
         11    1    3    3    0    0  0.25203803569E+02 -0.74655671424E+02 -0.85445795622E+02  0.11623117043E+03  0.00000000000E+00 0.  1.
        -11    1    4    4    0    0  0.29589116426E+02  0.15050213913E+02  0.46518442044E+02  0.57148842507E+02  0.00000000000E+00 0.  1.
         11    1    4    4    0    0 -0.60471032268E+02  0.99905255448E+01  0.14832489179E+03  0.16048934503E+03  0.00000000000E+00 0. -1.
         -1    1    1    2    0  502  0.50406297621E+00  0.23968832230E+02 -0.12053576661E+02  0.26833704707E+02  0.00000000000E+00 0.  1.
<scales pt_clust_5="13000.00000" pt_clust_6="13000.00000" pt_clust_7="13000.00000" pt_clust_8="13000.00000" pt_clust_9="23.97414"></scales>
<clustering>
<clus scale="   23.974">  1  9  2 -1</clus>
<clus scale="   88.441">  7  8 -1 -1</clus>
<clus scale="   91.516">  5  6 -1 -1</clus>
<clus scale="  104.439">  1  7  2 -1</clus>
<clus scale="   23.974">  1  5  2 -1</clus>
</clustering>
</event>
<event>
 9    1  0.1601012E-005  0.1566393E+03  0.7546771E-02  0.1204951E+00
         21   -1    0    0  501  502  0.00000000000E+00  0.00000000000E+00  0.23623511133E+03  0.23623511133E+03  0.00000000000E+00 0. -1.
          2   -1    0    0  502    0 -0.00000000000E+00 -0.00000000000E+00 -0.20385876105E+03  0.20385876105E+03  0.00000000000E+00 0.  1.
         23    2    1    2    0    0  0.66946058502E+02 -0.43564035369E+02  0.11416538735E+02  0.12011369040E+03  0.88979555732E+02 0.  0.
         23    2    1    2    0    0 -0.42148331354E+02 -0.94765585340E+02 -0.67619012750E+02  0.15385908353E+03  0.91341604427E+02 0.  0.
        -11    1    3    3    0    0  0.72696555578E+02 -0.57783821947E+00 -0.69200735129E+01  0.73027464062E+02  0.00000000000E+00 0.  1.
         11    1    3    3    0    0 -0.57504970765E+01 -0.42986197150E+02  0.18336612247E+02  0.47086226338E+02  0.00000000000E+00 0. -1.
        -13    1    4    4    0    0 -0.44757049462E+02 -0.47757884083E+01 -0.75722196699E+01  0.45643621046E+02  0.00000000000E+00 0.  1.
         13    1    4    4    0    0  0.26087181078E+01 -0.89989796932E+02 -0.60046793080E+02  0.10821546249E+03  0.00000000000E+00 0. -1.
          2    1    1    2  501    0 -0.24797727148E+02  0.13832962071E+03  0.88578824297E+02  0.16612109845E+03  0.00000000000E+00 0.  1.
<scales pt_clust_5="13000.00000" pt_clust_6="13000.00000" pt_clust_7="13000.00000" pt_clust_8="13000.00000" pt_clust_9="127.25007"></scales>
<clustering>
<clus scale="   88.980">  5  6 -1 -1</clus>
<clus scale="   91.342">  7  8 -1 -1</clus>
<clus scale="  119.570">  2  5  1 -1</clus>
<clus scale="  127.250">  1  9  2 -1</clus>
<clus scale="  127.250">  1  5  2 -1</clus>
</clustering>
</event>
<event>
 9    1  0.1601012E-005  0.9750972E+02  0.7546771E-02  0.1285648E+00
         21   -1    0    0  501  502  0.00000000000E+00  0.00000000000E+00  0.99880950057E+02  0.99880950057E+02  0.00000000000E+00 0. -1.
          1   -1    0    0  502    0 -0.00000000000E+00 -0.00000000000E+00 -0.24524938873E+03  0.24524938873E+03  0.00000000000E+00 0. -1.
         23    2    1    2    0    0  0.35104018527E+02 -0.19190968532E+01 -0.17896824667E+03  0.20361542216E+03  0.90518681914E+02 0.  0.
         23    2    1    2    0    0 -0.40189401799E+02  0.25242342788E+02  0.48711357379E+02  0.11326259197E+03  0.90571819653E+02 0.  0.
        -13    1    4    4    0    0  0.64334405886E+01 -0.23547571784E+02 -0.73896395926E+01  0.25504589157E+02  0.00000000000E+00 0.  1.
         13    1    4    4    0    0 -0.46622842388E+02  0.48789914572E+02  0.56100996971E+02  0.87758002812E+02  0.00000000000E+00 0. -1.
        -13    1    3    3    0    0 -0.30710453039E+02  0.42478380452E+01 -0.57460831805E+02  0.65291065589E+02  0.00000000000E+00 0.  1.
         13    1    3    3    0    0  0.65814471566E+02 -0.61669348984E+01 -0.12150741486E+03  0.13832435657E+03  0.00000000000E+00 0. -1.
          1    1    1    2  501    0  0.50853832724E+01 -0.23323245934E+02 -0.15111549383E+02  0.28252324660E+02  0.00000000000E+00 0. -1.
<scales pt_clust_5="13000.00000" pt_clust_6="13000.00000" pt_clust_7="13000.00000" pt_clust_8="13000.00000" pt_clust_9="23.87123"></scales>
<clustering>
<clus scale="   23.871">  1  9  2 -1</clus>
<clus scale="   90.519">  7  8 -1 -1</clus>
<clus scale="   90.572">  5  6 -1 -1</clus>
<clus scale="   97.460">  2  7  1 -1</clus>
<clus scale="   23.871">  1  5  2 -1</clus>
</clustering>
</event>
<event>
 9    1  0.1601012E-005  0.1713575E+03  0.7546771E-02  0.1176447E+00
         -1   -1    0    0    0  501 -0.00000000000E+00  0.00000000000E+00  0.40710934051E+03  0.40710934051E+03  0.00000000000E+00 0.  1.
         21   -1    0    0  501  502  0.00000000000E+00 -0.00000000000E+00 -0.34616504088E+03  0.34616504088E+03  0.00000000000E+00 0.  1.
         23    2    1    2    0    0 -0.12859340320E+03  0.20147901725E+02  0.16137986046E+03  0.22685579027E+03  0.92075452354E+02 0.  0.
         23    2    1    2    0    0  0.12751009833E+03 -0.15682637772E+03  0.13084839371E+03  0.25776556773E+03  0.92024169897E+02 0.  0.
        -11    1    4    4    0    0  0.54855065079E+02 -0.13510063030E+03  0.93684704260E+02  0.17331497998E+03  0.00000000000E+00 0.  1.
         11    1    4    4    0    0  0.72655033253E+02 -0.21725747418E+02  0.37163689453E+02  0.84450587752E+02  0.00000000000E+00 0. -1.
        -13    1    3    3    0    0 -0.20378817825E+02  0.34220322452E+02  0.11496017978E+02  0.41454615111E+02  0.00000000000E+00 0. -1.
         13    1    3    3    0    0 -0.10821458537E+03 -0.14072420727E+02  0.14988384248E+03  0.18540117515E+03  0.00000000000E+00 0.  1.
         -1    1    1    2    0  502  0.10833048656E+01  0.13667847600E+03 -0.23128395453E+03  0.26865302339E+03  0.00000000000E+00 0.  1.
<scales pt_clust_5="13000.00000" pt_clust_6="13000.00000" pt_clust_7="13000.00000" pt_clust_8="13000.00000" pt_clust_9="136.68277"></scales>
<clustering>
<clus scale="   92.024">  5  6 -1 -1</clus>
<clus scale="   92.075">  7  8 -1 -1</clus>
<clus scale="  136.683">  2  9  1 -1</clus>
<clus scale="  171.330">  2  5  1 -1</clus>
<clus scale="  136.683">  2  5  1 -1</clus>
</clustering>
</event>
<event>
 9    1  0.1601012E-005  0.9483687E+02  0.7546771E-02  0.1291593E+00
         21   -1    0    0  501  502  0.00000000000E+00  0.00000000000E+00  0.32080722801E+03  0.32080722801E+03  0.00000000000E+00 0.  1.
          2   -1    0    0  502    0 -0.00000000000E+00 -0.00000000000E+00 -0.82803010030E+02  0.82803010030E+02  0.00000000000E+00 0. -1.
         23    2    1    2    0    0  0.18067802650E+02  0.23173943633E+02 -0.28520552461E+02  0.99935474516E+02  0.91160298364E+02 0.  0.
         23    2    1    2    0    0 -0.31164697495E+02  0.17510765663E+02  0.14641239568E+03  0.17618454117E+03  0.91249863862E+02 0.  0.
        -11    1    4    4    0    0 -0.61996244146E+02  0.13769760776E+02  0.11841703430E+03  0.13437162875E+03  0.00000000000E+00 0.  1.
         11    1    4    4    0    0  0.30831546652E+02  0.37410048863E+01  0.27995361382E+02  0.41812912424E+02  0.00000000000E+00 0. -1.
        -11    1    3    3    0    0 -0.17120209412E+02  0.48196449947E+02 -0.67832727675E+01  0.51594691076E+02  0.00000000000E+00 0.  1.
         11    1    3    3    0    0  0.35188012062E+02 -0.25022506313E+02 -0.21737279694E+02  0.48340783440E+02  0.00000000000E+00 0. -1.
          2    1    1    2  501    0  0.13096894845E+02 -0.40684709296E+02  0.12011237476E+03  0.12749022235E+03  0.00000000000E+00 0. -1.
<scales pt_clust_5="13000.00000" pt_clust_6="13000.00000" pt_clust_7="13000.00000" pt_clust_8="13000.00000" pt_clust_9="42.74078"></scales>
<clustering>
<clus scale="   42.741">  1  9  2 -1</clus>
<clus scale="   91.160">  7  8 -1 -1</clus>
<clus scale="   91.250">  5  6 -1 -1</clus>
<clus scale="   94.751">  2  7  1 -1</clus>
<clus scale="   42.741">  1  5  2 -1</clus>
</clustering>
</event>
<event>
 9    1  0.1601012E-005  0.9327880E+02  0.7546771E-02  0.1295356E+00
         -4   -1    0    0    0  501 -0.00000000000E+00  0.00000000000E+00  0.55834770379E+02  0.55834770379E+02  0.00000000000E+00 0.  1.
         21   -1    0    0  501  502  0.00000000000E+00 -0.00000000000E+00 -0.42123810261E+03  0.42123810261E+03  0.00000000000E+00 0.  1.
         23    2    1    2    0    0 -0.12938381518E+02 -0.11874364054E+02 -0.82563651228E+01  0.92664374354E+02  0.90609693033E+02 0.  0.
         23    2    1    2    0    0  0.13746593051E+02  0.39507817881E+02 -0.33283527678E+03  0.34759383766E+03  0.91062165651E+02 0.  0.
        -11    1    4    4    0    0  0.18348312864E+02 -0.27432497777E+02 -0.10223120149E+03  0.10742635187E+03  0.00000000000E+00 0. -1.
         11    1    4    4    0    0 -0.46017198128E+01  0.66940315658E+02 -0.23060407529E+03  0.24016748578E+03  0.00000000000E+00 0.  1.
        -11    1    3    3    0    0 -0.45396680701E+02 -0.25920487107E+02  0.94335260655E+01  0.53119880314E+02  0.00000000000E+00 0.  1.
         11    1    3    3    0    0  0.32458299183E+02  0.14046123053E+02 -0.17689891188E+02  0.39544494040E+02  0.00000000000E+00 0. -1.
         -4    1    1    2    0  502 -0.80821153227E+00 -0.27633453827E+02 -0.24311690328E+02  0.36814660977E+02  0.00000000000E+00 0.  1.
<scales pt_clust_5="13000.00000" pt_clust_6="13000.00000" pt_clust_7="13000.00000" pt_clust_8="13000.00000" pt_clust_9="27.64528"></scales>
<clustering>
<clus scale="   27.645">  2  9  1 -1</clus>
<clus scale="   90.610">  7  8 -1 -1</clus>
<clus scale="   91.062">  5  6 -1 -1</clus>
<clus scale="   92.837">  1  7  2 -1</clus>
<clus scale="   27.645">  2  5  1 -1</clus>
</clustering>
</event>
<event>
 9    1  0.1601012E-005  0.1588780E+03  0.7546771E-02  0.1190149E+00
         21   -1    0    0  501  502  0.00000000000E+00  0.00000000000E+00  0.19576414787E+03  0.19576414787E+03  0.00000000000E+00 0. -1.
         -2   -1    0    0    0  501 -0.00000000000E+00 -0.00000000000E+00 -0.18161511644E+03  0.18161511644E+03  0.00000000000E+00 0.  1.
         23    2    1    2    0    0 -0.13459676428E+02 -0.12233124533E+03 -0.61671427726E+02  0.16446686199E+03  0.89999373459E+02 0.  0.
         23    2    1    2    0    0  0.23980331366E+02  0.14557611096E+03  0.64632714534E+02  0.18505251020E+03  0.91102049211E+02 0.  0.
        -11    1    3    3    0    0  0.35655853564E+02 -0.63829964893E+02 -0.14045872238E+02  0.74450593272E+02  0.00000000000E+00 0. -1.
         11    1    3    3    0    0 -0.49115529992E+02 -0.58501280434E+02 -0.47625555488E+02  0.90016268720E+02  0.00000000000E+00 0.  1.
        -13    1    4    4    0    0  0.36049851802E+02  0.11361679967E+03  0.87048566036E+01  0.11951628973E+03  0.00000000000E+00 0. -1.
         13    1    4    4    0    0 -0.12069520436E+02  0.31959311291E+02  0.55927857930E+02  0.65536220477E+02  0.00000000000E+00 0.  1.
         -2    1    1    2    0  502 -0.10520654938E+02 -0.23244865629E+02  0.11187744622E+02  0.27859892106E+02  0.00000000000E+00 0.  1.
<scales pt_clust_5="13000.00000" pt_clust_6="13000.00000" pt_clust_7="13000.00000" pt_clust_8="13000.00000" pt_clust_9="25.51486"></scales>
<clustering>
<clus scale="   25.515">  1  9  2 -1</clus>
<clus scale="   89.999">  5  6 -1 -1</clus>
<clus scale="   91.102">  7  8 -1 -1</clus>
<clus scale="  158.248">  2  5  1 -1</clus>
<clus scale="   25.515">  1  5  2 -1</clus>
</clustering>
</event>
<event>
 9    1  0.1601012E-005  0.9825907E+02  0.7546771E-02  0.1284606E+00
         21   -1    0    0  501  502  0.00000000000E+00  0.00000000000E+00  0.27128680893E+03  0.27128680893E+03  0.00000000000E+00 0.  1.
         -3   -1    0    0    0  501 -0.00000000000E+00 -0.00000000000E+00 -0.17969647449E+03  0.17969647449E+03  0.00000000000E+00 0.  1.
         23    2    1    2    0    0  0.17032935504E+02 -0.35474779953E+02 -0.98257738343E+02  0.14023555972E+03  0.91993739800E+02 0.  0.
         23    2    1    2    0    0  0.37855597499E+02 -0.36601766723E+02  0.19234657443E+03  0.22011648104E+03  0.93173627920E+02 0.  0.
        -11    1    4    4    0    0 -0.94171915743E+00 -0.59350582252E+02  0.84472195409E+02  0.10324209532E+03  0.00000000000E+00 0. -1.
         11    1    4    4    0    0  0.38797316656E+02  0.22748815529E+02  0.10787437902E+03  0.11687438572E+03  0.00000000000E+00 0.  1.
        -13    1    3    3    0    0  0.51377831948E+02 -0.53718020865E+01 -0.68224310648E+02  0.85575080699E+02  0.00000000000E+00 0. -1.
         13    1    3    3    0    0 -0.34344896444E+02 -0.30102977866E+02 -0.30033427694E+02  0.54660479025E+02  0.00000000000E+00 0.  1.
         -3    1    1    2    0  502 -0.54888533003E+02  0.72076546676E+02 -0.24985016441E+01  0.90631242662E+02  0.00000000000E+00 0.  1.
<scales pt_clust_5="13000.00000" pt_clust_6="13000.00000" pt_clust_7="13000.00000" pt_clust_8="13000.00000" pt_clust_9="90.59684"></scales>
<clustering>
<clus scale="   90.597">  1  9  2 -1</clus>
<clus scale="   91.994">  7  8 -1 -1</clus>
<clus scale="   93.174">  5  6 -1 -1</clus>
<clus scale="   97.141">  2  7  1 -1</clus>
<clus scale="   90.597">  1  5  2 -1</clus>
</clustering>
</event>
<event>
 9    1  0.1601012E-005  0.1209500E+03  0.7546771E-02  0.1242834E+00
         21   -1    0    0  501  502  0.00000000000E+00  0.00000000000E+00  0.28694081216E+03  0.28694081216E+03  0.00000000000E+00 0. -1.
          3   -1    0    0  502    0 -0.00000000000E+00 -0.00000000000E+00 -0.31231517091E+03  0.31231517091E+03  0.00000000000E+00 0. -1.
         23    2    1    2    0    0 -0.24617080575E+02 -0.75178473515E+02 -0.20126875006E+03  0.23590716589E+03  0.94261750629E+02 0.  0.
         23    2    1    2    0    0  0.73934198798E+02  0.40183804164E+02 -0.47290318430E+02  0.13211685638E+03  0.90208013248E+02 0.  0.
        -11    1    3    3    0    0 -0.26580808518E+02  0.14014076748E+02 -0.28257189350E+02  0.41248060300E+02  0.00000000000E+00 0.  1.
         11    1    3    3    0    0  0.19637279429E+01 -0.89192550263E+02 -0.17301156071E+03  0.19465910559E+03  0.00000000000E+00 0. -1.
        -11    1    4    4    0    0  0.76487340632E+02 -0.12184086287E+01 -0.48574518319E+02  0.90616122332E+02  0.00000000000E+00 0. -1.
         11    1    4    4    0    0 -0.25531418343E+01  0.41402212793E+02  0.12841998886E+01  0.41500734050E+02  0.00000000000E+00 0.  1.
          3    1    1    2  501    0 -0.49317118223E+02  0.34994669351E+02  0.22318470974E+03  0.23123196079E+03  0.00000000000E+00 0. -1.
<scales pt_clust_5="13000.00000" pt_clust_6="13000.00000" pt_clust_7="13000.00000" pt_clust_8="13000.00000" pt_clust_9="60.47152"></scales>
<clustering>
<clus scale="   60.472">  1  9  2 -1</clus>
<clus scale="   90.208">  7  8 -1 -1</clus>
<clus scale="   94.262">  5  6 -1 -1</clus>
<clus scale="  117.818">  1  7  2 -1</clus>
<clus scale="   60.472">  1  5  2 -1</clus>
</clustering>
</event>
<event>
 9    1  0.1601012E-005  0.2378242E+03  0.7546771E-02  0.1135884E+00
          2   -1    0    0  502    0 -0.00000000000E+00  0.00000000000E+00  0.14239950670E+03  0.14239950670E+03  0.00000000000E+00 0. -1.
         21   -1    0    0  501  502  0.00000000000E+00 -0.00000000000E+00 -0.95071026221E+03  0.95071026221E+03  0.00000000000E+00 0. -1.
         23    2    1    2    0    0 -0.32940961491E+02 -0.13542362177E+03 -0.21575602683E+02  0.16726827612E+03  0.89936117812E+02 0.  0.
         23    2    1    2    0    0  0.21339690885E+03  0.19083262408E+03 -0.48207692093E+03  0.56744067703E+03  0.87380965528E+02 0.  0.
        -11    1    3    3    0    0 -0.10797338725E+02 -0.13719556508E+03 -0.19612016355E+01  0.13763376008E+03  0.00000000000E+00 0.  1.
         11    1    3    3    0    0 -0.22143622766E+02  0.17719433127E+01 -0.19614401048E+02  0.29634516037E+02  0.00000000000E+00 0. -1.
        -13    1    4    4    0    0  0.48783734952E+02  0.58945695976E+02 -0.66398797981E+02  0.10130769094E+03  0.00000000000E+00 0.  1.
         13    1    4    4    0    0  0.16461317390E+03  0.13188692810E+03 -0.41567812294E+03  0.46613298609E+03  0.00000000000E+00 0. -1.
          2    1    1    2  501    0 -0.18045594736E+03 -0.55409002307E+02 -0.30465823190E+03  0.35840081576E+03  0.00000000000E+00 0. -1.
<scales pt_clust_5="13000.00000" pt_clust_6="13000.00000" pt_clust_7="13000.00000" pt_clust_8="13000.00000" pt_clust_9="221.18983"></scales>
<clustering>
<clus scale="   87.381">  7  8 -1 -1</clus>
<clus scale="   89.936">  5  6 -1 -1</clus>
<clus scale="  165.871">  1  5  2 -1</clus>
<clus scale="  221.190">  2  9  1 -1</clus>
<clus scale="  221.190">  2  5  1 -1</clus>
</clustering>
</event>
<event>
 9    1  0.1601012E-005  0.9734162E+02  0.7546771E-02  0.1286178E+00
         21   -1    0    0  501  502  0.00000000000E+00  0.00000000000E+00  0.18585176921E+03  0.18585176921E+03  0.00000000000E+00 0. -1.
         -3   -1    0    0    0  501 -0.00000000000E+00 -0.00000000000E+00 -0.12901515696E+03  0.12901515696E+03  0.00000000000E+00 0.  1.
         23    2    1    2    0    0  0.28404964449E+02 -0.16859272858E+02 -0.79944328881E+02  0.12499882633E+03  0.90235989363E+02 0.  0.
         23    2    1    2    0    0 -0.45291951952E+02  0.29253182334E+02  0.88229455331E+02  0.13699063666E+03  0.89860381467E+02 0.  0.
        -11    1    3    3    0    0 -0.45552612583E+01  0.22563471598E+02 -0.68622448162E+02  0.72380253160E+02  0.00000000000E+00 0.  1.
         11    1    3    3    0    0  0.32960225707E+02 -0.39422744457E+02 -0.11321880718E+02  0.52618573167E+02  0.00000000000E+00 0. -1.
        -11    1    4    4    0    0 -0.61626294761E+02 -0.98562722784E+01  0.52963511350E+02  0.81854015440E+02  0.00000000000E+00 0. -1.
         11    1    4    4    0    0  0.16334342810E+02  0.39109454612E+02  0.35265943982E+02  0.55136621224E+02  0.00000000000E+00 0.  1.
         -3    1    1    2    0  502  0.16886987503E+02 -0.12393909476E+02  0.48551485796E+02  0.52877463177E+02  0.00000000000E+00 0.  1.
<scales pt_clust_5="13000.00000" pt_clust_6="13000.00000" pt_clust_7="13000.00000" pt_clust_8="13000.00000" pt_clust_9="20.94706"></scales>
<clustering>
<clus scale="   20.947">  1  9  2 -1</clus>
<clus scale="   89.860">  7  8 -1 -1</clus>
<clus scale="   90.236">  5  6 -1 -1</clus>
<clus scale="   96.994">  1  7  2 -1</clus>
<clus scale="   20.947">  1  5  2 -1</clus>
</clustering>
</event>
<event>
 9    1  0.1601012E-005  0.1371176E+03  0.7546771E-02  0.1222715E+00
          1   -1    0    0  502    0 -0.00000000000E+00  0.00000000000E+00  0.59395202210E+03  0.59395202210E+03  0.00000000000E+00 0. -1.
         21   -1    0    0  501  502  0.00000000000E+00 -0.00000000000E+00 -0.16116713907E+03  0.16116713907E+03  0.00000000000E+00 0. -1.
         23    2    1    2    0    0  0.53244694776E+02 -0.44419546104E+02  0.38237945494E+03  0.39993517638E+03  0.94477532508E+02 0.  0.
         23    2    1    2    0    0 -0.80157141424E+02  0.69329233231E+02  0.17004706482E+03  0.23004848410E+03  0.11302473571E+03 0.  0.
        -11    1    3    3    0    0 -0.24017300837E+02 -0.70007439382E+01  0.41900129911E+02  0.48800225837E+02  0.00000000000E+00 0.  1.
         11    1    3    3    0    0  0.77261995612E+02 -0.37418802166E+02  0.34047932502E+03  0.35113495054E+03  0.00000000000E+00 0. -1.
        -13    1    4    4    0    0 -0.10919810256E+03  0.58599482114E+02  0.13363834197E+03  0.18225622445E+03  0.00000000000E+00 0.  1.
         13    1    4    4    0    0  0.29040961137E+02  0.10729751117E+02  0.36408722848E+02  0.47792259647E+02  0.00000000000E+00 0. -1.
          1    1    1    2  501    0  0.26912446648E+02 -0.24909687127E+02 -0.11964163672E+03  0.12513550070E+03  0.00000000000E+00 0. -1.
<scales pt_clust_5="13000.00000" pt_clust_6="13000.00000" pt_clust_7="13000.00000" pt_clust_8="13000.00000" pt_clust_9="36.67114"></scales>
<clustering>
<clus scale="   36.671">  2  9  1 -1</clus>
<clus scale="   94.478">  5  6 -1 -1</clus>
<clus scale="  113.025">  7  8 -1 -1</clus>
<clus scale="  122.281">  1  5  2 -1</clus>
<clus scale="   36.671">  2  5  1 -1</clus>
</clustering>
</event>
<event>
 9    1  0.1601012E-005  0.1929886E+03  0.7546771E-02  0.1156003E+00
         -1   -1    0    0    0  501 -0.00000000000E+00  0.00000000000E+00  0.71068041955E+03  0.71068041955E+03  0.00000000000E+00 0.  1.
         21   -1    0    0  501  502  0.00000000000E+00 -0.00000000000E+00 -0.80566750885E+02  0.80566750885E+02  0.00000000000E+00 0. -1.
         23    2    1    2    0    0 -0.97247510991E+02 -0.12619677590E+03  0.33092891115E+03  0.37847239200E+03  0.91349343908E+02 0.  0.
         23    2    1    2    0    0  0.79377942128E+02  0.16906203111E+03  0.30210973972E+03  0.36624191783E+03  0.89330954773E+02 0.  0.
        -13    1    3    3    0    0 -0.86952240624E+02 -0.87593907490E+02  0.30935511029E+03  0.33306751424E+03  0.00000000000E+00 0. -1.
         13    1    3    3    0    0 -0.10295270368E+02 -0.38602868406E+02  0.21573800859E+02  0.45404877762E+02  0.00000000000E+00 0.  1.
        -13    1    4    4    0    0  0.28905262979E+02  0.13765166903E+03  0.25154152056E+03  0.28819547668E+03  0.00000000000E+00 0.  1.
         13    1    4    4    0    0  0.50472679149E+02  0.31410362077E+02  0.50568219164E+02  0.78046441147E+02  0.00000000000E+00 0. -1.
         -1    1    1    2    0  502  0.17869568863E+02 -0.42865255211E+02 -0.29249822028E+01  0.46532860609E+02  0.00000000000E+00 0.  1.
<scales pt_clust_5="13000.00000" pt_clust_6="13000.00000" pt_clust_7="13000.00000" pt_clust_8="13000.00000" pt_clust_9="46.44084"></scales>
<clustering>
<clus scale="   46.441">  2  9  1 -1</clus>
<clus scale="   89.331">  7  8 -1 -1</clus>
<clus scale="   91.349">  5  6 -1 -1</clus>
<clus scale="  192.041">  2  7  1 -1</clus>
<clus scale="   46.441">  2  5  1 -1</clus>
</clustering>
</event>
<event>
 9    1  0.1601012E-005  0.1025986E+03  0.7546771E-02  0.1276434E+00
          2   -1    0    0  502    0 -0.00000000000E+00  0.00000000000E+00  0.31905816878E+03  0.31905816878E+03  0.00000000000E+00 0. -1.
         21   -1    0    0  501  502  0.00000000000E+00 -0.00000000000E+00 -0.56597766252E+02  0.56597766252E+02  0.00000000000E+00 0. -1.
         23    2    1    2    0    0 -0.28378054319E+02 -0.16764185319E+02  0.11835089339E+03  0.15261882339E+03  0.90549541196E+02 0.  0.
         23    2    1    2    0    0  0.11996526143E+02  0.58064929413E+02  0.13969933818E+03  0.17838786153E+03  0.93759646893E+02 0.  0.
        -11    1    4    4    0    0  0.42678826301E+02 -0.24294462343E+01  0.47157022027E+02  0.63648795353E+02  0.00000000000E+00 0.  1.
         11    1    4    4    0    0 -0.30682300157E+02  0.60494375647E+02  0.92542316152E+02  0.11473906617E+03  0.00000000000E+00 0. -1.
        -11    1    3    3    0    0  0.26395340777E+02 -0.18868708282E+02  0.78226936399E+02  0.84688817121E+02  0.00000000000E+00 0.  1.
         11    1    3    3    0    0 -0.54773395095E+02  0.21045229635E+01  0.40123956988E+02  0.67930006268E+02  0.00000000000E+00 0. -1.
          2    1    1    2  501    0  0.16381528175E+02 -0.41300744094E+02  0.44101709643E+01  0.44649250117E+02  0.00000000000E+00 0. -1.
<scales pt_clust_5="13000.00000" pt_clust_6="13000.00000" pt_clust_7="13000.00000" pt_clust_8="13000.00000" pt_clust_9="44.43091"></scales>
<clustering>
<clus scale="   44.431">  2  9  1 -1</clus>
<clus scale="   90.550">  7  8 -1 -1</clus>
<clus scale="   93.760">  5  6 -1 -1</clus>
<clus scale="   99.674">  1  7  2 -1</clus>
<clus scale="   44.431">  2  5  1 -1</clus>
</clustering>
</event>
<event>
 9    1  0.1601012E-005  0.1103100E+03  0.7546771E-02  0.1260116E+00
         21   -1    0    0  501  502  0.00000000000E+00  0.00000000000E+00  0.48222006971E+02  0.48222006971E+02  0.00000000000E+00 0. -1.
          2   -1    0    0  502    0 -0.00000000000E+00 -0.00000000000E+00 -0.73532464864E+03  0.73532464864E+03  0.00000000000E+00 0. -1.
         23    2    1    2    0    0 -0.53578591308E+02 -0.43367612448E+02 -0.47434053426E+03  0.48810744005E+03  0.92187392498E+02 0.  0.
         23    2    1    2    0    0  0.43759677800E+02  0.20680443909E+02 -0.23827036026E+03  0.25991753708E+03  0.91879112658E+02 0.  0.
        -11    1    3    3    0    0 -0.66152043442E+02 -0.59698848702E+02 -0.43101226175E+03  0.44012681714E+03  0.00000000000E+00 0. -1.
         11    1    3    3    0    0  0.12573452134E+02  0.16331236254E+02 -0.43328272504E+02  0.47980622905E+02  0.00000000000E+00 0.  1.
        -11    1    4    4    0    0  0.46371997008E+02 -0.26817888575E+02 -0.96393952697E+02  0.11027853540E+03  0.00000000000E+00 0. -1.
         11    1    4    4    0    0 -0.26123192078E+01  0.47498332484E+02 -0.14187640757E+03  0.14963900168E+03  0.00000000000E+00 0.  1.
          2    1    1    2  501    0  0.98189135082E+01  0.22687168539E+02  0.25508252847E+02  0.35521678481E+02  0.00000000000E+00 0. -1.
<scales pt_clust_5="13000.00000" pt_clust_6="13000.00000" pt_clust_7="13000.00000" pt_clust_8="13000.00000" pt_clust_9="24.72081"></scales>
<clustering>
<clus scale="   24.721">  1  9  2 -1</clus>
<clus scale="   91.879">  7  8 -1 -1</clus>
<clus scale="   92.187">  5  6 -1 -1</clus>
<clus scale="  110.053">  1  7  2 -1</clus>
<clus scale="   24.721">  1  5  2 -1</clus>
</clustering>
</event>
<event>
 9    1  0.1601012E-005  0.1063463E+03  0.7546771E-02  0.1269104E+00
          2   -1    0    0  502    0 -0.00000000000E+00  0.00000000000E+00  0.79564213179E+02  0.79564213179E+02  0.00000000000E+00 0. -1.
         21   -1    0    0  501  502  0.00000000000E+00 -0.00000000000E+00 -0.19303870160E+03  0.19303870160E+03  0.00000000000E+00 0.  1.
         23    2    1    2    0    0  0.21682536987E+02  0.55189287378E+02 -0.10705239031E+02  0.10646971889E+03  0.87779320153E+02 0.  0.
         23    2    1    2    0    0 -0.67079092879E+00 -0.45222705321E+02 -0.99569505655E+02  0.14265843092E+03  0.91606759684E+02 0.  0.
        -11    1    3    3    0    0 -0.42054710736E+00 -0.23474440658E+02 -0.76847697828E+01  0.24703884526E+02  0.00000000000E+00 0.  1.
         11    1    3    3    0    0  0.22103084094E+02  0.78663728035E+02 -0.30204692482E+01  0.81765834365E+02  0.00000000000E+00 0. -1.
        -13    1    4    4    0    0 -0.34848199933E+02 -0.47872202438E+02 -0.33015901185E+02  0.67795239773E+02  0.00000000000E+00 0.  1.
         13    1    4    4    0    0  0.34177409004E+02  0.26494971162E+01 -0.66553604470E+02  0.74863191150E+02  0.00000000000E+00 0. -1.
          2    1    1    2  501    0 -0.21011746058E+02 -0.99665820561E+01 -0.31997437376E+01  0.23474764967E+02  0.00000000000E+00 0. -1.
<scales pt_clust_5="13000.00000" pt_clust_6="13000.00000" pt_clust_7="13000.00000" pt_clust_8="13000.00000" pt_clust_9="23.25568"></scales>
<clustering>
<clus scale="   23.256">  2  9  1 -1</clus>
<clus scale="   87.779">  5  6 -1 -1</clus>
<clus scale="   91.607">  7  8 -1 -1</clus>
<clus scale="  103.068">  1  5  2 -1</clus>
<clus scale="   23.256">  2  5  1 -1</clus>
</clustering>
</event>
<event>
 9    1  0.1601012E-005  0.1210492E+03  0.7546771E-02  0.1242293E+00
         21   -1    0    0  501  502  0.00000000000E+00  0.00000000000E+00  0.39361782627E+03  0.39361782627E+03  0.00000000000E+00 0. -1.
         -3   -1    0    0    0  501 -0.00000000000E+00 -0.00000000000E+00 -0.67657940472E+02  0.67657940472E+02  0.00000000000E+00 0.  1.
         23    2    1    2    0    0 -0.81686454881E+02 -0.32477573207E+02  0.67718612872E+02  0.14116592694E+03  0.87261324348E+02 0.  0.
         23    2    1    2    0    0  0.53084842679E+02  0.54568609050E+02  0.91198667665E+02  0.14920256068E+03  0.90268895602E+02 0.  0.
        -11    1    3    3    0    0 -0.17740291492E+02  0.18073571871E+02 -0.11215209277E+02  0.27697524466E+02  0.00000000000E+00 0. -1.
         11    1    3    3    0    0 -0.63946163389E+02 -0.50551145078E+02  0.78933822150E+02  0.11346840247E+03  0.00000000000E+00 0.  1.
        -11    1    4    4    0    0  0.15191709069E+02 -0.18918461856E+02  0.52659364357E+02  0.57980211089E+02  0.00000000000E+00 0.  1.
         11    1    4    4    0    0  0.37893133609E+02  0.73487070906E+02  0.38539303308E+02  0.91222349589E+02  0.00000000000E+00 0. -1.
         -3    1    1    2    0  502  0.28601612202E+02 -0.22091035843E+02  0.16704260526E+03  0.17090727912E+03  0.00000000000E+00 0.  1.
<scales pt_clust_5="13000.00000" pt_clust_6="13000.00000" pt_clust_7="13000.00000" pt_clust_8="13000.00000" pt_clust_9="36.13954"></scales>
<clustering>
<clus scale="   36.140">  1  9  2 -1</clus>
<clus scale="   87.261">  5  6 -1 -1</clus>
<clus scale="   90.269">  7  8 -1 -1</clus>
<clus scale="  118.823">  2  5  1 -1</clus>
<clus scale="   36.140">  1  5  2 -1</clus>
</clustering>
</event>
<event>
 9    1  0.1601012E-005  0.1729340E+03  0.7546771E-02  0.1174943E+00
         21   -1    0    0  501  502  0.00000000000E+00  0.00000000000E+00  0.28037944277E+03  0.28037944277E+03  0.00000000000E+00 0.  1.
         -1   -1    0    0    0  501 -0.00000000000E+00 -0.00000000000E+00 -0.22540002624E+03  0.22540002624E+03  0.00000000000E+00 0.  1.
         23    2    1    2    0    0 -0.10800838347E+03 -0.11620649495E+03 -0.11586755169E+03  0.21720844121E+03  0.92652344963E+02 0.  0.
         23    2    1    2    0    0  0.89615718190E+02  0.80795183874E+02  0.47391974246E+02  0.15882748606E+03  0.91767818010E+02 0.  0.
        -11    1    3    3    0    0 -0.11879495327E+03 -0.94433795685E+02 -0.74085111619E+02  0.16887446951E+03  0.00000000000E+00 0.  1.
         11    1    3    3    0    0  0.10786569796E+02 -0.21772699266E+02 -0.41782440073E+02  0.48333971694E+02  0.00000000000E+00 0. -1.
        -13    1    4    4    0    0  0.98659848243E+02  0.39815220661E+02  0.48323393401E+02  0.11685104964E+03  0.00000000000E+00 0. -1.
         13    1    4    4    0    0 -0.90441300531E+01  0.40979963213E+02 -0.93141915453E+00  0.41976436426E+02  0.00000000000E+00 0.  1.
         -1    1    1    2    0  502  0.18392665281E+02  0.35411311076E+02  0.12345499397E+03  0.12974354175E+03  0.00000000000E+00 0.  1.
<scales pt_clust_5="13000.00000" pt_clust_6="13000.00000" pt_clust_7="13000.00000" pt_clust_8="13000.00000" pt_clust_9="39.90302"></scales>
<clustering>
<clus scale="   39.903">  1  9  2 -1</clus>
<clus scale="   91.768">  7  8 -1 -1</clus>
<clus scale="   92.652">  5  6 -1 -1</clus>
<clus scale="  172.462">  1  7  2 -1</clus>
<clus scale="   39.903">  1  5  2 -1</clus>
</clustering>
</event>
<event>
 9    1  0.1601012E-005  0.9784145E+02  0.7546771E-02  0.1289408E+00
         21   -1    0    0  501  502  0.00000000000E+00  0.00000000000E+00  0.53186000151E+03  0.53186000151E+03  0.00000000000E+00 0.  1.
         -2   -1    0    0    0  501 -0.00000000000E+00 -0.00000000000E+00 -0.43103953248E+02  0.43103953248E+02  0.00000000000E+00 0.  1.
         23    2    1    2    0    0  0.49103332784E+02  0.21093255260E+01  0.72386898799E+02  0.12819644157E+03  0.93695666760E+02 0.  0.
         23    2    1    2    0    0  0.13037414865E+02  0.22475081173E+02  0.17659461035E+03  0.19785448585E+03  0.85355947101E+02 0.  0.
        -11    1    3    3    0    0  0.30766944894E+02 -0.41505833384E+02  0.60216529896E+02  0.79343365039E+02  0.00000000000E+00 0. -1.
         11    1    3    3    0    0  0.18336387890E+02  0.43615158910E+02  0.12170368903E+02  0.48853076534E+02  0.00000000000E+00 0.  1.
        -11    1    4    4    0    0  0.18474471702E+02  0.52849263499E+02  0.13428282495E+03  0.14548617747E+03  0.00000000000E+00 0.  1.
         11    1    4    4    0    0 -0.54370568376E+01 -0.30374182326E+02  0.42311785396E+02  0.52368308379E+02  0.00000000000E+00 0. -1.
         -2    1    1    2    0  502 -0.62140747649E+02 -0.24584406699E+02  0.23977453911E+03  0.24891302733E+03  0.00000000000E+00 0.  1.
<scales pt_clust_5="13000.00000" pt_clust_6="13000.00000" pt_clust_7="13000.00000" pt_clust_8="13000.00000" pt_clust_9="66.82713"></scales>
<clustering>
<clus scale="   66.827">  1  9  2 -1</clus>
<clus scale="   85.356">  7  8 -1 -1</clus>
<clus scale="   89.887">  1  7  2 -1</clus>
<clus scale="   93.696">  5  6 -1 -1</clus>
<clus scale="   66.827">  1  5  2 -1</clus>
</clustering>
</event>
<event>
 9    1  0.1601012E-005  0.1151839E+03  0.7546771E-02  0.1253696E+00
         21   -1    0    0  501  502  0.00000000000E+00  0.00000000000E+00  0.71599250082E+02  0.71599250082E+02  0.00000000000E+00 0. -1.
          2   -1    0    0  502    0 -0.00000000000E+00 -0.00000000000E+00 -0.61309249055E+03  0.61309249055E+03  0.00000000000E+00 0. -1.
         23    2    1    2    0    0  0.57500298439E+02  0.21069034174E+02 -0.39003662634E+03  0.40700626450E+03  0.98870323843E+02 0.  0.
         23    2    1    2    0    0 -0.13630357265E+02 -0.81521714976E+02 -0.16007377493E+03  0.20249668830E+03  0.92464688945E+02 0.  0.
        -11    1    4    4    0    0 -0.48473106605E+02 -0.19755265291E+02 -0.79197348052E+02  0.94932252207E+02  0.00000000000E+00 0.  1.
         11    1    4    4    0    0  0.34842749339E+02 -0.61766449684E+02 -0.80876426880E+02  0.10756443610E+03  0.00000000000E+00 0. -1.
        -13    1    3    3    0    0 -0.18927154983E+02  0.28945030582E+02 -0.72784811624E+02  0.80583377903E+02  0.00000000000E+00 0.  1.
         13    1    3    3    0    0  0.76427453422E+02 -0.78759964075E+01 -0.31725181472E+03  0.32642288660E+03  0.00000000000E+00 0. -1.
          2    1    1    2  501    0 -0.43869941173E+02  0.60452680801E+02  0.86171608002E+01  0.75188787827E+02  0.00000000000E+00 0. -1.
<scales pt_clust_5="13000.00000" pt_clust_6="13000.00000" pt_clust_7="13000.00000" pt_clust_8="13000.00000" pt_clust_9="74.69336"></scales>
<clustering>
<clus scale="   74.693">  1  9  2 -1</clus>
<clus scale="   92.465">  5  6 -1 -1</clus>
<clus scale="   98.870">  7  8 -1 -1</clus>
<clus scale="  109.735">  1  5  2 -1</clus>
<clus scale="   74.693">  1  5  2 -1</clus>
</clustering>
</event>
<event>
 9    1  0.1601012E-005  0.1079099E+03  0.7546771E-02  0.1266435E+00
          1   -1    0    0  502    0 -0.00000000000E+00  0.00000000000E+00  0.29780826799E+03  0.29780826799E+03  0.00000000000E+00 0. -1.
         21   -1    0    0  501  502  0.00000000000E+00 -0.00000000000E+00 -0.54417151217E+03  0.54417151217E+03  0.00000000000E+00 0. -1.
         23    2    1    2    0    0  0.10039267658E+02  0.50224703906E+02  0.22096804588E+03  0.24472619179E+03  0.91873412214E+02 0.  0.
         23    2    1    2    0    0  0.32962101846E+02 -0.92516478346E+02 -0.53990419948E+01  0.13140048516E+03  0.87127142279E+02 0.  0.
        -11    1    4    4    0    0 -0.42808211720E+01 -0.84753419919E+02 -0.25184533541E+02  0.88519649500E+02  0.00000000000E+00 0.  1.
         11    1    4    4    0    0  0.37242923018E+02 -0.77630584269E+01  0.19785491546E+02  0.42880835658E+02  0.00000000000E+00 0. -1.
        -13    1    3    3    0    0  0.38723329978E+02 -0.59635051251E+01  0.11395001574E+03  0.12049757576E+03  0.00000000000E+00 0.  1.
         13    1    3    3    0    0 -0.28684062320E+02  0.56188209032E+02  0.10701803014E+03  0.12422861603E+03  0.00000000000E+00 0. -1.
          1    1    1    2  501    0 -0.43001369504E+02  0.42291774440E+02 -0.46193224807E+03  0.46585310321E+03  0.00000000000E+00 0. -1.
<scales pt_clust_5="13000.00000" pt_clust_6="13000.00000" pt_clust_7="13000.00000" pt_clust_8="13000.00000" pt_clust_9="60.31345"></scales>
<clustering>
<clus scale="   60.313">  2  9  1 -1</clus>
<clus scale="   87.127">  5  6 -1 -1</clus>
<clus scale="   91.873">  7  8 -1 -1</clus>
<clus scale="  103.899">  2  5  1 -1</clus>
<clus scale="   60.313">  2  5  1 -1</clus>
</clustering>
</event>
<event>
 9    1  0.1601012E-005  0.9817951E+02  0.7546771E-02  0.1285521E+00
         21   -1    0    0  501  502  0.00000000000E+00  0.00000000000E+00  0.49880323174E+02  0.49880323174E+02  0.00000000000E+00 0. -1.
         -1   -1    0    0    0  501 -0.00000000000E+00 -0.00000000000E+00 -0.33757113851E+03  0.33757113851E+03  0.00000000000E+00 0.  1.
         23    2    1    2    0    0 -0.56148752936E+01 -0.33535819430E+02 -0.20470377807E+03  0.22623233132E+03  0.90117994695E+02 0.  0.
         23    2    1    2    0    0 -0.15791879158E+02  0.50986440459E+02 -0.85587077211E+02  0.13347866321E+03  0.87420851000E+02 0.  0.
        -11    1    3    3    0    0  0.30039474295E+02 -0.10561741325E+02 -0.22081984859E+02  0.38749638076E+02  0.00000000000E+00 0. -1.
         11    1    3    3    0    0 -0.35654349589E+02 -0.22974078105E+02 -0.18262179321E+03  0.18748269324E+03  0.00000000000E+00 0.  1.
        -13    1    4    4    0    0 -0.24113460721E+02 -0.18561481367E+02 -0.38521585503E+02  0.49090733628E+02  0.00000000000E+00 0.  1.
         13    1    4    4    0    0  0.83215815622E+01  0.69547921826E+02 -0.47065491708E+02  0.84387929585E+02  0.00000000000E+00 0. -1.
         -1    1    1    2    0  502  0.21406754452E+02 -0.17450621029E+02  0.26000399401E+01  0.27740467158E+02  0.00000000000E+00 0.  1.
<scales pt_clust_5="13000.00000" pt_clust_6="13000.00000" pt_clust_7="13000.00000" pt_clust_8="13000.00000" pt_clust_9="27.61835"></scales>
<clustering>
<clus scale="   27.618">  1  9  2 -1</clus>
<clus scale="   87.421">  7  8 -1 -1</clus>
<clus scale="   90.118">  5  6 -1 -1</clus>
<clus scale="   95.710">  1  7  2 -1</clus>
<clus scale="   27.618">  1  5  2 -1</clus>
</clustering>
</event>
<event>
 9    1  0.1601012E-005  0.9717832E+02  0.7546771E-02  0.1287867E+00
         21   -1    0    0  501  502  0.00000000000E+00  0.00000000000E+00  0.28022574470E+03  0.28022574470E+03  0.00000000000E+00 0. -1.
          2   -1    0    0  502    0 -0.00000000000E+00 -0.00000000000E+00 -0.35055467673E+03  0.35055467673E+03  0.00000000000E+00 0. -1.
         23    2    1    2    0    0  0.10868921256E+02 -0.26732931577E+02 -0.18823504752E+03  0.21352869648E+03  0.96588239578E+02 0.  0.
         23    2    1    2    0    0 -0.83283210423E+01 -0.23969575776E+02 -0.13105677632E+03  0.16316567575E+03  0.93825676821E+02 0.  0.
        -11    1    3    3    0    0  0.30832551813E+02 -0.54307243551E+01 -0.18067997206E+03  0.18337227522E+03  0.00000000000E+00 0. -1.
         11    1    3    3    0    0 -0.19963630556E+02 -0.21302207222E+02 -0.75550754609E+01  0.30156421252E+02  0.00000000000E+00 0.  1.
        -13    1    4    4    0    0 -0.35952051451E+02  0.93670356653E+01 -0.16407075876E+02  0.40613833844E+02  0.00000000000E+00 0. -1.
         13    1    4    4    0    0  0.27623730408E+02 -0.33336611441E+02 -0.11464970044E+03  0.12255184191E+03  0.00000000000E+00 0.  1.
          2    1    1    2  501    0 -0.25406002138E+01  0.50702507353E+02  0.24896289181E+03  0.25408604920E+03  0.00000000000E+00 0. -1.
<scales pt_clust_5="13000.00000" pt_clust_6="13000.00000" pt_clust_7="13000.00000" pt_clust_8="13000.00000" pt_clust_9="50.76612"></scales>
<clustering>
<clus scale="   50.766">  1  9  2 -1</clus>
<clus scale="   93.826">  7  8 -1 -1</clus>
<clus scale="   94.433">  1  7  2 -1</clus>
<clus scale="   96.588">  5  6 -1 -1</clus>
<clus scale="   50.766">  1  5  2 -1</clus>
</clustering>
</event>
<event>
 9    1  0.1601012E-005  0.1386810E+03  0.7546771E-02  0.1229483E+00
         21   -1    0    0  501  502  0.00000000000E+00  0.00000000000E+00  0.44940054524E+03  0.44940054524E+03  0.00000000000E+00 0.  1.
         -1   -1    0    0    0  501 -0.00000000000E+00 -0.00000000000E+00 -0.85408485450E+02  0.85408485450E+02  0.00000000000E+00 0.  1.
         23    2    1    2    0    0 -0.34054099743E+02 -0.40181998265E+02  0.66156683666E+02  0.12214916115E+03  0.88144404706E+02 0.  0.
         23    2    1    2    0    0 -0.42106250744E+02 -0.31732449585E+02  0.18786295753E+02  0.11459867440E+03  0.10000023279E+03 0.  0.
        -11    1    4    4    0    0 -0.60124111490E+02 -0.20706778920E+02 -0.23125678712E+02  0.67664440378E+02  0.00000000000E+00 0.  1.
         11    1    4    4    0    0  0.18017860747E+02 -0.11025670665E+02  0.41911974465E+02  0.46934234020E+02  0.00000000000E+00 0. -1.
        -13    1    3    3    0    0 -0.53790529839E+02 -0.46437314781E+02  0.71457783365E+02  0.10077727972E+03  0.00000000000E+00 0.  1.
         13    1    3    3    0    0  0.19736430096E+02  0.62553165151E+01 -0.53010996985E+01  0.21371881426E+02  0.00000000000E+00 0. -1.
         -1    1    1    2    0  502  0.76160350487E+02  0.71914447851E+02  0.27904908037E+03  0.29806119515E+03  0.00000000000E+00 0.  1.
<scales pt_clust_5="13000.00000" pt_clust_6="13000.00000" pt_clust_7="13000.00000" pt_clust_8="13000.00000" pt_clust_9="96.08520"></scales>
<clustering>
<clus scale="   88.144">  7  8 -1 -1</clus>
<clus scale="  100.000">  5  6 -1 -1</clus>
<clus scale="  102.683">  2  7  1 -1</clus>
<clus scale="   96.085">  1  9  2 -1</clus>
<clus scale="   96.085">  1  5  2 -1</clus>
</clustering>
</event>
<event>
 9    1  0.1601012E-005  0.9051572E+02  0.7546771E-02  0.1301771E+00
          1   -1    0    0  502    0 -0.00000000000E+00  0.00000000000E+00  0.12281247377E+03  0.12281247377E+03  0.00000000000E+00 0. -1.
         21   -1    0    0  501  502  0.00000000000E+00 -0.00000000000E+00 -0.16364515936E+03  0.16364515936E+03  0.00000000000E+00 0.  1.
         23    2    1    2    0    0 -0.23567893767E+01 -0.20006599292E+02  0.23912035549E+02  0.95547509185E+02  0.90286890499E+02 0.  0.
         23    2    1    2    0    0 -0.40185826476E+01 -0.43015787728E+02  0.67519755608E+00  0.99848428391E+02  0.90015252930E+02 0.  0.
        -11    1    3    3    0    0  0.20854016545E+02  0.29337525536E+02  0.19248939158E+02  0.40817913584E+02  0.00000000000E+00 0. -1.
         11    1    3    3    0    0 -0.23210805922E+02 -0.49344124829E+02  0.46630963908E+01  0.54729595600E+02  0.00000000000E+00 0.  1.
        -11    1    4    4    0    0 -0.46515976955E+02 -0.16849162347E+02 -0.44789635242E+01  0.49675864342E+02  0.00000000000E+00 0.  1.
         11    1    4    4    0    0  0.42497394308E+02 -0.26166625381E+02  0.51541610803E+01  0.50172564049E+02  0.00000000000E+00 0. -1.
          1    1    1    2  501    0  0.63753720243E+01  0.63022387020E+02 -0.65419918693E+02  0.91061695547E+02  0.00000000000E+00 0. -1.
<scales pt_clust_5="13000.00000" pt_clust_6="13000.00000" pt_clust_7="13000.00000" pt_clust_8="13000.00000" pt_clust_9="63.34403"></scales>
<clustering>
<clus scale="   63.344">  2  9  1 -1</clus>
<clus scale="   90.015">  7  8 -1 -1</clus>
<clus scale="   90.245">  2  7  1 -1</clus>
<clus scale="   90.287">  5  6 -1 -1</clus>
<clus scale="   63.344">  2  5  1 -1</clus>
</clustering>
</event>
<event>
 9    1  0.1601012E-005  0.9453516E+02  0.7546771E-02  0.1293787E+00
         21   -1    0    0  501  502  0.00000000000E+00  0.00000000000E+00  0.26631808573E+02  0.26631808573E+02  0.00000000000E+00 0.  1.
          1   -1    0    0  502    0 -0.00000000000E+00 -0.00000000000E+00 -0.50300123398E+03  0.50300123398E+03  0.00000000000E+00 0. -1.
         23    2    1    2    0    0 -0.11698938332E+02  0.93546024311E+01 -0.19581699241E+03  0.21638607922E+03  0.90852996741E+02 0.  0.
         23    2    1    2    0    0 -0.97143559476E+01 -0.18359050134E+02 -0.13341413072E+03  0.16428626635E+03  0.93590723910E+02 0.  0.
        -11    1    4    4    0    0 -0.48488120959E+01 -0.56208656420E+02 -0.66058145143E+02  0.86871183801E+02  0.00000000000E+00 0.  1.
         11    1    4    4    0    0 -0.48655438517E+01  0.37849606285E+02 -0.67355985579E+02  0.77415082551E+02  0.00000000000E+00 0. -1.
        -13    1    3    3    0    0  0.39838085959E+02  0.65646358696E+01 -0.81180227931E+02  0.90666404715E+02  0.00000000000E+00 0.  1.
         13    1    3    3    0    0 -0.51537024291E+02  0.27899665615E+01 -0.11463676448E+03  0.12571967450E+03  0.00000000000E+00 0. -1.
          1    1    1    2  501    0  0.21413294280E+02  0.90044477032E+01 -0.14713830227E+03  0.14896069698E+03  0.00000000000E+00 0. -1.
<scales pt_clust_5="13000.00000" pt_clust_6="13000.00000" pt_clust_7="13000.00000" pt_clust_8="13000.00000" pt_clust_9="23.22950"></scales>
<clustering>
<clus scale="   23.230">  1  9  2 -1</clus>
<clus scale="   90.853">  7  8 -1 -1</clus>
<clus scale="   91.826">  2  7  1 -1</clus>
<clus scale="   93.591">  5  6 -1 -1</clus>
<clus scale="   23.230">  1  5  2 -1</clus>
</clustering>
</event>
<event>
 9    1  0.1601012E-005  0.2132429E+03  0.7546771E-02  0.1139066E+00
         21   -1    0    0  501  502  0.00000000000E+00  0.00000000000E+00  0.26450804466E+03  0.26450804466E+03  0.00000000000E+00 0.  1.
         -4   -1    0    0    0  501 -0.00000000000E+00 -0.00000000000E+00 -0.26881772462E+03  0.26881772462E+03  0.00000000000E+00 0.  1.
         23    2    1    2    0    0  0.16944120459E+03  0.19886811665E+02 -0.54312609404E+02  0.20134708819E+03  0.92113969037E+02 0.  0.
         23    2    1    2    0    0 -0.23049685226E+03  0.94714416138E+01  0.74434826587E+00  0.24821647620E+03  0.91609813325E+02 0.  0.
        -13    1    4    4    0    0 -0.12154591689E+03  0.50709677275E+02  0.20137392114E+01  0.13171536140E+03  0.00000000000E+00 0. -1.
         13    1    4    4    0    0 -0.10895093536E+03 -0.41238235662E+02 -0.12693909455E+01  0.11650111480E+03  0.00000000000E+00 0.  1.
        -13    1    3    3    0    0  0.10288832209E+03  0.45126927041E+02 -0.89389089717E+00  0.11235321716E+03  0.00000000000E+00 0.  1.
         13    1    3    3    0    0  0.66552882503E+02 -0.25240115375E+02 -0.53418718507E+02  0.88993871028E+02  0.00000000000E+00 0. -1.
         -4    1    1    2    0  502  0.61055647667E+02 -0.29358253279E+02  0.49258581180E+02  0.83762204887E+02  0.00000000000E+00 0.  1.
<scales pt_clust_5="13000.00000" pt_clust_6="13000.00000" pt_clust_7="13000.00000" pt_clust_8="13000.00000" pt_clust_9="67.74732"></scales>
<clustering>
<clus scale="   67.747">  1  9  2 -1</clus>
<clus scale="   91.610">  5  6 -1 -1</clus>
<clus scale="   92.114">  7  8 -1 -1</clus>
<clus scale="  213.026">  1  5  2 -1</clus>
<clus scale="   67.747">  1  5  2 -1</clus>
</clustering>
</event>
<event>
 9    1  0.1601012E-005  0.1222449E+03  0.7546771E-02  0.1253219E+00
         21   -1    0    0  501  502  0.00000000000E+00  0.00000000000E+00  0.11870031672E+03  0.11870031672E+03  0.00000000000E+00 0. -1.
          1   -1    0    0  502    0 -0.00000000000E+00 -0.00000000000E+00 -0.45437197703E+03  0.45437197703E+03  0.00000000000E+00 0. -1.
         23    2    1    2    0    0 -0.16533467109E+02 -0.67621893386E+01 -0.56400376889E+02  0.10848379059E+03  0.90932104162E+02 0.  0.
         23    2    1    2    0    0 -0.73971308453E+02 -0.26025567682E+02  0.42939797556E+02  0.12830568749E+03  0.92029552753E+02 0.  0.
        -11    1    3    3    0    0 -0.22544471356E+02 -0.38901280207E+02 -0.19908562250E+01  0.45005847386E+02  0.00000000000E+00 0.  1.
         11    1    3    3    0    0  0.60110042478E+01  0.32139090868E+02 -0.54409520664E+02  0.63477943199E+02  0.00000000000E+00 0. -1.
        -11    1    4    4    0    0 -0.68861385584E+02  0.17774318088E+02  0.70825960830E+01  0.71470133450E+02  0.00000000000E+00 0. -1.
         11    1    4    4    0    0 -0.51099228683E+01 -0.43799885770E+02  0.35857201473E+02  0.56835554037E+02  0.00000000000E+00 0.  1.
          1    1    1    2  501    0  0.90504775561E+02  0.32787757020E+02 -0.32221108098E+03  0.33628281567E+03  0.00000000000E+00 0. -1.
<scales pt_clust_5="13000.00000" pt_clust_6="13000.00000" pt_clust_7="13000.00000" pt_clust_8="13000.00000" pt_clust_9="80.46361"></scales>
<clustering>
<clus scale="   90.932">  5  6 -1 -1</clus>
<clus scale="   92.030">  7  8 -1 -1</clus>
<clus scale="   92.670">  2  5  1 -1</clus>
<clus scale="   80.464">  1  9  2 -1</clus>
<clus scale="   80.464">  1  5  2 -1</clus>
</clustering>
</event>
<event>
 9    1  0.1601012E-005  0.1467411E+03  0.7546771E-02  0.1205326E+00
          1   -1    0    0  502    0 -0.00000000000E+00  0.00000000000E+00  0.40210773152E+03  0.40210773152E+03  0.00000000000E+00 0. -1.
         21   -1    0    0  501  502  0.00000000000E+00 -0.00000000000E+00 -0.12612276031E+03  0.12612276031E+03  0.00000000000E+00 0. -1.
         23    2    1    2    0    0 -0.11207227944E+03  0.33175510810E+02  0.18009676459E+03  0.23241755129E+03  0.89007096322E+02 0.  0.
         23    2    1    2    0    0  0.73635207356E+02 -0.98604354044E+02  0.13978008412E+03  0.20814972736E+03  0.92967062366E+02 0.  0.
        -11    1    4    4    0    0 -0.20509705241E+02 -0.29390378986E+02  0.21046831640E+02  0.41562140321E+02  0.00000000000E+00 0. -1.
         11    1    4    4    0    0  0.94144912597E+02 -0.69213975057E+02  0.11873325248E+03  0.16658758704E+03  0.00000000000E+00 0.  1.
        -11    1    3    3    0    0 -0.74434927211E+02  0.62782447893E+02  0.10369719498E+03  0.14225084323E+03  0.00000000000E+00 0. -1.
         11    1    3    3    0    0 -0.37637352226E+02 -0.29606937083E+02  0.76399569604E+02  0.90166708056E+02  0.00000000000E+00 0.  1.
          1    1    1    2  501    0  0.38437072080E+02  0.65428843234E+02 -0.43891877496E+02  0.87663213192E+02  0.00000000000E+00 0. -1.
<scales pt_clust_5="13000.00000" pt_clust_6="13000.00000" pt_clust_7="13000.00000" pt_clust_8="13000.00000" pt_clust_9="75.88374"></scales>
<clustering>
<clus scale="   75.884">  2  9  1 -1</clus>
<clus scale="   89.007">  7  8 -1 -1</clus>
<clus scale="   92.967">  5  6 -1 -1</clus>
<clus scale="  144.265">  1  7  2 -1</clus>
<clus scale="   75.884">  2  5  1 -1</clus>
</clustering>
</event>
<event>
 9    1  0.1601012E-005  0.1058036E+03  0.7546771E-02  0.1268986E+00
         -1   -1    0    0    0  501 -0.00000000000E+00  0.00000000000E+00  0.26144759838E+03  0.26144759838E+03  0.00000000000E+00 0.  1.
         21   -1    0    0  501  502  0.00000000000E+00 -0.00000000000E+00 -0.11465708041E+03  0.11465708041E+03  0.00000000000E+00 0. -1.
         23    2    1    2    0    0  0.26132077437E+02 -0.10930600762E+01  0.78145663369E+02  0.12290719552E+03  0.91188561543E+02 0.  0.
         23    2    1    2    0    0 -0.83964707480E+02  0.62762407336E+02  0.91287186829E+02  0.16567379106E+03  0.90140239015E+02 0.  0.
        -11    1    3    3    0    0  0.42118394196E+02 -0.34591806793E+02  0.61653717700E+02  0.82290540970E+02  0.00000000000E+00 0.  1.
         11    1    3    3    0    0 -0.15986316759E+02  0.33498746716E+02  0.16491945669E+02  0.40616654553E+02  0.00000000000E+00 0. -1.
        -13    1    4    4    0    0  0.83882681993E+01  0.21181445510E+02  0.52480006774E+02  0.57211605364E+02  0.00000000000E+00 0.  1.
         13    1    4    4    0    0 -0.92352975679E+02  0.41580961826E+02  0.38807180055E+02  0.10846218570E+03  0.00000000000E+00 0. -1.
         -1    1    1    2    0  502  0.57832630043E+02 -0.61669347260E+02 -0.22642332224E+02  0.87523692208E+02  0.00000000000E+00 0.  1.
<scales pt_clust_5="13000.00000" pt_clust_6="13000.00000" pt_clust_7="13000.00000" pt_clust_8="13000.00000" pt_clust_9="84.54420"></scales>
<clustering>
<clus scale="   84.544">  2  9  1 -1</clus>
<clus scale="   90.140">  7  8 -1 -1</clus>
<clus scale="   91.189">  5  6 -1 -1</clus>
<clus scale="  104.901">  2  7  1 -1</clus>
<clus scale="   84.544">  2  5  1 -1</clus>
</clustering>
</event>
<event>
 9    1  0.1601012E-005  0.1107935E+03  0.7546771E-02  0.1261948E+00
         -1   -1    0    0    0  501 -0.00000000000E+00  0.00000000000E+00  0.35977476964E+03  0.35977476964E+03  0.00000000000E+00 0.  1.
         21   -1    0    0  501  502  0.00000000000E+00 -0.00000000000E+00 -0.82217952060E+02  0.82217952060E+02  0.00000000000E+00 0. -1.
         23    2    1    2    0    0 -0.51618458843E+02  0.98656376033E+01  0.19252577348E+03  0.21712432849E+03  0.85527799384E+02 0.  0.
         23    2    1    2    0    0  0.70007908045E+02 -0.34666560489E+02  0.12512127067E+03  0.17426716907E+03  0.92794591636E+02 0.  0.
        -11    1    4    4    0    0  0.29169634859E+02 -0.60450949695E+02  0.98278597061E+02  0.11901204795E+03  0.00000000000E+00 0.  1.
         11    1    4    4    0    0  0.40838273186E+02  0.25784389207E+02  0.26842673607E+02  0.55255121119E+02  0.00000000000E+00 0. -1.
        -13    1    3    3    0    0  0.18579068854E+02  0.21350712540E+02  0.69056156137E+02  0.74631008475E+02  0.00000000000E+00 0. -1.
         13    1    3    3    0    0 -0.70197527696E+02 -0.11485074937E+02  0.12346961735E+03  0.14249332001E+03  0.00000000000E+00 0.  1.
         -1    1    1    2    0  502 -0.18389449202E+02  0.24800922885E+02 -0.40090226573E+02  0.50601224141E+02  0.00000000000E+00 0.  1.
<scales pt_clust_5="13000.00000" pt_clust_6="13000.00000" pt_clust_7="13000.00000" pt_clust_8="13000.00000" pt_clust_9="30.87487"></scales>
<clustering>
<clus scale="   30.875">  2  9  1 -1</clus>
<clus scale="   85.528">  7  8 -1 -1</clus>
<clus scale="   92.795">  5  6 -1 -1</clus>
<clus scale="  104.782">  1  7  2 -1</clus>
<clus scale="   30.875">  2  5  1 -1</clus>
</clustering>
</event>
<event>
 9    1  0.1601012E-005  0.1057882E+03  0.7546771E-02  0.1268576E+00
         21   -1    0    0  501  502  0.00000000000E+00  0.00000000000E+00  0.60910082846E+02  0.60910082846E+02  0.00000000000E+00 0. -1.
          1   -1    0    0  502    0 -0.00000000000E+00 -0.00000000000E+00 -0.30491677478E+03  0.30491677478E+03  0.00000000000E+00 0. -1.
         23    2    1    2    0    0  0.33523303034E+02  0.41442868781E+02 -0.17521434402E+03  0.20396512296E+03  0.89779629181E+02 0.  0.
         23    2    1    2    0    0 -0.62725015293E+02 -0.27110917221E+02 -0.44612592719E+02  0.12133019885E+03  0.89784766788E+02 0.  0.
        -13    1    4    4    0    0 -0.84414110523E+02 -0.31549266226E+02 -0.30795643251E+02  0.95233764486E+02  0.00000000000E+00 0. -1.
         13    1    4    4    0    0  0.21689095231E+02  0.44383490052E+01 -0.13816949468E+02  0.26096434362E+02  0.00000000000E+00 0.  1.
        -13    1    3    3    0    0  0.35221444186E+02 -0.12194083675E+02 -0.12511980447E+03  0.13055348053E+03  0.00000000000E+00 0.  1.
         13    1    3    3    0    0 -0.16981411519E+01  0.53636952456E+02 -0.50094539544E+02  0.73411642430E+02  0.00000000000E+00 0. -1.
          1    1    1    2  501    0  0.29201712259E+02 -0.14331951560E+02 -0.24179755198E+02  0.40531535818E+02  0.00000000000E+00 0. -1.
<scales pt_clust_5="13000.00000" pt_clust_6="13000.00000" pt_clust_7="13000.00000" pt_clust_8="13000.00000" pt_clust_9="32.52914"></scales>
<clustering>
<clus scale="   32.529">  1  9  2 -1</clus>
<clus scale="   89.780">  7  8 -1 -1</clus>
<clus scale="   89.785">  5  6 -1 -1</clus>
<clus scale="  105.784">  2  7  1 -1</clus>
<clus scale="   32.529">  1  5  2 -1</clus>
</clustering>
</event>
<event>
 9    1  0.1601012E-005  0.1850115E+03  0.7546771E-02  0.1163129E+00
         21   -1    0    0  501  502  0.00000000000E+00  0.00000000000E+00  0.78019270656E+02  0.78019270656E+02  0.00000000000E+00 0.  1.
          1   -1    0    0  502    0 -0.00000000000E+00 -0.00000000000E+00 -0.61009196501E+03  0.61009196501E+03  0.00000000000E+00 0. -1.
         23    2    1    2    0    0 -0.13551082858E+03 -0.10515087585E+03 -0.33405317516E+03  0.38589384380E+03  0.88896813729E+02 0.  0.
         23    2    1    2    0    0  0.90657640831E+02  0.11660298062E+03 -0.11627894826E+03  0.20827868796E+03  0.89689214071E+02 0.  0.
        -11    1    3    3    0    0 -0.17393208194E+02 -0.52725167019E+02 -0.15822766262E+03  0.16768559911E+03  0.00000000000E+00 0. -1.
         11    1    3    3    0    0 -0.11811762039E+03 -0.52425708836E+02 -0.17582551254E+03  0.21820824469E+03  0.00000000000E+00 0.  1.
        -11    1    4    4    0    0  0.47959709826E+02  0.65635557639E+02 -0.86242748724E+01  0.81746793884E+02  0.00000000000E+00 0.  1.
         11    1    4    4    0    0  0.42697931005E+02  0.50967422980E+02 -0.10765467338E+03  0.12653189408E+03  0.00000000000E+00 0. -1.
          1    1    1    2  501    0  0.44853187748E+02 -0.11452104764E+02 -0.81740570937E+02  0.93938703907E+02  0.00000000000E+00 0. -1.
<scales pt_clust_5="13000.00000" pt_clust_6="13000.00000" pt_clust_7="13000.00000" pt_clust_8="13000.00000" pt_clust_9="46.29213"></scales>
<clustering>
<clus scale="   46.292">  1  9  2 -1</clus>
<clus scale="   88.897">  5  6 -1 -1</clus>
<clus scale="   89.689">  7  8 -1 -1</clus>
<clus scale="  184.629">  2  5  1 -1</clus>
<clus scale="   46.292">  1  5  2 -1</clus>
</clustering>
</event>
<event>
 9    1  0.1601012E-005  0.9417306E+02  0.7546771E-02  0.1293579E+00
         21   -1    0    0  501  502  0.00000000000E+00  0.00000000000E+00  0.40240994323E+02  0.40240994323E+02  0.00000000000E+00 0. -1.
          2   -1    0    0  502    0 -0.00000000000E+00 -0.00000000000E+00 -0.35026347094E+03  0.35026347094E+03  0.00000000000E+00 0. -1.
         23    2    1    2    0    0 -0.23927014968E+02  0.97199499660E+01 -0.16769196287E+03  0.19274539492E+03  0.91450606219E+02 0.  0.
         23    2    1    2    0    0  0.54474646346E+01 -0.24231543924E+02 -0.14641713445E+03  0.17390994859E+03  0.90497792037E+02 0.  0.
        -11    1    3    3    0    0  0.41810362749E+01  0.47468630154E+02 -0.76574693307E+02  0.90191105815E+02  0.00000000000E+00 0. -1.
         11    1    3    3    0    0 -0.28108051243E+02 -0.37748680188E+02 -0.91117269565E+02  0.10255428910E+03  0.00000000000E+00 0.  1.
        -11    1    4    4    0    0  0.46051230349E+02 -0.26521372931E+02 -0.85236968198E+02  0.10044620344E+03  0.00000000000E+00 0.  1.
         11    1    4    4    0    0 -0.40603765715E+02  0.22898290075E+01 -0.61180166256E+02  0.73463745142E+02  0.00000000000E+00 0. -1.
          2    1    1    2  501    0  0.18479550334E+02  0.14511593958E+02  0.40866207106E+01  0.23849121757E+02  0.00000000000E+00 0. -1.
<scales pt_clust_5="13000.00000" pt_clust_6="13000.00000" pt_clust_7="13000.00000" pt_clust_8="13000.00000" pt_clust_9="23.49639"></scales>
<clustering>
<clus scale="   23.496">  1  9  2 -1</clus>
<clus scale="   90.498">  7  8 -1 -1</clus>
<clus scale="   91.451">  5  6 -1 -1</clus>
<clus scale="   93.248">  1  7  2 -1</clus>
<clus scale="   23.496">  1  5  2 -1</clus>
</clustering>
</event>
<event>
 9    1  0.1601012E-005  0.1348216E+03  0.7546771E-02  0.1220477E+00
         21   -1    0    0  501  502  0.00000000000E+00  0.00000000000E+00  0.36553380495E+03  0.36553380495E+03  0.00000000000E+00 0.  1.
          2   -1    0    0  502    0 -0.00000000000E+00 -0.00000000000E+00 -0.14037699922E+03  0.14037699922E+03  0.00000000000E+00 0. -1.
         23    2    1    2    0    0  0.37449459530E+02  0.83424114142E+02 -0.42550239140E+02  0.13565627759E+03  0.90719666885E+02 0.  0.
         23    2    1    2    0    0 -0.25440687050E+02 -0.14911372035E+03  0.24024382749E+03  0.29804951783E+03  0.90742979219E+02 0.  0.
        -11    1    4    4    0    0 -0.31057345600E+02 -0.11615065723E+03  0.10790598964E+03  0.16155258119E+03  0.00000000000E+00 0.  1.
         11    1    4    4    0    0  0.56166585496E+01 -0.32963063117E+02  0.13233783785E+03  0.13649693664E+03  0.00000000000E+00 0. -1.
        -13    1    3    3    0    0 -0.20391414945E+02  0.61655194441E+00  0.89488964455E+01  0.22277178622E+02  0.00000000000E+00 0.  1.
         13    1    3    3    0    0  0.57840874475E+02  0.82807562198E+02 -0.51499135585E+02  0.11337909897E+03  0.00000000000E+00 0. -1.
          2    1    1    2  501    0 -0.12008772480E+02  0.65689606205E+02  0.27463217371E+02  0.72205008748E+02  0.00000000000E+00 0. -1.
<scales pt_clust_5="13000.00000" pt_clust_6="13000.00000" pt_clust_7="13000.00000" pt_clust_8="13000.00000" pt_clust_9="66.77829"></scales>
<clustering>
<clus scale="   66.778">  1  9  2 -1</clus>
<clus scale="   90.720">  7  8 -1 -1</clus>
<clus scale="   90.743">  5  6 -1 -1</clus>
<clus scale="  134.806">  2  7  1 -1</clus>
<clus scale="   66.778">  1  5  2 -1</clus>
</clustering>
</event>
<event>
 9    1  0.1601012E-005  0.1278746E+03  0.7546771E-02  0.1254357E+00
         21   -1    0    0  501  502  0.00000000000E+00  0.00000000000E+00  0.94884133219E+02  0.94884133219E+02  0.00000000000E+00 0. -1.
          2   -1    0    0  502    0 -0.00000000000E+00 -0.00000000000E+00 -0.53381028863E+03  0.53381028863E+03  0.00000000000E+00 0. -1.
         23    2    1    2    0    0  0.27064457505E+02  0.87833134386E+01 -0.70228877637E+02  0.10581776352E+03  0.73862523429E+02 0.  0.
         23    2    1    2    0    0  0.20591244435E+02  0.73014993994E+02 -0.40517309732E+03  0.42142462809E+03  0.87625850479E+02 0.  0.
        -11    1    3    3    0    0  0.33415220281E+02 -0.14738618497E+02 -0.72670589837E+02  0.81331534160E+02  0.00000000000E+00 0.  1.
         11    1    3    3    0    0 -0.63507627752E+01  0.23521931936E+02  0.24417121996E+01  0.24486229360E+02  0.00000000000E+00 0. -1.
        -13    1    4    4    0    0 -0.30457549835E+02  0.50521724477E+02 -0.17885255957E+03  0.18833041457E+03  0.00000000000E+00 0.  1.
         13    1    4    4    0    0  0.51048794269E+02  0.22493269517E+02 -0.22632053775E+03  0.23309421353E+03  0.00000000000E+00 0. -1.
          2    1    1    2  501    0 -0.47655701940E+02 -0.81798307433E+02  0.36475819554E+02  0.10145203023E+03  0.00000000000E+00 0. -1.
<scales pt_clust_5="13000.00000" pt_clust_6="13000.00000" pt_clust_7="13000.00000" pt_clust_8="13000.00000" pt_clust_9="93.13225"></scales>
<clustering>
<clus scale="   73.863">  5  6 -1 -1</clus>
<clus scale="   79.154">  2  5  1 -1</clus>
<clus scale="   87.626">  7  8 -1 -1</clus>
<clus scale="   93.132">  1  9  2 -1</clus>
<clus scale="   93.132">  1  5  2 -1</clus>
</clustering>
</event>
<event>
 9    1  0.1601012E-005  0.1233547E+03  0.7546771E-02  0.1238611E+00
         -1   -1    0    0    0  501 -0.00000000000E+00  0.00000000000E+00  0.12002623400E+04  0.12002623400E+04  0.00000000000E+00 0.  1.
         21   -1    0    0  501  502  0.00000000000E+00 -0.00000000000E+00 -0.76782220748E+02  0.76782220748E+02  0.00000000000E+00 0.  1.
         23    2    1    2    0    0  0.56202870156E+01 -0.74765200539E+02  0.58472787244E+03  0.59686255851E+03  0.93363837255E+02 0.  0.
         23    2    1    2    0    0  0.23747012630E+02  0.86125587542E+02  0.59894218886E+03  0.61225317332E+03  0.90225634984E+02 0.  0.
        -11    1    3    3    0    0 -0.43785846941E+02 -0.39924325857E+02  0.28253621980E+03  0.28868298822E+03  0.00000000000E+00 0.  1.
         11    1    3    3    0    0  0.49406133957E+02 -0.34840874683E+02  0.30219165264E+03  0.30817957029E+03  0.00000000000E+00 0. -1.
        -11    1    4    4    0    0  0.48140472017E+02  0.13494884398E+02  0.21435469418E+03  0.22010804589E+03  0.00000000000E+00 0.  1.
         11    1    4    4    0    0 -0.24393459388E+02  0.72630703144E+02  0.38458749468E+03  0.39214512743E+03  0.00000000000E+00 0. -1.
         -1    1    1    2    0  502 -0.29367299645E+02 -0.11360387003E+02 -0.60189942019E+02  0.67928828943E+02  0.00000000000E+00 0.  1.
<scales pt_clust_5="13000.00000" pt_clust_6="13000.00000" pt_clust_7="13000.00000" pt_clust_8="13000.00000" pt_clust_9="31.48804"></scales>
<clustering>
<clus scale="   31.488">  2  9  1 -1</clus>
<clus scale="   90.226">  7  8 -1 -1</clus>
<clus scale="   93.364">  5  6 -1 -1</clus>
<clus scale="  120.997">  2  7  1 -1</clus>
<clus scale="   31.488">  2  5  1 -1</clus>
</clustering>
</event>
<event>
 9    1  0.1601012E-005  0.9831696E+02  0.7546771E-02  0.1286451E+00
         21   -1    0    0  501  502  0.00000000000E+00  0.00000000000E+00  0.29431831104E+03  0.29431831104E+03  0.00000000000E+00 0. -1.
         -3   -1    0    0    0  501 -0.00000000000E+00 -0.00000000000E+00 -0.40290953035E+02  0.40290953035E+02  0.00000000000E+00 0.  1.
         23    2    1    2    0    0  0.19970843714E+02 -0.15151113801E+02  0.96138842324E+02  0.13381292958E+03  0.89637225921E+02 0.  0.
         23    2    1    2    0    0 -0.34090987359E+02 -0.35938978788E+01  0.12542414441E+03  0.16073776087E+03  0.94500265852E+02 0.  0.
        -11    1    3    3    0    0  0.32894269371E+02 -0.45332550671E+02  0.40171257055E+02  0.68926069097E+02  0.00000000000E+00 0. -1.
         11    1    3    3    0    0 -0.12923425657E+02  0.30181436870E+02  0.55967585269E+02  0.64886860481E+02  0.00000000000E+00 0.  1.
        -13    1    4    4    0    0  0.14639853514E+01  0.21325948469E+02 -0.61023336131E+01  0.22230110363E+02  0.00000000000E+00 0.  1.
         13    1    4    4    0    0 -0.35554972711E+02 -0.24919846348E+02  0.13152647803E+03  0.13850765051E+03  0.00000000000E+00 0. -1.
         -3    1    1    2    0  502  0.14120143645E+02  0.18745011680E+02  0.32464371271E+02  0.40058573632E+02  0.00000000000E+00 0.  1.
<scales pt_clust_5="13000.00000" pt_clust_6="13000.00000" pt_clust_7="13000.00000" pt_clust_8="13000.00000" pt_clust_9="23.46815"></scales>
<clustering>
<clus scale="   23.468">  1  9  2 -1</clus>
<clus scale="   89.637">  5  6 -1 -1</clus>
<clus scale="   93.652">  2  5  1 -1</clus>
<clus scale="   94.500">  7  8 -1 -1</clus>
<clus scale="   23.468">  1  5  2 -1</clus>
</clustering>
</event>
<event>
 9    1  0.1601012E-005  0.1393600E+03  0.7546771E-02  0.1214926E+00
         -1   -1    0    0    0  501 -0.00000000000E+00  0.00000000000E+00  0.66816110937E+02  0.66816110937E+02  0.00000000000E+00 0.  1.
         21   -1    0    0  501  502  0.00000000000E+00 -0.00000000000E+00 -0.91431058401E+03  0.91431058401E+03  0.00000000000E+00 0.  1.
         23    2    1    2    0    0  0.11993243140E+03  0.83172300839E+02 -0.10852874680E+03  0.20462484896E+03  0.93762573568E+02 0.  0.
         23    2    1    2    0    0 -0.41079600404E+02 -0.33454888771E+02 -0.16860711268E+03  0.19857577968E+03  0.90538492792E+02 0.  0.
        -11    1    3    3    0    0  0.92258855698E+02  0.10385213233E+03 -0.85925628578E+02  0.16334067311E+03  0.00000000000E+00 0.  1.
         11    1    3    3    0    0  0.27673575701E+02 -0.20679831492E+02 -0.22603118225E+02  0.41284175856E+02  0.00000000000E+00 0. -1.
        -11    1    4    4    0    0 -0.35088103597E+02 -0.60659000038E+02 -0.83407936170E+02  0.10893839138E+03  0.00000000000E+00 0. -1.
         11    1    4    4    0    0 -0.59914968073E+01  0.27204111267E+02 -0.85199176507E+02  0.89637388300E+02  0.00000000000E+00 0.  1.
         -1    1    1    2    0  502 -0.78852830995E+02 -0.49717412068E+02 -0.57035861360E+03  0.57792606631E+03  0.00000000000E+00 0.  1.
<scales pt_clust_5="13000.00000" pt_clust_6="13000.00000" pt_clust_7="13000.00000" pt_clust_8="13000.00000" pt_clust_9="93.21797"></scales>
<clustering>
<clus scale="   90.538">  7  8 -1 -1</clus>
<clus scale="   93.218">  2  9  1 -1</clus>
<clus scale="   93.763">  5  6 -1 -1</clus>
<clus scale="  137.211">  2  7  1 -1</clus>
<clus scale="   93.218">  2  5  1 -1</clus>
</clustering>
</event>
<event>
 9    1  0.1601012E-005  0.1186934E+03  0.7546771E-02  0.1246252E+00
          4   -1    0    0  502    0 -0.00000000000E+00  0.00000000000E+00  0.14895219224E+03  0.14895219224E+03  0.00000000000E+00 0.  1.
         21   -1    0    0  501  502  0.00000000000E+00 -0.00000000000E+00 -0.13462469481E+03  0.13462469481E+03  0.00000000000E+00 0. -1.
         23    2    1    2    0    0 -0.73937258939E+02 -0.22035762939E+02  0.57558275385E+02  0.13342042856E+03  0.92389190844E+02 0.  0.
         23    2    1    2    0    0  0.72266591749E+02 -0.63930116637E+01 -0.37798521065E+02  0.12116515343E+03  0.89380844313E+02 0.  0.
        -11    1    3    3    0    0 -0.84394258252E+02 -0.41196750746E+02  0.60019217744E+02  0.11145344138E+03  0.00000000000E+00 0.  1.
         11    1    3    3    0    0  0.10456999313E+02  0.19160987807E+02 -0.24609423594E+01  0.21966987178E+02  0.00000000000E+00 0. -1.
        -13    1    4    4    0    0 -0.64443604441E+01 -0.30266228053E+02 -0.74779850088E+00  0.30953732322E+02  0.00000000000E+00 0.  1.
         13    1    4    4    0    0  0.78710952193E+02  0.23873216389E+02 -0.37050722564E+02  0.90211421109E+02  0.00000000000E+00 0. -1.
          4    1    1    2  501    0  0.16706671903E+01  0.28428774602E+02 -0.54322568928E+01  0.28991305062E+02  0.00000000000E+00 0.  1.
<scales pt_clust_5="13000.00000" pt_clust_6="13000.00000" pt_clust_7="13000.00000" pt_clust_8="13000.00000" pt_clust_9="28.47782"></scales>
<clustering>
<clus scale="   28.478">  2  9  1 -1</clus>
<clus scale="   89.381">  7  8 -1 -1</clus>
<clus scale="   92.389">  5  6 -1 -1</clus>
<clus scale="  116.367">  2  7  1 -1</clus>
<clus scale="   28.478">  2  5  1 -1</clus>
</clustering>
</event>
<event>
 9    1  0.1601012E-005  0.9595123E+02  0.7546771E-02  0.1291427E+00
         21   -1    0    0  501  502  0.00000000000E+00  0.00000000000E+00  0.17819525364E+02  0.17819525364E+02  0.00000000000E+00 0.  1.
          1   -1    0    0  502    0 -0.00000000000E+00 -0.00000000000E+00 -0.70476748432E+03  0.70476748432E+03  0.00000000000E+00 0. -1.
         23    2    1    2    0    0  0.18185889901E+02 -0.51255702895E+01 -0.37559393143E+03  0.38649999948E+03  0.89187724561E+02 0.  0.
         23    2    1    2    0    0 -0.13148802803E+02  0.30930558927E+02 -0.22847079670E+03  0.24913357647E+03  0.93482851313E+02 0.  0.
        -11    1    4    4    0    0  0.35122764888E+02  0.28487602040E+02 -0.15273221170E+03  0.15928678719E+03  0.00000000000E+00 0. -1.
         11    1    4    4    0    0 -0.48271567691E+02  0.24429568863E+01 -0.75738585000E+02  0.89846789278E+02  0.00000000000E+00 0.  1.
        -13    1    3    3    0    0 -0.10565481421E+02  0.36728139915E+02 -0.12101017193E+03  0.12690172327E+03  0.00000000000E+00 0. -1.
         13    1    3    3    0    0  0.28751371322E+02 -0.41853710204E+02 -0.25458375950E+03  0.25959827621E+03  0.00000000000E+00 0.  1.
          1    1    1    2  501    0 -0.50370870977E+01 -0.25804988637E+02 -0.82883230830E+02  0.86953433732E+02  0.00000000000E+00 0. -1.
<scales pt_clust_5="13000.00000" pt_clust_6="13000.00000" pt_clust_7="13000.00000" pt_clust_8="13000.00000" pt_clust_9="26.29202"></scales>
<clustering>
<clus scale="   26.292">  1  9  2 -1</clus>
<clus scale="   89.188">  7  8 -1 -1</clus>
<clus scale="   91.772">  2  7  1 -1</clus>
<clus scale="   93.483">  5  6 -1 -1</clus>
<clus scale="   26.292">  1  5  2 -1</clus>
</clustering>
</event>
<event>
 9    1  0.1601012E-005  0.1468122E+03  0.7546771E-02  0.1204701E+00
          2   -1    0    0  502    0 -0.00000000000E+00  0.00000000000E+00  0.22564348583E+03  0.22564348583E+03  0.00000000000E+00 0. -1.
         21   -1    0    0  501  502  0.00000000000E+00 -0.00000000000E+00 -0.20158416456E+03  0.20158416456E+03  0.00000000000E+00 0. -1.
         23    2    1    2    0    0 -0.10410203373E+03  0.13166428908E+03  0.29750773900E+02  0.19382916815E+03  0.92260064132E+02 0.  0.
         23    2    1    2    0    0  0.40608994256E+02 -0.44852706689E+02 -0.45991617847E+02  0.11854326810E+03  0.90974841514E+02 0.  0.
        -13    1    3    3    0    0  0.17067523502E+02  0.23237258647E+02  0.67488956907E+01  0.29611115159E+02  0.00000000000E+00 0.  1.
         13    1    3    3    0    0 -0.12116955723E+03  0.10842703043E+03  0.23001878210E+02  0.16421805299E+03  0.00000000000E+00 0. -1.
        -13    1    4    4    0    0  0.37592620269E+01  0.26679709788E+02 -0.21386191715E+02  0.34399246524E+02  0.00000000000E+00 0.  1.
         13    1    4    4    0    0  0.36849732230E+02 -0.71532416476E+02 -0.24605426132E+02  0.84144021579E+02  0.00000000000E+00 0. -1.
          2    1    1    2  501    0  0.63493039471E+02 -0.86811582390E+02  0.40300165219E+02  0.11485521414E+03  0.00000000000E+00 0. -1.
<scales pt_clust_5="13000.00000" pt_clust_6="13000.00000" pt_clust_7="13000.00000" pt_clust_8="13000.00000" pt_clust_9="107.55291"></scales>
<clustering>
<clus scale="   90.975">  7  8 -1 -1</clus>
<clus scale="   92.260">  5  6 -1 -1</clus>
<clus scale="  107.553">  2  9  1 -1</clus>
<clus scale="  146.008">  2  7  1 -1</clus>
<clus scale="  107.553">  2  5  1 -1</clus>
</clustering>
</event>
<event>
 9    1  0.1601012E-005  0.2947087E+03  0.7546771E-02  0.1087960E+00
         -1   -1    0    0    0  501 -0.00000000000E+00  0.00000000000E+00  0.62362356174E+03  0.62362356174E+03  0.00000000000E+00 0.  1.
         21   -1    0    0  501  502  0.00000000000E+00 -0.00000000000E+00 -0.20672746619E+03  0.20672746619E+03  0.00000000000E+00 0.  1.
         23    2    1    2    0    0  0.18834177265E+03  0.19651480768E+03  0.31903648345E+03  0.42908733901E+03  0.90779809242E+02 0.  0.
         23    2    1    2    0    0 -0.15566438013E+03 -0.25963498295E+03  0.96626661916E+02  0.33017579492E+03  0.89652775452E+02 0.  0.
        -11    1    3    3    0    0  0.55749971863E+00  0.21164654370E+02  0.23722279375E+01  0.21304479949E+02  0.00000000000E+00 0. -1.
         11    1    3    3    0    0  0.18778427293E+03  0.17535015331E+03  0.31666425551E+03  0.40778285906E+03  0.00000000000E+00 0.  1.
        -13    1    4    4    0    0  0.17102870006E+01 -0.59685181072E+02  0.31548099237E+02  0.67531685057E+02  0.00000000000E+00 0. -1.
         13    1    4    4    0    0 -0.15737466714E+03 -0.19994980188E+03  0.65078562679E+02  0.26264410986E+03  0.00000000000E+00 0.  1.
         -1    1    1    2    0  502 -0.32677392514E+02  0.63120175265E+02  0.12329501846E+01  0.71087893999E+02  0.00000000000E+00 0.  1.
<scales pt_clust_5="13000.00000" pt_clust_6="13000.00000" pt_clust_7="13000.00000" pt_clust_8="13000.00000" pt_clust_9="71.07720"></scales>
<clustering>
<clus scale="   71.077">  2  9  1 -1</clus>
<clus scale="   89.653">  7  8 -1 -1</clus>
<clus scale="   90.780">  5  6 -1 -1</clus>
<clus scale="  294.363">  2  7  1 -1</clus>
<clus scale="   71.077">  2  5  1 -1</clus>
</clustering>
</event>
<event>
 9    1  0.1601012E-005  0.1034813E+03  0.7546771E-02  0.1275252E+00
          1   -1    0    0  502    0 -0.00000000000E+00  0.00000000000E+00  0.16083984443E+03  0.16083984443E+03  0.00000000000E+00 0. -1.
         21   -1    0    0  501  502  0.00000000000E+00 -0.00000000000E+00 -0.22442499784E+03  0.22442499784E+03  0.00000000000E+00 0. -1.
         23    2    1    2    0    0 -0.24673578566E+02  0.43604813521E+02  0.79036622241E+02  0.13415984926E+03  0.96134864941E+02 0.  0.
         23    2    1    2    0    0 -0.27858497571E+02 -0.27151251114E+02 -0.14875440844E+01  0.99615026153E+02  0.91693262152E+02 0.  0.
        -11    1    3    3    0    0 -0.57232962499E+02  0.23784494308E+02  0.72676181328E+02  0.95515137535E+02  0.00000000000E+00 0. -1.
         11    1    3    3    0    0  0.32559383934E+02  0.19820319212E+02  0.63604409127E+01  0.38644711726E+02  0.00000000000E+00 0.  1.
        -13    1    4    4    0    0  0.27308852222E+02 -0.19967481446E+02 -0.21962335606E+02  0.40333830840E+02  0.00000000000E+00 0.  1.
         13    1    4    4    0    0 -0.55167349793E+02 -0.71837696678E+01  0.20474791521E+02  0.59281195313E+02  0.00000000000E+00 0. -1.
          1    1    1    2  501    0  0.52532076137E+02 -0.16453562407E+02 -0.14113423157E+03  0.15148996686E+03  0.00000000000E+00 0. -1.
<scales pt_clust_5="13000.00000" pt_clust_6="13000.00000" pt_clust_7="13000.00000" pt_clust_8="13000.00000" pt_clust_9="55.04851"></scales>
<clustering>
<clus scale="   55.049">  2  9  1 -1</clus>
<clus scale="   91.693">  7  8 -1 -1</clus>
<clus scale="   96.135">  5  6 -1 -1</clus>
<clus scale="   99.369">  2  7  1 -1</clus>
<clus scale="   55.049">  2  5  1 -1</clus>
</clustering>
</event>
<event>
 9    1  0.1601012E-005  0.1008235E+03  0.7546771E-02  0.1282811E+00
         21   -1    0    0  501  502  0.00000000000E+00  0.00000000000E+00  0.38662320313E+02  0.38662320313E+02  0.00000000000E+00 0.  1.
          2   -1    0    0  502    0 -0.00000000000E+00 -0.00000000000E+00 -0.60017235275E+03  0.60017235275E+03  0.00000000000E+00 0. -1.
         23    2    1    2    0    0 -0.28499337505E+02  0.10895558004E+02 -0.49473181465E+03  0.50488706920E+03  0.96023220062E+02 0.  0.
         23    2    1    2    0    0  0.21428694762E+02 -0.30359998323E+02 -0.56630072514E+02  0.11088587630E+03  0.87794043039E+02 0.  0.
        -13    1    3    3    0    0  0.24187121992E+02 -0.26482178546E+02 -0.19537954436E+03  0.19864412653E+03  0.00000000000E+00 0. -1.
         13    1    3    3    0    0 -0.52686459498E+02  0.37377736550E+02 -0.29935227029E+03  0.30624294267E+03  0.00000000000E+00 0.  1.
        -13    1    4    4    0    0 -0.33249913464E+02 -0.12618098971E+02 -0.33705761130E+02  0.48998484674E+02  0.00000000000E+00 0.  1.
         13    1    4    4    0    0  0.54678608226E+02 -0.17741899352E+02 -0.22924311383E+02  0.61887391628E+02  0.00000000000E+00 0. -1.
          2    1    1    2  501    0  0.70706427429E+01  0.19464440319E+02 -0.10148145270E+02  0.23061727562E+02  0.00000000000E+00 0. -1.
<scales pt_clust_5="13000.00000" pt_clust_6="13000.00000" pt_clust_7="13000.00000" pt_clust_8="13000.00000" pt_clust_9="20.70890"></scales>
<clustering>
<clus scale="   20.709">  1  9  2 -1</clus>
<clus scale="   87.794">  7  8 -1 -1</clus>
<clus scale="   93.020">  1  7  2 -1</clus>
<clus scale="   96.023">  5  6 -1 -1</clus>
<clus scale="   20.709">  1  5  2 -1</clus>
</clustering>
</event>
<event>
 9    1  0.1601012E-005  0.9290823E+02  0.7546771E-02  0.1296403E+00
         21   -1    0    0  501  502  0.00000000000E+00  0.00000000000E+00  0.17570697232E+03  0.17570697232E+03  0.00000000000E+00 0.  1.
         -3   -1    0    0    0  501 -0.00000000000E+00 -0.00000000000E+00 -0.14067604846E+03  0.14067604846E+03  0.00000000000E+00 0.  1.
         23    2    1    2    0    0 -0.41926013705E+01  0.17786906992E+01 -0.56739460596E+02  0.10793733008E+03  0.91708010498E+02 0.  0.
         23    2    1    2    0    0 -0.35810032960E+02 -0.61192963695E+02  0.61532454519E+02  0.13069867149E+03  0.90933835857E+02 0.  0.
        -11    1    3    3    0    0  0.28709045024E+02  0.21413963326E+02  0.40879463996E+01  0.36048278701E+02  0.00000000000E+00 0. -1.
         11    1    3    3    0    0 -0.32901646395E+02 -0.19635272627E+02 -0.60827406995E+02  0.71889051380E+02  0.00000000000E+00 0.  1.
        -13    1    4    4    0    0 -0.40901502132E+02 -0.81789455188E+02  0.60112516682E+02  0.10943474091E+03  0.00000000000E+00 0.  1.
         13    1    4    4    0    0  0.50914691716E+01  0.20596491493E+02  0.14199378366E+01  0.21263930578E+02  0.00000000000E+00 0. -1.
         -3    1    1    2    0  502  0.40002634331E+02  0.59414272996E+02  0.30237929932E+02  0.77747019207E+02  0.00000000000E+00 0.  1.
<scales pt_clust_5="13000.00000" pt_clust_6="13000.00000" pt_clust_7="13000.00000" pt_clust_8="13000.00000" pt_clust_9="71.62588"></scales>
<clustering>
<clus scale="   71.626">  1  9  2 -1</clus>
<clus scale="   90.934">  7  8 -1 -1</clus>
<clus scale="   91.708">  5  6 -1 -1</clus>
<clus scale="   92.144">  1  7  2 -1</clus>
<clus scale="   71.626">  1  5  2 -1</clus>
</clustering>
</event>
<event>
 9    1  0.1601012E-005  0.9060793E+02  0.7546771E-02  0.1301856E+00
         21   -1    0    0  501  502  0.00000000000E+00  0.00000000000E+00  0.11527121274E+03  0.11527121274E+03  0.00000000000E+00 0.  1.
          2   -1    0    0  502    0 -0.00000000000E+00 -0.00000000000E+00 -0.28460306441E+03  0.28460306441E+03  0.00000000000E+00 0.  1.
         23    2    1    2    0    0  0.57607249595E+01 -0.13332006248E+01 -0.14405870509E+03  0.16941433778E+03  0.88956978129E+02 0.  0.
         23    2    1    2    0    0 -0.15914347543E+02 -0.19166658802E+02 -0.10916926171E+03  0.14350076262E+03  0.89743600900E+02 0.  0.
        -13    1    4    4    0    0 -0.46425596778E+02 -0.34624889002E+02 -0.78559806459E+02  0.97600523387E+02  0.00000000000E+00 0.  1.
         13    1    4    4    0    0  0.30511249234E+02  0.15458230199E+02 -0.30609455248E+02  0.45900239230E+02  0.00000000000E+00 0. -1.
        -13    1    3    3    0    0 -0.15761186077E+02  0.12755066943E+02  0.26674358551E+01  0.20450475136E+02  0.00000000000E+00 0. -1.
         13    1    3    3    0    0  0.21521911036E+02 -0.14088267567E+02 -0.14672614094E+03  0.14896386264E+03  0.00000000000E+00 0.  1.
          2    1    1    2  501    0  0.10153622584E+02  0.20499859427E+02  0.83896115126E+02  0.86959176752E+02  0.00000000000E+00 0.  1.
<scales pt_clust_5="13000.00000" pt_clust_6="13000.00000" pt_clust_7="13000.00000" pt_clust_8="13000.00000" pt_clust_9="22.87663"></scales>
<clustering>
<clus scale="   22.877">  1  9  2 -1</clus>
<clus scale="   88.957">  7  8 -1 -1</clus>
<clus scale="   89.744">  5  6 -1 -1</clus>
<clus scale="   89.829">  2  7  1 -1</clus>
<clus scale="   22.877">  1  5  2 -1</clus>
</clustering>
</event>
<event>
 9    1  0.1601012E-005  0.1409276E+03  0.7546771E-02  0.1212232E+00
         21   -1    0    0  501  502  0.00000000000E+00  0.00000000000E+00  0.47839897887E+03  0.47839897887E+03  0.00000000000E+00 0. -1.
         -3   -1    0    0    0  501 -0.00000000000E+00 -0.00000000000E+00 -0.11707568551E+03  0.11707568551E+03  0.00000000000E+00 0.  1.
         23    2    1    2    0    0  0.42686459877E+02  0.95945760846E+02 -0.39803351800E+02  0.14420467466E+03  0.90459706488E+02 0.  0.
         23    2    1    2    0    0 -0.74805326779E+02 -0.10044808248E+03  0.22837941780E+03  0.27550452931E+03  0.89777129646E+02 0.  0.
        -11    1    4    4    0    0 -0.62594859423E+02 -0.11722887758E+03  0.18983754022E+03  0.23173048535E+03  0.00000000000E+00 0. -1.
         11    1    4    4    0    0 -0.12210467357E+02  0.16780795097E+02  0.38541877584E+02  0.43774043963E+02  0.00000000000E+00 0.  1.
        -11    1    3    3    0    0  0.53960693589E+02  0.14807962242E+02 -0.89357326890E+01  0.56664623153E+02  0.00000000000E+00 0.  1.
         11    1    3    3    0    0 -0.11274233712E+02  0.81137798604E+02 -0.30867619111E+02  0.87540051506E+02  0.00000000000E+00 0. -1.
         -3    1    1    2    0  502  0.32118866902E+02  0.45023216379E+01  0.17274722736E+03  0.17576546040E+03  0.00000000000E+00 0.  1.
<scales pt_clust_5="13000.00000" pt_clust_6="13000.00000" pt_clust_7="13000.00000" pt_clust_8="13000.00000" pt_clust_9="32.43289"></scales>
<clustering>
<clus scale="   32.433">  1  9  2 -1</clus>
<clus scale="   89.777">  5  6 -1 -1</clus>
<clus scale="   90.460">  7  8 -1 -1</clus>
<clus scale="  140.490">  1  5  2 -1</clus>
<clus scale="   32.433">  1  5  2 -1</clus>
</clustering>
</event>
<event>
 9    1  0.1601012E-005  0.2457676E+03  0.7546771E-02  0.1116075E+00
          2   -1    0    0  502    0 -0.00000000000E+00  0.00000000000E+00  0.75865273264E+03  0.75865273264E+03  0.00000000000E+00 0. -1.
         21   -1    0    0  501  502  0.00000000000E+00 -0.00000000000E+00 -0.13331376846E+03  0.13331376846E+03  0.00000000000E+00 0. -1.
         23    2    1    2    0    0  0.19520070451E+03 -0.11114700382E+03  0.54320504908E+03  0.59486182207E+03  0.91279189946E+02 0.  0.
         23    2    1    2    0    0 -0.21947212738E+03  0.98530677502E+02  0.69074944237E+02  0.26679279393E+03  0.92361993613E+02 0.  0.
        -11    1    3    3    0    0  0.16957348366E+03 -0.82890835505E+02  0.34728953348E+03  0.39526709582E+03  0.00000000000E+00 0. -1.
         11    1    3    3    0    0  0.25627220844E+02 -0.28256168315E+02  0.19591551560E+03  0.19959472626E+03  0.00000000000E+00 0.  1.
        -13    1    4    4    0    0 -0.13248815322E+03  0.12414753149E+02  0.53433197954E+02  0.14339575825E+03  0.00000000000E+00 0.  1.
         13    1    4    4    0    0 -0.86983974158E+02  0.86115924353E+02  0.15641746283E+02  0.12339703568E+03  0.00000000000E+00 0. -1.
          2    1    1    2  501    0  0.24271422873E+02  0.12616326318E+02  0.13058970872E+02  0.30311885099E+02  0.00000000000E+00 0. -1.
<scales pt_clust_5="13000.00000" pt_clust_6="13000.00000" pt_clust_7="13000.00000" pt_clust_8="13000.00000" pt_clust_9="27.35459"></scales>
<clustering>
<clus scale="   27.355">  2  9  1 -1</clus>
<clus scale="   91.279">  5  6 -1 -1</clus>
<clus scale="   92.362">  7  8 -1 -1</clus>
<clus scale="  245.363">  1  5  2 -1</clus>
<clus scale="   27.355">  2  5  1 -1</clus>
</clustering>
</event>
<event>
 9    1  0.1601012E-005  0.9808692E+02  0.7546771E-02  0.1285788E+00
         21   -1    0    0  501  502  0.00000000000E+00  0.00000000000E+00  0.55494214193E+02  0.55494214193E+02  0.00000000000E+00 0.  1.
          2   -1    0    0  502    0 -0.00000000000E+00 -0.00000000000E+00 -0.25510093474E+03  0.25510093474E+03  0.00000000000E+00 0. -1.
         23    2    1    2    0    0  0.34102145818E+01 -0.43030024347E+02 -0.13516232854E+03  0.16891608133E+03  0.91654650286E+02 0.  0.
         23    2    1    2    0    0 -0.21031849672E+02  0.16248379298E+02 -0.38509263654E+02  0.10044304672E+03  0.88879096066E+02 0.  0.
        -11    1    4    4    0    0 -0.20225793625E+02 -0.19634581833E+02  0.18038558574E+02  0.33466238614E+02  0.00000000000E+00 0.  1.
         11    1    4    4    0    0 -0.80605604629E+00  0.35882961131E+02 -0.56547822228E+02  0.66976808110E+02  0.00000000000E+00 0. -1.
        -13    1    3    3    0    0  0.44282473976E+02 -0.32320050764E+02 -0.51637221144E+02  0.75312188856E+02  0.00000000000E+00 0. -1.
         13    1    3    3    0    0 -0.40872259394E+02 -0.10709973583E+02 -0.83525107394E+02  0.93603892479E+02  0.00000000000E+00 0.  1.
          2    1    1    2  501    0  0.17621635090E+02  0.26781645049E+02 -0.25935128357E+02  0.41236020876E+02  0.00000000000E+00 0. -1.
<scales pt_clust_5="13000.00000" pt_clust_6="13000.00000" pt_clust_7="13000.00000" pt_clust_8="13000.00000" pt_clust_9="32.05899"></scales>
<clustering>
<clus scale="   32.059">  1  9  2 -1</clus>
<clus scale="   88.879">  5  6 -1 -1</clus>
<clus scale="   91.655">  7  8 -1 -1</clus>
<clus scale="   95.498">  1  5  2 -1</clus>
<clus scale="   32.059">  1  5  2 -1</clus>
</clustering>
</event>
<event>
 9    1  0.1601012E-005  0.9926789E+02  0.7546771E-02  0.1284678E+00
         -1   -1    0    0    0  501 -0.00000000000E+00  0.00000000000E+00  0.14043433548E+03  0.14043433548E+03  0.00000000000E+00 0.  1.
         21   -1    0    0  501  502  0.00000000000E+00 -0.00000000000E+00 -0.38961501307E+03  0.38961501307E+03  0.00000000000E+00 0.  1.
         23    2    1    2    0    0  0.11024295360E+02  0.18377083341E+02  0.66060349255E+02  0.11657391294E+03  0.93628281813E+02 0.  0.
         23    2    1    2    0    0  0.64622542991E+01 -0.70274525149E+02 -0.21806856592E+02  0.11497462126E+03  0.88109902536E+02 0.  0.
        -11    1    3    3    0    0  0.23612458042E+02  0.52402447658E+02  0.27796261467E+02  0.63845100414E+02  0.00000000000E+00 0. -1.
         11    1    3    3    0    0 -0.12588162682E+02 -0.34025364317E+02  0.38264087788E+02  0.52728812531E+02  0.00000000000E+00 0.  1.
        -11    1    4    4    0    0 -0.12337459600E+02 -0.61773598212E+02 -0.49728815538E+02  0.80256747008E+02  0.00000000000E+00 0. -1.
         11    1    4    4    0    0  0.18799713899E+02 -0.85009269369E+01  0.27921958946E+02  0.34717874256E+02  0.00000000000E+00 0.  1.
         -1    1    1    2    0  502 -0.17486549660E+02  0.51897441808E+02 -0.29343417026E+03  0.29850081434E+03  0.00000000000E+00 0.  1.
<scales pt_clust_5="13000.00000" pt_clust_6="13000.00000" pt_clust_7="13000.00000" pt_clust_8="13000.00000" pt_clust_9="54.76426"></scales>
<clustering>
<clus scale="   54.764">  2  9  1 -1</clus>
<clus scale="   88.110">  7  8 -1 -1</clus>
<clus scale="   93.628">  5  6 -1 -1</clus>
<clus scale="   94.081">  2  7  1 -1</clus>
<clus scale="   54.764">  2  5  1 -1</clus>
</clustering>
</event>
<event>
 9    1  0.1601012E-005  0.2021107E+03  0.7546771E-02  0.1148095E+00
         21   -1    0    0  501  502  0.00000000000E+00  0.00000000000E+00  0.52411835224E+03  0.52411835224E+03  0.00000000000E+00 0. -1.
          2   -1    0    0  502    0 -0.00000000000E+00 -0.00000000000E+00 -0.25840106930E+03  0.25840106930E+03  0.00000000000E+00 0. -1.
         23    2    1    2    0    0 -0.89596708153E+02  0.15532825744E+03 -0.17449343301E+03  0.26596152706E+03  0.90183912329E+02 0.  0.
         23    2    1    2    0    0  0.56288421307E+02 -0.18479275211E+03  0.41126116177E+03  0.46349495915E+03  0.91515497965E+02 0.  0.
        -11    1    3    3    0    0  0.16550652541E+02  0.21079525471E+02 -0.40681220515E+02  0.48715831063E+02  0.00000000000E+00 0.  1.
         11    1    3    3    0    0 -0.10614736069E+03  0.13424873197E+03 -0.13381221249E+03  0.21724569600E+03  0.00000000000E+00 0. -1.
        -13    1    4    4    0    0 -0.69632134272E-01 -0.67960590949E+02  0.23511852706E+03  0.24474347496E+03  0.00000000000E+00 0. -1.
         13    1    4    4    0    0  0.56358053442E+02 -0.11683216116E+03  0.17614263471E+03  0.21875148418E+03  0.00000000000E+00 0.  1.
          2    1    1    2  501    0  0.33308286846E+02  0.29464494663E+02  0.28949554181E+02  0.53062935328E+02  0.00000000000E+00 0. -1.
<scales pt_clust_5="13000.00000" pt_clust_6="13000.00000" pt_clust_7="13000.00000" pt_clust_8="13000.00000" pt_clust_9="44.47020"></scales>
<clustering>
<clus scale="   44.470">  1  9  2 -1</clus>
<clus scale="   90.184">  5  6 -1 -1</clus>
<clus scale="   91.515">  7  8 -1 -1</clus>
<clus scale="  201.511">  2  5  1 -1</clus>
<clus scale="   44.470">  1  5  2 -1</clus>
</clustering>
</event>
<event>
 9    1  0.1601012E-005  0.9412219E+02  0.7546771E-02  0.1294664E+00
         21   -1    0    0  501  502  0.00000000000E+00  0.00000000000E+00  0.43539956354E+02  0.43539956354E+02  0.00000000000E+00 0. -1.
         -2   -1    0    0    0  501 -0.00000000000E+00 -0.00000000000E+00 -0.28540423741E+03  0.28540423741E+03  0.00000000000E+00 0.  1.
         23    2    1    2    0    0  0.12149915842E+02  0.33248611375E+01 -0.15942173069E+03  0.18323976990E+03  0.89458649111E+02 0.  0.
         23    2    1    2    0    0 -0.30370158068E+02 -0.13293461130E+02 -0.76090346366E+02  0.12398575198E+03  0.92106803626E+02 0.  0.
        -13    1    3    3    0    0  0.24649476598E+02 -0.13558217052E+02 -0.15977242847E+03  0.16223024023E+03  0.00000000000E+00 0.  1.
         13    1    3    3    0    0 -0.12499560756E+02  0.16883078189E+02  0.35069777512E+00  0.21009529675E+02  0.00000000000E+00 0. -1.
        -13    1    4    4    0    0 -0.13762054944E+02  0.34720021385E+02 -0.60035557564E+02  0.70704612390E+02  0.00000000000E+00 0.  1.
         13    1    4    4    0    0 -0.16608103124E+02 -0.48013482514E+02 -0.16054788801E+02  0.53281139590E+02  0.00000000000E+00 0. -1.
         -2    1    1    2    0  502  0.18220242226E+02  0.99685999920E+01 -0.63522039960E+01  0.21718671879E+02  0.00000000000E+00 0.  1.
<scales pt_clust_5="13000.00000" pt_clust_6="13000.00000" pt_clust_7="13000.00000" pt_clust_8="13000.00000" pt_clust_9="20.76897"></scales>
<clustering>
<clus scale="   20.769">  1  9  2 -1</clus>
<clus scale="   89.459">  5  6 -1 -1</clus>
<clus scale="   91.532">  2  5  1 -1</clus>
<clus scale="   92.107">  7  8 -1 -1</clus>
<clus scale="   20.769">  1  5  2 -1</clus>
</clustering>
</event>
<event>
 9    1  0.1601012E-005  0.1193433E+03  0.7546771E-02  0.1244721E+00
         21   -1    0    0  501  502  0.00000000000E+00  0.00000000000E+00  0.77595350093E+03  0.77595350093E+03  0.00000000000E+00 0.  1.
         -1   -1    0    0    0  501 -0.00000000000E+00 -0.00000000000E+00 -0.23827542601E+03  0.23827542601E+03  0.00000000000E+00 0.  1.
         23    2    1    2    0    0  0.88478704173E+02 -0.18899351128E+02 -0.19404433864E+03  0.23249652846E+03  0.90640850747E+02 0.  0.
         23    2    1    2    0    0  0.30177622646E+01  0.36901915673E+02  0.85478954369E+02  0.12879572143E+03  0.88942835291E+02 0.  0.
        -11    1    3    3    0    0  0.65271521484E+01 -0.20217159155E+02 -0.12055491914E+03  0.12241252292E+03  0.00000000000E+00 0.  1.
         11    1    3    3    0    0  0.81951552025E+02  0.13178080271E+01 -0.73489419496E+02  0.11008400554E+03  0.00000000000E+00 0. -1.
        -13    1    4    4    0    0  0.20460836120E+02  0.62246955437E+02  0.56203249986E+02  0.86325746941E+02  0.00000000000E+00 0.  1.
         13    1    4    4    0    0 -0.17443073855E+02 -0.25345039763E+02  0.29275704383E+02  0.42469974491E+02  0.00000000000E+00 0. -1.
         -1    1    1    2    0  502 -0.91496466438E+02 -0.18002564545E+02  0.64624345919E+03  0.65293667706E+03  0.00000000000E+00 0.  1.
<scales pt_clust_5="13000.00000" pt_clust_6="13000.00000" pt_clust_7="13000.00000" pt_clust_8="13000.00000" pt_clust_9="93.25071"></scales>
<clustering>
<clus scale="   88.943">  7  8 -1 -1</clus>
<clus scale="   90.641">  5  6 -1 -1</clus>
<clus scale="   93.251">  1  9  2 -1</clus>
<clus scale="  118.059">  1  7  2 -1</clus>
<clus scale="   93.251">  1  5  2 -1</clus>
</clustering>
</event>
<event>
 9    1  0.1601012E-005  0.1341459E+03  0.7546771E-02  0.1221997E+00
          4   -1    0    0  502    0 -0.00000000000E+00  0.00000000000E+00  0.31793510560E+03  0.31793510560E+03  0.00000000000E+00 0. -1.
         21   -1    0    0  501  502  0.00000000000E+00 -0.00000000000E+00 -0.13449247053E+03  0.13449247053E+03  0.00000000000E+00 0.  1.
         23    2    1    2    0    0 -0.11120701168E+03 -0.10630676245E+02  0.21417094363E+03  0.25929013063E+03  0.94245254643E+02 0.  0.
         23    2    1    2    0    0  0.62357725846E+02 -0.22385488604E+02  0.20299591048E+02  0.11516202368E+03  0.91981640718E+02 0.  0.
        -13    1    4    4    0    0  0.67250889517E+02  0.16886594487E+02  0.28115402443E+02  0.74821888968E+02  0.00000000000E+00 0. -1.
         13    1    4    4    0    0 -0.48931636703E+01 -0.39272083091E+02 -0.78158113952E+01  0.40340134714E+02  0.00000000000E+00 0.  1.
        -13    1    3    3    0    0 -0.35227020465E+02 -0.44604817204E+02  0.12498088645E+03  0.13729805048E+03  0.00000000000E+00 0.  1.
         13    1    3    3    0    0 -0.75979991214E+02  0.33974140959E+02  0.89190057181E+02  0.12199208015E+03  0.00000000000E+00 0. -1.
          4    1    1    2  501    0  0.48849285833E+02  0.33016164849E+02 -0.51027899619E+02  0.77975421815E+02  0.00000000000E+00 0. -1.
<scales pt_clust_5="13000.00000" pt_clust_6="13000.00000" pt_clust_7="13000.00000" pt_clust_8="13000.00000" pt_clust_9="58.96032"></scales>
<clustering>
<clus scale="   58.960">  2  9  1 -1</clus>
<clus scale="   91.982">  5  6 -1 -1</clus>
<clus scale="   94.245">  7  8 -1 -1</clus>
<clus scale="  132.565">  2  5  1 -1</clus>
<clus scale="   58.960">  2  5  1 -1</clus>
</clustering>
</event>
<event>
 9    1  0.1601012E-005  0.1588905E+03  0.7546771E-02  0.1190419E+00
         -4   -1    0    0    0  501 -0.00000000000E+00  0.00000000000E+00  0.12844056685E+04  0.12844056685E+04  0.00000000000E+00 0.  1.
         21   -1    0    0  501  502  0.00000000000E+00 -0.00000000000E+00 -0.23706249756E+02  0.23706249756E+02  0.00000000000E+00 0.  1.
         23    2    1    2    0    0  0.16799674721E+02  0.11705229706E+03  0.53585947854E+03  0.55617406623E+03  0.90557947693E+02 0.  0.
         23    2    1    2    0    0 -0.36006398946E+02 -0.14056633338E+03  0.60426405894E+03  0.62759819100E+03  0.87687408335E+02 0.  0.
        -11    1    3    3    0    0 -0.21857409719E+02  0.13982337281E+02  0.36239358377E+02  0.44570654147E+02  0.00000000000E+00 0.  1.
         11    1    3    3    0    0  0.38657084440E+02  0.10306995978E+03  0.49962012016E+03  0.51160341209E+03  0.00000000000E+00 0. -1.
        -11    1    4    4    0    0  0.96329517910E+01 -0.62190455316E+02  0.12635845837E+03  0.14116269513E+03  0.00000000000E+00 0. -1.
         11    1    4    4    0    0 -0.45639350737E+02 -0.78375878064E+02  0.47790560057E+03  0.48643549588E+03  0.00000000000E+00 0.  1.
         -4    1    1    2    0  502  0.19206724225E+02  0.23514036323E+02  0.12057588126E+03  0.12433966101E+03  0.00000000000E+00 0.  1.
<scales pt_clust_5="13000.00000" pt_clust_6="13000.00000" pt_clust_7="13000.00000" pt_clust_8="13000.00000" pt_clust_9="30.36131"></scales>
<clustering>
<clus scale="   30.361">  2  9  1 -1</clus>
<clus scale="   87.687">  7  8 -1 -1</clus>
<clus scale="   90.558">  5  6 -1 -1</clus>
<clus scale="  157.272">  2  7  1 -1</clus>
<clus scale="   30.361">  2  5  1 -1</clus>
</clustering>
</event>
<event>
 9    1  0.1601012E-005  0.9676463E+02  0.7546771E-02  0.1289960E+00
          3   -1    0    0  502    0 -0.00000000000E+00  0.00000000000E+00  0.10603375865E+03  0.10603375865E+03  0.00000000000E+00 0. -1.
         21   -1    0    0  501  502  0.00000000000E+00 -0.00000000000E+00 -0.27265857797E+03  0.27265857797E+03  0.00000000000E+00 0. -1.
         23    2    1    2    0    0  0.76358668075E+01 -0.45936648986E+01  0.60524491822E+02  0.11429374249E+03  0.96542411629E+02 0.  0.
         23    2    1    2    0    0 -0.12841902659E+01 -0.16023770082E+02 -0.10496205921E+03  0.14032141269E+03  0.91731426631E+02 0.  0.
        -11    1    4    4    0    0  0.44211800447E+02 -0.17638795916E+02 -0.52991398201E+02  0.71231304238E+02  0.00000000000E+00 0. -1.
         11    1    4    4    0    0 -0.45495990713E+02  0.16150258341E+01 -0.51970661011E+02  0.69090108448E+02  0.00000000000E+00 0.  1.
        -13    1    3    3    0    0  0.19986235980E+02  0.18799339131E+02 -0.17069458291E+02  0.32314566170E+02  0.00000000000E+00 0.  1.
         13    1    3    3    0    0 -0.12350369172E+02 -0.23393004030E+02  0.77593950112E+02  0.81979176321E+02  0.00000000000E+00 0. -1.
          3    1    1    2  501    0 -0.63516765416E+01  0.20617434980E+02 -0.12218725194E+03  0.12407718145E+03  0.00000000000E+00 0. -1.
<scales pt_clust_5="13000.00000" pt_clust_6="13000.00000" pt_clust_7="13000.00000" pt_clust_8="13000.00000" pt_clust_9="21.57365"></scales>
<clustering>
<clus scale="   21.574">  2  9  1 -1</clus>
<clus scale="   91.731">  5  6 -1 -1</clus>
<clus scale="   91.965">  2  5  1 -1</clus>
<clus scale="   96.542">  7  8 -1 -1</clus>
<clus scale="   21.574">  2  5  1 -1</clus>
</clustering>
</event>
<event>
 9    1  0.1601012E-005  0.9441882E+02  0.7546771E-02  0.1293971E+00
          3   -1    0    0  502    0 -0.00000000000E+00  0.00000000000E+00  0.36038491765E+03  0.36038491765E+03  0.00000000000E+00 0. -1.
         21   -1    0    0  501  502  0.00000000000E+00 -0.00000000000E+00 -0.71774657075E+02  0.71774657075E+02  0.00000000000E+00 0. -1.
         23    2    1    2    0    0  0.26604575707E+02 -0.40788906086E+01  0.11627776910E+03  0.15063487475E+03  0.91901605567E+02 0.  0.
         23    2    1    2    0    0  0.58751658737E+02  0.24886461594E+02  0.15822297321E+03  0.19254312731E+03  0.89259471466E+02 0.  0.
        -11    1    4    4    0    0  0.34829106608E+01 -0.26051202491E+02  0.13689172967E+02  0.29634258459E+02  0.00000000000E+00 0.  1.
         11    1    4    4    0    0  0.55268748077E+02  0.50937664085E+02  0.14453380024E+03  0.16290886885E+03  0.00000000000E+00 0. -1.
        -11    1    3    3    0    0  0.60214741088E+02  0.71063501273E+00  0.60665041521E+02  0.85478461083E+02  0.00000000000E+00 0. -1.
         11    1    3    3    0    0 -0.33610165381E+02 -0.47895256214E+01  0.55612727582E+02  0.65156413666E+02  0.00000000000E+00 0.  1.
          3    1    1    2  501    0 -0.85356234444E+02 -0.20807570985E+02  0.14109518258E+02  0.88981572667E+02  0.00000000000E+00 0. -1.
<scales pt_clust_5="13000.00000" pt_clust_6="13000.00000" pt_clust_7="13000.00000" pt_clust_8="13000.00000" pt_clust_9="87.85580"></scales>
<clustering>
<clus scale="   87.856">  2  9  1 -1</clus>
<clus scale="   89.259">  5  6 -1 -1</clus>
<clus scale="   91.849">  2  5  1 -1</clus>
<clus scale="   91.902">  7  8 -1 -1</clus>
<clus scale="   87.856">  2  5  1 -1</clus>
</clustering>
</event>
<event>
 9    1  0.1601012E-005  0.1137572E+03  0.7546771E-02  0.1254640E+00
         21   -1    0    0  501  502  0.00000000000E+00  0.00000000000E+00  0.89531373280E+02  0.89531373280E+02  0.00000000000E+00 0. -1.
          1   -1    0    0  502    0 -0.00000000000E+00 -0.00000000000E+00 -0.33578428077E+03  0.33578428077E+03  0.00000000000E+00 0. -1.
         23    2    1    2    0    0 -0.56599393773E+02  0.45493919894E+02 -0.25294608920E+03  0.27790913142E+03  0.89322859115E+02 0.  0.
         23    2    1    2    0    0  0.29997743830E+02 -0.40595772999E+02 -0.23018918224E+02  0.10722632222E+03  0.91759098518E+02 0.  0.
        -11    1    4    4    0    0  0.40567464440E+01 -0.46951929278E+02  0.24200054790E+02  0.52977197986E+02  0.00000000000E+00 0.  1.
         11    1    4    4    0    0  0.25940997386E+02  0.63561562788E+01 -0.47218973013E+02  0.54249124237E+02  0.00000000000E+00 0. -1.
        -13    1    3    3    0    0 -0.36879249753E+02 -0.31750504875E+01 -0.19978546397E+03  0.20318560880E+03  0.00000000000E+00 0.  1.
         13    1    3    3    0    0 -0.19720144020E+02  0.48668970382E+02 -0.53160625233E+02  0.74723522624E+02  0.00000000000E+00 0. -1.
          1    1    1    2  501    0  0.26601649943E+02 -0.48981468954E+01  0.29712099933E+02  0.40180200412E+02  0.00000000000E+00 0. -1.
<scales pt_clust_5="13000.00000" pt_clust_6="13000.00000" pt_clust_7="13000.00000" pt_clust_8="13000.00000" pt_clust_9="27.04884"></scales>
<clustering>
<clus scale="   27.049">  1  9  2 -1</clus>
<clus scale="   89.323">  7  8 -1 -1</clus>
<clus scale="   91.759">  5  6 -1 -1</clus>
<clus scale="  111.801">  2  7  1 -1</clus>
<clus scale="   27.049">  1  5  2 -1</clus>
</clustering>
</event>
<event>
 9    1  0.1601012E-005  0.1110357E+03  0.7546771E-02  0.1258761E+00
          1   -1    0    0  502    0 -0.00000000000E+00  0.00000000000E+00  0.82962069833E+02  0.82962069833E+02  0.00000000000E+00 0. -1.
         21   -1    0    0  501  502  0.00000000000E+00 -0.00000000000E+00 -0.97045706385E+03  0.97045706385E+03  0.00000000000E+00 0. -1.
         23    2    1    2    0    0 -0.37282632354E+02  0.56000301403E+02 -0.55760202454E+01  0.11246519921E+03  0.89951657014E+02 0.  0.
         23    2    1    2    0    0  0.10119010652E+03  0.18260507814E+02 -0.15106633469E+03  0.20356366257E+03  0.89689706424E+02 0.  0.
        -13    1    4    4    0    0  0.87726728992E+02 -0.21687868549E+02 -0.78793963580E+02  0.11989508463E+03  0.00000000000E+00 0.  1.
         13    1    4    4    0    0  0.13463377530E+02  0.39948376363E+02 -0.72272371105E+02  0.83668577936E+02  0.00000000000E+00 0. -1.
        -13    1    3    3    0    0 -0.52916407220E+01  0.25712282368E+02 -0.45813027787E+02  0.52801102650E+02  0.00000000000E+00 0.  1.
         13    1    3    3    0    0 -0.31990991632E+02  0.30288019035E+02  0.40237007541E+02  0.59664096562E+02  0.00000000000E+00 0. -1.
          1    1    1    2  501    0 -0.63907474168E+02 -0.74260809216E+02 -0.73085263909E+03  0.73739027191E+03  0.00000000000E+00 0. -1.
<scales pt_clust_5="13000.00000" pt_clust_6="13000.00000" pt_clust_7="13000.00000" pt_clust_8="13000.00000" pt_clust_9="97.97363"></scales>
<clustering>
<clus scale="   89.690">  5  6 -1 -1</clus>
<clus scale="   89.952">  7  8 -1 -1</clus>
<clus scale="   97.974">  2  9  1 -1</clus>
<clus scale="  110.824">  2  5  1 -1</clus>
<clus scale="   97.974">  2  5  1 -1</clus>
</clustering>
</event>
<event>
 9    1  0.1601012E-005  0.9222017E+02  0.7546771E-02  0.1297869E+00
          1   -1    0    0  502    0 -0.00000000000E+00  0.00000000000E+00  0.13030562503E+03  0.13030562503E+03  0.00000000000E+00 0. -1.
         21   -1    0    0  501  502  0.00000000000E+00 -0.00000000000E+00 -0.10623534845E+03  0.10623534845E+03  0.00000000000E+00 0.  1.
         23    2    1    2    0    0 -0.22066134460E+02 -0.79258333388E+01  0.35487003001E+02  0.10025062861E+03  0.90780658902E+02 0.  0.
         23    2    1    2    0    0 -0.16572811500E+01 -0.22174187785E+02  0.60562321006E+01  0.94170088468E+02  0.91306551956E+02 0.  0.
        -13    1    3    3    0    0 -0.32329946270E+02  0.35394955609E+02  0.26699506268E+02  0.54871595051E+02  0.00000000000E+00 0. -1.
         13    1    3    3    0    0  0.10263811811E+02 -0.43320788948E+02  0.87874967325E+01  0.45379033560E+02  0.00000000000E+00 0.  1.
        -13    1    4    4    0    0  0.23708472037E+00 -0.54539844689E+02 -0.13659626181E+02  0.56224872212E+02  0.00000000000E+00 0.  1.
         13    1    4    4    0    0 -0.18943658704E+01  0.32365656904E+02  0.19715858281E+02  0.37945216255E+02  0.00000000000E+00 0. -1.
          1    1    1    2  501    0  0.23723415610E+02  0.30100021124E+02 -0.17472958518E+02  0.42120256400E+02  0.00000000000E+00 0. -1.
<scales pt_clust_5="13000.00000" pt_clust_6="13000.00000" pt_clust_7="13000.00000" pt_clust_8="13000.00000" pt_clust_9="38.32508"></scales>
<clustering>
<clus scale="   38.325">  2  9  1 -1</clus>
<clus scale="   90.781">  5  6 -1 -1</clus>
<clus scale="   91.307">  7  8 -1 -1</clus>
<clus scale="   91.700">  1  5  2 -1</clus>
<clus scale="   38.325">  2  5  1 -1</clus>
</clustering>
</event>
<event>
 9    1  0.1601012E-005  0.1281992E+03  0.7546771E-02  0.1243970E+00
          2   -1    0    0  502    0 -0.00000000000E+00  0.00000000000E+00  0.60606194200E+03  0.60606194200E+03  0.00000000000E+00 0. -1.
         21   -1    0    0  501  502  0.00000000000E+00 -0.00000000000E+00 -0.42348052823E+02  0.42348052823E+02  0.00000000000E+00 0. -1.
         23    2    1    2    0    0  0.31276496977E+02  0.47829094825E+01  0.15669958857E+03  0.18413293166E+03  0.91373300146E+02 0.  0.
         23    2    1    2    0    0  0.64088678610E+02 -0.32759050190E+02  0.27852933858E+03  0.30184071676E+03  0.91371285145E+02 0.  0.
        -11    1    3    3    0    0 -0.17473637917E+02  0.31879418630E+02  0.35965284709E+02  0.51138313019E+02  0.00000000000E+00 0.  1.
         11    1    3    3    0    0  0.48750134895E+02 -0.27096509147E+02  0.12073430386E+03  0.13299461865E+03  0.00000000000E+00 0. -1.
        -13    1    4    4    0    0  0.31468243378E+01 -0.40532292281E+02  0.18858503721E+03  0.19291730218E+03  0.00000000000E+00 0.  1.
         13    1    4    4    0    0  0.60941854272E+02  0.77732420904E+01  0.89944301369E+02  0.10892341458E+03  0.00000000000E+00 0. -1.
          2    1    1    2  501    0 -0.95365175588E+02  0.27976140708E+02  0.12848496202E+03  0.16243634639E+03  0.00000000000E+00 0. -1.
<scales pt_clust_5="13000.00000" pt_clust_6="13000.00000" pt_clust_7="13000.00000" pt_clust_8="13000.00000" pt_clust_9="89.92400"></scales>
<clustering>
<clus scale="   91.371">  7  8 -1 -1</clus>
<clus scale="   91.373">  5  6 -1 -1</clus>
<clus scale="   96.696">  1  5  2 -1</clus>
<clus scale="   89.924">  2  9  1 -1</clus>
<clus scale="   89.924">  2  5  1 -1</clus>
</clustering>
</event>
<event>
 9    1  0.1601012E-005  0.1255423E+03  0.7546771E-02  0.1236926E+00
         21   -1    0    0  501  502  0.00000000000E+00  0.00000000000E+00  0.31648662129E+03  0.31648662129E+03  0.00000000000E+00 0.  1.
          2   -1    0    0  502    0 -0.00000000000E+00 -0.00000000000E+00 -0.28147878532E+03  0.28147878532E+03  0.00000000000E+00 0. -1.
         23    2    1    2    0    0  0.50983758264E+02  0.59815149630E+02 -0.24771820736E+03  0.27548082261E+03  0.91368362341E+02 0.  0.
         23    2    1    2    0    0 -0.20608849058E+02 -0.23164070522E+02  0.22095874609E+03  0.24450294695E+03  0.99988123149E+02 0.  0.
        -11    1    3    3    0    0  0.23867071916E+02  0.12194936777E+02 -0.57854578602E+01  0.27419429744E+02  0.00000000000E+00 0.  1.
         11    1    3    3    0    0  0.27116686348E+02  0.47620212853E+02 -0.24193274950E+03  0.24806139287E+03  0.00000000000E+00 0. -1.
        -13    1    4    4    0    0 -0.25135922861E+02  0.21036827346E+02  0.19364550807E+02  0.38070310622E+02  0.00000000000E+00 0. -1.
         13    1    4    4    0    0  0.45270738031E+01 -0.44200897868E+02  0.20159419528E+03  0.20643263632E+03  0.00000000000E+00 0.  1.
          2    1    1    2  501    0 -0.30374909206E+02 -0.36651079108E+02  0.61767297247E+02  0.77981637058E+02  0.00000000000E+00 0. -1.
<scales pt_clust_5="13000.00000" pt_clust_6="13000.00000" pt_clust_7="13000.00000" pt_clust_8="13000.00000" pt_clust_9="47.60186"></scales>
<clustering>
<clus scale="   47.602">  1  9  2 -1</clus>
<clus scale="   91.368">  5  6 -1 -1</clus>
<clus scale="   99.988">  7  8 -1 -1</clus>
<clus scale="  118.791">  2  5  1 -1</clus>
<clus scale="   47.602">  1  5  2 -1</clus>
</clustering>
</event>
<event>
 9    1  0.1601012E-005  0.1064205E+03  0.7546771E-02  0.1269923E+00
          1   -1    0    0  502    0 -0.00000000000E+00  0.00000000000E+00  0.45122422922E+03  0.45122422922E+03  0.00000000000E+00 0. -1.
         21   -1    0    0  501  502  0.00000000000E+00 -0.00000000000E+00 -0.11281761881E+03  0.11281761881E+03  0.00000000000E+00 0. -1.
         23    2    1    2    0    0  0.36442270895E+02  0.24969510270E+02  0.26662054587E+03  0.28691730636E+03  0.96350971220E+02 0.  0.
         23    2    1    2    0    0  0.31961298027E+02 -0.87284402915E+02  0.11644909020E+03  0.17437737651E+03  0.90592423889E+02 0.  0.
        -13    1    3    3    0    0  0.69239991610E+02  0.15930599534E+02  0.19720279293E+03  0.20961131167E+03  0.00000000000E+00 0.  1.
         13    1    3    3    0    0 -0.32797720715E+02  0.90389107358E+01  0.69417752939E+02  0.77305994687E+02  0.00000000000E+00 0. -1.
        -13    1    4    4    0    0  0.59844991927E+02 -0.38827011371E+02  0.47927208483E+02  0.85941708057E+02  0.00000000000E+00 0.  1.
         13    1    4    4    0    0 -0.27883693900E+02 -0.48457391543E+02  0.68521881715E+02  0.88435668451E+02  0.00000000000E+00 0. -1.
          1    1    1    2  501    0 -0.68403568922E+02  0.62314892645E+02 -0.44663025659E+02  0.10274716516E+03  0.00000000000E+00 0. -1.
<scales pt_clust_5="13000.00000" pt_clust_6="13000.00000" pt_clust_7="13000.00000" pt_clust_8="13000.00000" pt_clust_9="92.53212"></scales>
<clustering>
<clus scale="   90.592">  7  8 -1 -1</clus>
<clus scale="   92.532">  2  9  1 -1</clus>
<clus scale="   96.351">  5  6 -1 -1</clus>
<clus scale="  101.236">  2  7  1 -1</clus>
<clus scale="   92.532">  2  5  1 -1</clus>
</clustering>
</event>
<event>
 9    1  0.1601012E-005  0.1704302E+03  0.7546771E-02  0.1177422E+00
          2   -1    0    0  502    0 -0.00000000000E+00  0.00000000000E+00  0.56237608101E+03  0.56237608101E+03  0.00000000000E+00 0. -1.
         21   -1    0    0  501  502  0.00000000000E+00 -0.00000000000E+00 -0.11411799316E+03  0.11411799316E+03  0.00000000000E+00 0. -1.
         23    2    1    2    0    0 -0.10618368268E+03  0.11078210416E+03  0.37965870231E+03  0.41979801907E+03  0.92422927388E+02 0.  0.
         23    2    1    2    0    0  0.42470685209E+02 -0.12147136214E+03  0.97300237912E+02  0.18600415167E+03  0.92580544501E+02 0.  0.
        -13    1    4    4    0    0  0.56716291623E+02 -0.34432743744E+02  0.62620529667E+02  0.91234216788E+02  0.00000000000E+00 0.  1.
         13    1    4    4    0    0 -0.14245606414E+02 -0.87038618395E+02  0.34679708245E+02  0.94769934885E+02  0.00000000000E+00 0. -1.
        -13    1    3    3    0    0  0.11419332375E+02  0.31690799254E+02  0.43752891711E+02  0.55217963040E+02  0.00000000000E+00 0.  1.
         13    1    3    3    0    0 -0.11760301506E+03  0.79091304908E+02  0.33590581060E+03  0.36458005603E+03  0.00000000000E+00 0. -1.
          2    1    1    2  501    0  0.63712997472E+02  0.10689257976E+02 -0.28700852375E+02  0.70691903426E+02  0.00000000000E+00 0. -1.
<scales pt_clust_5="13000.00000" pt_clust_6="13000.00000" pt_clust_7="13000.00000" pt_clust_8="13000.00000" pt_clust_9="64.60345"></scales>
<clustering>
<clus scale="   64.603">  2  9  1 -1</clus>
<clus scale="   92.423">  7  8 -1 -1</clus>
<clus scale="   92.581">  5  6 -1 -1</clus>
<clus scale="  170.345">  1  7  2 -1</clus>
<clus scale="   64.603">  2  5  1 -1</clus>
</clustering>
</event>
<event>
 9    1  0.1601012E-005  0.1020983E+03  0.7546771E-02  0.1276203E+00
         21   -1    0    0  501  502  0.00000000000E+00  0.00000000000E+00  0.95213173880E+02  0.95213173880E+02  0.00000000000E+00 0.  1.
          3   -1    0    0  502    0 -0.00000000000E+00 -0.00000000000E+00 -0.19560055476E+03  0.19560055476E+03  0.00000000000E+00 0. -1.
         23    2    1    2    0    0 -0.62676995464E+02 -0.21611812793E+02 -0.39619938130E+02  0.11885226937E+03  0.90336295168E+02 0.  0.
         23    2    1    2    0    0  0.29417192841E+02 -0.24408909466E+02 -0.16544110912E+02  0.99990462145E+02  0.90902248697E+02 0.  0.
        -11    1    3    3    0    0 -0.46656205506E+02  0.28219029148E+02 -0.23138585859E+01  0.54575352127E+02  0.00000000000E+00 0. -1.
         11    1    3    3    0    0 -0.16020789958E+02 -0.49830841941E+02 -0.37306079544E+02  0.64276917244E+02  0.00000000000E+00 0.  1.
        -13    1    4    4    0    0 -0.17243291792E+02 -0.43209469379E+02  0.14983123628E+01  0.46547119092E+02  0.00000000000E+00 0.  1.
         13    1    4    4    0    0  0.46660484632E+02  0.18800559912E+02 -0.18042423275E+02  0.53443343054E+02  0.00000000000E+00 0. -1.
          3    1    1    2  501    0  0.33259802623E+02  0.46020722260E+02 -0.44223331836E+02  0.71970997120E+02  0.00000000000E+00 0. -1.
<scales pt_clust_5="13000.00000" pt_clust_6="13000.00000" pt_clust_7="13000.00000" pt_clust_8="13000.00000" pt_clust_9="56.78138"></scales>
<clustering>
<clus scale="   56.781">  1  9  2 -1</clus>
<clus scale="   90.336">  5  6 -1 -1</clus>
<clus scale="   90.902">  7  8 -1 -1</clus>
<clus scale="  101.595">  2  5  1 -1</clus>
<clus scale="   56.781">  1  5  2 -1</clus>
</clustering>
</event>
<event>
 9    1  0.1601012E-005  0.1055420E+03  0.7546771E-02  0.1270128E+00
         21   -1    0    0  501  502  0.00000000000E+00  0.00000000000E+00  0.18030043500E+03  0.18030043500E+03  0.00000000000E+00 0. -1.
         -3   -1    0    0    0  501 -0.00000000000E+00 -0.00000000000E+00 -0.18813599350E+03  0.18813599350E+03  0.00000000000E+00 0.  1.
         23    2    1    2    0    0  0.34927901134E+02 -0.49190140199E+02 -0.90054571865E+02  0.14044011867E+03  0.89297104371E+02 0.  0.
         23    2    1    2    0    0  0.36674780296E+02  0.33354965993E+02  0.10809728209E+03  0.15023139794E+03  0.91797915365E+02 0.  0.
        -11    1    4    4    0    0  0.27991414598E+02 -0.26408269269E+02  0.66729293968E+02  0.77030608530E+02  0.00000000000E+00 0.  1.
         11    1    4    4    0    0  0.86833656976E+01  0.59763235262E+02  0.41367988117E+02  0.73200789406E+02  0.00000000000E+00 0. -1.
        -11    1    3    3    0    0  0.47745449461E+02 -0.20936753306E+02 -0.95630481267E+02  0.10891815519E+03  0.00000000000E+00 0.  1.
         11    1    3    3    0    0 -0.12817548327E+02 -0.28253386894E+02  0.55759094018E+01  0.31521963482E+02  0.00000000000E+00 0. -1.
         -3    1    1    2    0  502 -0.71602681429E+02  0.15835174206E+02 -0.25878268713E+02  0.77764911892E+02  0.00000000000E+00 0.  1.
<scales pt_clust_5="13000.00000" pt_clust_6="13000.00000" pt_clust_7="13000.00000" pt_clust_8="13000.00000" pt_clust_9="73.33282"></scales>
<clustering>
<clus scale="   73.333">  1  9  2 -1</clus>
<clus scale="   89.297">  7  8 -1 -1</clus>
<clus scale="   91.798">  5  6 -1 -1</clus>
<clus scale="  103.374">  2  7  1 -1</clus>
<clus scale="   73.333">  1  5  2 -1</clus>
</clustering>
</event>
<event>
 9    1  0.1601012E-005  0.1082580E+03  0.7546771E-02  0.1264293E+00
         21   -1    0    0  501  502  0.00000000000E+00  0.00000000000E+00  0.22463713258E+03  0.22463713258E+03  0.00000000000E+00 0.  1.
         -1   -1    0    0    0  501 -0.00000000000E+00 -0.00000000000E+00 -0.18806023906E+03  0.18806023906E+03  0.00000000000E+00 0.  1.
         23    2    1    2    0    0 -0.33908005302E+02  0.59824179035E+02 -0.13392118533E+03  0.17568900671E+03  0.90570734667E+02 0.  0.
         23    2    1    2    0    0  0.33887472805E+02 -0.13364888738E+01  0.62632458265E+02  0.11430627682E+03  0.89403316926E+02 0.  0.
        -13    1    3    3    0    0 -0.46859660192E+01  0.39433861476E+02 -0.13430631155E+03  0.14005417891E+03  0.00000000000E+00 0.  1.
         13    1    3    3    0    0 -0.29222039283E+02  0.20390317558E+02  0.38512622151E+00  0.35634827798E+02  0.00000000000E+00 0. -1.
        -13    1    4    4    0    0  0.60249199881E+02  0.46280494514E+01  0.19667119868E+02  0.63546679944E+02  0.00000000000E+00 0.  1.
         13    1    4    4    0    0 -0.26361727075E+02 -0.59645383252E+01  0.42965338397E+02  0.50759596880E+02  0.00000000000E+00 0. -1.
         -1    1    1    2    0  502  0.20532496492E-01 -0.58487690161E+02  0.10786562059E+03  0.12270208811E+03  0.00000000000E+00 0.  1.
<scales pt_clust_5="13000.00000" pt_clust_6="13000.00000" pt_clust_7="13000.00000" pt_clust_8="13000.00000" pt_clust_9="58.48769"></scales>
<clustering>
<clus scale="   58.488">  1  9  2 -1</clus>
<clus scale="   89.403">  7  8 -1 -1</clus>
<clus scale="   90.571">  5  6 -1 -1</clus>
<clus scale="  107.283">  1  7  2 -1</clus>
<clus scale="   58.488">  1  5  2 -1</clus>
</clustering>
</event>
<event>
 9    1  0.1601012E-005  0.2176497E+03  0.7546771E-02  0.1135923E+00
         21   -1    0    0  501  502  0.00000000000E+00  0.00000000000E+00  0.61748726425E+02  0.61748726425E+02  0.00000000000E+00 0. -1.
         -1   -1    0    0    0  501 -0.00000000000E+00 -0.00000000000E+00 -0.11534398215E+04  0.11534398215E+04  0.00000000000E+00 0.  1.
         23    2    1    2    0    0  0.14856644152E+03 -0.16064296181E+03 -0.79168958181E+03  0.82642374521E+03  0.91245076531E+02 0.  0.
         23    2    1    2    0    0 -0.11344391809E+03  0.10527070908E+03 -0.22839286276E+03  0.29166960792E+03  0.94638341515E+02 0.  0.
        -13    1    3    3    0    0  0.20856856437E+02 -0.63658885922E+02 -0.35399665724E+03  0.36027919112E+03  0.00000000000E+00 0.  1.
         13    1    3    3    0    0  0.12770958508E+03 -0.96984075889E+02 -0.43769292457E+03  0.46614455410E+03  0.00000000000E+00 0. -1.
        -13    1    4    4    0    0 -0.84632502058E+02  0.54209952600E+02 -0.69202065000E+02  0.12202583811E+03  0.00000000000E+00 0.  1.
         13    1    4    4    0    0 -0.28811416030E+02  0.51060756480E+02 -0.15919079776E+03  0.16964376981E+03  0.00000000000E+00 0. -1.
         -1    1    1    2    0  502 -0.35122523429E+02  0.55372252731E+02 -0.71608650547E+02  0.97095194823E+02  0.00000000000E+00 0.  1.
<scales pt_clust_5="13000.00000" pt_clust_6="13000.00000" pt_clust_7="13000.00000" pt_clust_8="13000.00000" pt_clust_9="65.57193"></scales>
<clustering>
<clus scale="   65.572">  1  9  2 -1</clus>
<clus scale="   91.245">  5  6 -1 -1</clus>
<clus scale="   94.638">  7  8 -1 -1</clus>
<clus scale="  216.196">  2  5  1 -1</clus>
<clus scale="   65.572">  1  5  2 -1</clus>
</clustering>
</event>
<event>
 9    1  0.1601012E-005  0.1435177E+03  0.7546771E-02  0.1209279E+00
         21   -1    0    0  501  502  0.00000000000E+00  0.00000000000E+00  0.12209625672E+03  0.12209625672E+03  0.00000000000E+00 0. -1.
          3   -1    0    0  502    0 -0.00000000000E+00 -0.00000000000E+00 -0.50126545623E+03  0.50126545623E+03  0.00000000000E+00 0. -1.
         23    2    1    2    0    0 -0.59616240881E+02  0.96423473830E+02 -0.33838069353E+03  0.36851196796E+03  0.91912971305E+02 0.  0.
         23    2    1    2    0    0  0.11517329000E+03 -0.39070610175E+02 -0.74575427677E+02  0.16814626897E+03  0.88995921520E+02 0.  0.
        -11    1    3    3    0    0 -0.20194169767E+02 -0.14789210172E+02 -0.35304667547E+02  0.43277532054E+02  0.00000000000E+00 0.  1.
         11    1    3    3    0    0 -0.39422071113E+02  0.11121268400E+03 -0.30307602598E+03  0.32523443590E+03  0.00000000000E+00 0. -1.
        -11    1    4    4    0    0  0.26231413176E+02  0.20673009897E+02 -0.46737542207E+02  0.57444392476E+02  0.00000000000E+00 0.  1.
         11    1    4    4    0    0  0.88941876825E+02 -0.59743620072E+02 -0.27837885470E+02  0.11070187650E+03  0.00000000000E+00 0. -1.
          3    1    1    2  501    0 -0.55557049120E+02 -0.57352863655E+02  0.33786921693E+02  0.86703476020E+02  0.00000000000E+00 0. -1.
<scales pt_clust_5="13000.00000" pt_clust_6="13000.00000" pt_clust_7="13000.00000" pt_clust_8="13000.00000" pt_clust_9="79.84946"></scales>
<clustering>
<clus scale="   79.849">  1  9  2 -1</clus>
<clus scale="   88.996">  7  8 -1 -1</clus>
<clus scale="   91.913">  5  6 -1 -1</clus>
<clus scale="  141.667">  1  7  2 -1</clus>
<clus scale="   79.849">  1  5  2 -1</clus>
</clustering>
</event>
