<event>
 9    2  0.2869112E-005  0.9815840E+02  0.7546771E-02  0.1292552E+00
         -1   -1    0    0    0  501 -0.00000000000E+00  0.00000000000E+00  0.93987099665E+02  0.93987099665E+02  0.00000000000E+00 0.  1.
          2   -1    0    0  502    0  0.00000000000E+00 -0.00000000000E+00 -0.12354233084E+04  0.12354233084E+04  0.00000000000E+00 0. -1.
         23    2    1    2    0    0 -0.60356710474E+02  0.14783111930E+02 -0.61381124170E+02  0.13040825568E+03  0.96835932630E+02 0.  0.
         24    2    1    2    0    0  0.96593911293E+01  0.11993048255E+02 -0.11237778481E+04  0.11268990250E+04  0.82387035508E+02 0.  0.
        -13    1    4    4    0    0  0.59388560476E+01  0.21283987497E+02 -0.77902276015E+02  0.80975568805E+02  0.00000000000E+00 0.  1.
         14    1    4    4    0    0  0.37205350817E+01 -0.92909392423E+01 -0.10458755721E+04  0.10459234562E+04  0.00000000000E+00 0. -1.
        -11    1    3    3    0    0 -0.65304217761E+02 -0.21072862917E+02 -0.64374190698E+02  0.94089015495E+02  0.00000000000E+00 0.  1.
         11    1    3    3    0    0  0.49475072868E+01  0.35855974847E+02  0.29930665286E+01  0.36319240188E+02  0.00000000000E+00 0. -1.
         21    1    1    2  502  501  0.50697319345E+02 -0.26776160184E+02  0.43722763467E+02  0.72103127451E+02  0.00000000000E+00 0.  1.
<scales pt_clust_5="13000.00000" pt_clust_6="13000.00000" pt_clust_7="13000.00000" pt_clust_8="13000.00000" pt_clust_9="57.33394"></scales>
<clustering>
<clus scale="   57.334">  1  9  2 -1</clus>
<clus scale="   82.387">  5  6 -1 -1</clus>
<clus scale="   83.937">  2  5  1 -1</clus>
<clus scale="   96.836">  7  8 -1 -1</clus>
<clus scale="   83.937">  2  5  1 -1</clus>
</clustering>
</event>
<event>
 9    2  0.2869112E-005  0.3856928E+03  0.7546771E-02  0.1049054E+00
         -1   -1    0    0    0  501 -0.00000000000E+00  0.00000000000E+00  0.12833765937E+04  0.12833765937E+04  0.00000000000E+00 0.  1.
          2   -1    0    0  502    0  0.00000000000E+00 -0.00000000000E+00 -0.23432235251E+03  0.23432235251E+03  0.00000000000E+00 0. -1.
         24    2    1    2    0    0  0.33276150878E+03 -0.48714888030E+02  0.96811793900E+03  0.10281949996E+04  0.82639284668E+02 0.  0.
         23    2    1    2    0    0 -0.37859318125E+03  0.49887150660E+02 -0.40577642560E+01  0.39293320708E+03  0.92512242901E+02 0.  0.
        -13    1    3    3    0    0  0.27843030737E+03 -0.61931464821E+02  0.86608110560E+03  0.91184177568E+03  0.00000000000E+00 0.  1.
         14    1    3    3    0    0  0.54331201417E+02  0.13216576791E+02  0.10203683340E+03  0.11635322393E+03  0.00000000000E+00 0. -1.
        -11    1    4    4    0    0 -0.15430046831E+03  0.64198433797E+02 -0.15866193252E+02  0.16787438611E+03  0.00000000000E+00 0.  1.
         11    1    4    4    0    0 -0.22429271294E+03 -0.14311283137E+02  0.11808428996E+02  0.22505882097E+03  0.00000000000E+00 0. -1.
         21    1    1    2  502  501  0.45831672465E+02 -0.11722626306E+01  0.84994066482E+02  0.96570739553E+02  0.00000000000E+00 0.  1.
<scales pt_clust_5="13000.00000" pt_clust_6="13000.00000" pt_clust_7="13000.00000" pt_clust_8="13000.00000" pt_clust_9="45.84666"></scales>
<clustering>
<clus scale="   45.847">  1  9  2 -1</clus>
<clus scale="   82.639">  5  6 -1 -1</clus>
<clus scale="   92.512">  7  8 -1 -1</clus>
<clus scale="  383.444">  1  5  2 -1</clus>
<clus scale="  385.693">  2  5  1 -1</clus>
</clustering>
</event>
<event>
 9    2  0.2869112E-005  0.9084135E+02  0.7546771E-02  0.1304989E+00
         -1   -1    0    0    0  501 -0.00000000000E+00  0.00000000000E+00  0.56708862344E+02  0.56708862344E+02  0.00000000000E+00 0.  1.
          2   -1    0    0  502    0  0.00000000000E+00 -0.00000000000E+00 -0.19043041410E+03  0.19043041410E+03  0.00000000000E+00 0. -1.
         24    2    1    2    0    0  0.20210249098E+02 -0.18663744103E+02 -0.64043078930E+02  0.10795050021E+03  0.82431820459E+02 0.  0.
         23    2    1    2    0    0 -0.95648723314E+01 -0.17768155500E+01 -0.73254681887E+02  0.11586647367E+03  0.89242072175E+02 0.  0.
        -13    1    3    3    0    0  0.32162298742E+02  0.24982580667E+02 -0.22537063647E+02  0.46545268663E+02  0.00000000000E+00 0.  1.
         14    1    3    3    0    0 -0.11952049643E+02 -0.43646324769E+02 -0.41506015284E+02  0.61405231547E+02  0.00000000000E+00 0. -1.
        -11    1    4    4    0    0 -0.24481635075E+02  0.11773501179E+02  0.10945892031E+02  0.29287853085E+02  0.00000000000E+00 0.  1.
         11    1    4    4    0    0  0.14916762744E+02 -0.13550316729E+02 -0.84200573918E+02  0.86578620585E+02  0.00000000000E+00 0. -1.
         21    1    1    2  502  501 -0.10645376767E+02  0.20440559653E+02  0.35762090654E+01  0.23322302560E+02  0.00000000000E+00 0.  1.
<scales pt_clust_5="13000.00000" pt_clust_6="13000.00000" pt_clust_7="13000.00000" pt_clust_8="13000.00000" pt_clust_9="23.04649"></scales>
<clustering>
<clus scale="   23.046">  1  9  2 -1</clus>
<clus scale="   82.432">  5  6 -1 -1</clus>
<clus scale="   84.161">  1  5  2 -1</clus>
<clus scale="   89.242">  7  8 -1 -1</clus>
<clus scale="   90.841">  2  5  1 -1</clus>
</clustering>
</event>
<event>
 9    2  0.2869112E-005  0.1539922E+03  0.7546771E-02  0.1197469E+00
         -1   -1    0    0    0  501 -0.00000000000E+00  0.00000000000E+00  0.37743839456E+02  0.37743839456E+02  0.00000000000E+00 0.  1.
          2   -1    0    0  502    0  0.00000000000E+00 -0.00000000000E+00 -0.88109908747E+03  0.88109908747E+03  0.00000000000E+00 0. -1.
         23    2    1    2    0    0  0.30282889722E+02  0.12210829939E+03 -0.21164453679E+03  0.26251716137E+03  0.91073376319E+02 0.  0.
         24    2    1    2    0    0 -0.10274722198E+02 -0.12359285370E+03 -0.60563435279E+03  0.62342428932E+03  0.80523982947E+02 0.  0.
        -11    1    4    4    0    0  0.18273297474E+02 -0.11697135097E+03 -0.49703025588E+03  0.51093569615E+03  0.00000000000E+00 0.  1.
         12    1    4    4    0    0 -0.28548019672E+02 -0.66215027374E+01 -0.10860409692E+03  0.11248859317E+03  0.00000000000E+00 0. -1.
        -11    1    3    3    0    0  0.18340148339E+02  0.92252019597E+02 -0.21025087775E+03  0.23033069217E+03  0.00000000000E+00 0. -1.
         11    1    3    3    0    0  0.11942741382E+02  0.29856279789E+02 -0.13936590442E+01  0.32186469208E+02  0.00000000000E+00 0.  1.
         21    1    1    2  502  501 -0.20008167523E+02  0.14845543173E+01 -0.26076358432E+02  0.32901476232E+02  0.00000000000E+00 0.  1.
<scales pt_clust_5="13000.00000" pt_clust_6="13000.00000" pt_clust_7="13000.00000" pt_clust_8="13000.00000" pt_clust_9="20.06317"></scales>
<clustering>
<clus scale="   20.063">  1  9  2 -1</clus>
<clus scale="   80.524">  5  6 -1 -1</clus>
<clus scale="   91.073">  7  8 -1 -1</clus>
<clus scale="  147.998">  2  5  1 -1</clus>
<clus scale="  147.998">  2  5  1 -1</clus>
</clustering>
</event>
<event>
 9    2  0.2869112E-005  0.1159031E+03  0.7546771E-02  0.1252981E+00
         -1   -1    0    0    0  501 -0.00000000000E+00  0.00000000000E+00  0.27096145172E+03  0.27096145172E+03  0.00000000000E+00 0.  1.
          2   -1    0    0  502    0  0.00000000000E+00 -0.00000000000E+00 -0.10801585136E+04  0.10801585136E+04  0.00000000000E+00 0. -1.
         23    2    1    2    0    0 -0.22303248457E+02  0.12396873167E+02  0.96382766617E+02  0.13453481678E+03  0.90326418442E+02 0.  0.
         24    2    1    2    0    0  0.27094059843E+02  0.69441952593E+02 -0.10471635449E+04  0.10529804602E+04  0.81609355930E+02 0.  0.
        -13    1    4    4    0    0  0.80965274241E+01  0.32631082179E+02 -0.11291475020E+03  0.11781376021E+03  0.00000000000E+00 0.  1.
         14    1    4    4    0    0  0.18997532419E+02  0.36810870414E+02 -0.93424879473E+03  0.93516670004E+03  0.00000000000E+00 0. -1.
        -13    1    3    3    0    0  0.32086448195E+02  0.12095362603E+02  0.16913669021E+02  0.38234933687E+02  0.00000000000E+00 0. -1.
         13    1    3    3    0    0 -0.54389696652E+02  0.30151056359E+00  0.79469097596E+02  0.96299883091E+02  0.00000000000E+00 0.  1.
         21    1    1    2  502  501 -0.47908113866E+01 -0.81838825760E+02  0.14158371643E+03  0.16360468830E+03  0.00000000000E+00 0.  1.
<scales pt_clust_5="13000.00000" pt_clust_6="13000.00000" pt_clust_7="13000.00000" pt_clust_8="13000.00000" pt_clust_9="81.97893"></scales>
<clustering>
<clus scale="   81.609">  5  6 -1 -1</clus>
<clus scale="   81.979">  1  9  2 -1</clus>
<clus scale="   90.326">  7  8 -1 -1</clus>
<clus scale="  109.246">  2  5  1 -1</clus>
<clus scale="  109.246">  2  5  1 -1</clus>
</clustering>
</event>
<event>
 9    2  0.2869112E-005  0.1070582E+03  0.7546771E-02  0.1271985E+00
          2   -1    0    0  502    0  0.00000000000E+00  0.00000000000E+00  0.10143878393E+04  0.10143878393E+04  0.00000000000E+00 0. -1.
         -1   -1    0    0    0  501 -0.00000000000E+00 -0.00000000000E+00 -0.68435066816E+02  0.68435066816E+02  0.00000000000E+00 0.  1.
         23    2    1    2    0    0 -0.26734868913E+02  0.40731427315E+02 -0.44627885143E+01  0.10474148250E+03  0.92612414329E+02 0.  0.
         24    2    1    2    0    0 -0.15295053266E+01 -0.54285043790E+02  0.94025116251E+03  0.94512857294E+03  0.79035216300E+02 0.  0.
        -11    1    4    4    0    0 -0.94917059951E+01 -0.29018133715E+02  0.10230049831E+03  0.10675924560E+03  0.00000000000E+00 0.  1.
         12    1    4    4    0    0  0.79622006684E+01 -0.25266910076E+02  0.83795066420E+03  0.83836932733E+03  0.00000000000E+00 0. -1.
        -11    1    3    3    0    0 -0.11701562171E+02  0.67483246738E+02  0.12585955461E+02  0.69637069312E+02  0.00000000000E+00 0.  1.
         11    1    3    3    0    0 -0.15033306742E+02 -0.26751819423E+02 -0.17048743975E+02  0.35104413186E+02  0.00000000000E+00 0. -1.
         21    1    1    2  502  501  0.28264374239E+02  0.13553616475E+02  0.10164398475E+02  0.32952850667E+02  0.00000000000E+00 0. -1.
<scales pt_clust_5="13000.00000" pt_clust_6="13000.00000" pt_clust_7="13000.00000" pt_clust_8="13000.00000" pt_clust_9="31.34606"></scales>
<clustering>
<clus scale="   31.346">  2  9  1 -1</clus>
<clus scale="   79.035">  5  6 -1 -1</clus>
<clus scale="   92.612">  7  8 -1 -1</clus>
<clus scale="   95.556">  1  5  2 -1</clus>
<clus scale="   95.556">  1  5  2 -1</clus>
</clustering>
</event>
<event>
 9    2  0.2869112E-005  0.9299613E+02  0.7546771E-02  0.1302671E+00
          2   -1    0    0  502    0  0.00000000000E+00  0.00000000000E+00  0.10416866421E+04  0.10416866421E+04  0.00000000000E+00 0. -1.
         -1   -1    0    0    0  501 -0.00000000000E+00 -0.00000000000E+00 -0.34222313217E+02  0.34222313217E+02  0.00000000000E+00 0.  1.
         23    2    1    2    0    0  0.31833151622E+01 -0.44704945238E+02  0.26092188599E+03  0.28020461640E+03  0.91791779822E+02 0.  0.
         24    2    1    2    0    0 -0.17753867371E+02 -0.12373277992E+02  0.72968862151E+03  0.73443219305E+03  0.80478966288E+02 0.  0.
        -11    1    4    4    0    0 -0.40887758405E+02  0.71113842196E+01  0.22216575314E+03  0.22600885478E+03  0.00000000000E+00 0.  1.
         12    1    4    4    0    0  0.23133891034E+02 -0.19484662211E+02  0.50752286837E+03  0.50842333827E+03  0.00000000000E+00 0. -1.
        -11    1    3    3    0    0 -0.20976472335E+02  0.10614184813E+02  0.17228415195E+02  0.29146039199E+02  0.00000000000E+00 0.  1.
         11    1    3    3    0    0  0.24159787497E+02 -0.55319130050E+02  0.24369347079E+03  0.25105857720E+03  0.00000000000E+00 0. -1.
         21    1    1    2  502  501  0.14570552209E+02  0.57078223229E+02  0.16853821336E+02  0.61272145811E+02  0.00000000000E+00 0.  1.
<scales pt_clust_5="13000.00000" pt_clust_6="13000.00000" pt_clust_7="13000.00000" pt_clust_8="13000.00000" pt_clust_9="58.90861"></scales>
<clustering>
<clus scale="   58.909">  2  9  1 -1</clus>
<clus scale="   80.479">  5  6 -1 -1</clus>
<clus scale="   81.850">  1  5  2 -1</clus>
<clus scale="   91.792">  7  8 -1 -1</clus>
<clus scale="   81.850">  1  5  2 -1</clus>
</clustering>
</event>
<event>
 9    2  0.2869112E-005  0.9186770E+02  0.7546771E-02  0.1302298E+00
          2   -1    0    0  502    0  0.00000000000E+00  0.00000000000E+00  0.39664130999E+03  0.39664130999E+03  0.00000000000E+00 0. -1.
         -1   -1    0    0    0  501 -0.00000000000E+00 -0.00000000000E+00 -0.38590533514E+02  0.38590533514E+02  0.00000000000E+00 0.  1.
         23    2    1    2    0    0  0.17148559681E+02 -0.14504064719E+02  0.70460483695E+02  0.11638268138E+03  0.89865498222E+02 0.  0.
         24    2    1    2    0    0 -0.16925471918E+02 -0.15489056198E+02  0.27126163550E+03  0.28469858205E+03  0.83330818227E+02 0.  0.
        -11    1    4    4    0    0  0.47696235163E+01 -0.44064617552E+02  0.95109092927E+02  0.10492940191E+03  0.00000000000E+00 0.  1.
         12    1    4    4    0    0 -0.21695095434E+02  0.28575561354E+02  0.17615254257E+03  0.17976918014E+03  0.00000000000E+00 0. -1.
        -11    1    3    3    0    0 -0.16253784767E+02 -0.32618403527E+02  0.69380185538E+02  0.78369355703E+02  0.00000000000E+00 0. -1.
         11    1    3    3    0    0  0.33402344448E+02  0.18114338808E+02  0.10802981567E+01  0.38013325679E+02  0.00000000000E+00 0.  1.
         21    1    1    2  502  501 -0.22308776334E+00  0.29993120917E+02  0.16328657279E+02  0.34150580069E+02  0.00000000000E+00 0. -1.
<scales pt_clust_5="13000.00000" pt_clust_6="13000.00000" pt_clust_7="13000.00000" pt_clust_8="13000.00000" pt_clust_9="29.99395"></scales>
<clustering>
<clus scale="   29.994">  2  9  1 -1</clus>
<clus scale="   83.331">  5  6 -1 -1</clus>
<clus scale="   85.486">  1  5  2 -1</clus>
<clus scale="   89.865">  7  8 -1 -1</clus>
<clus scale="   85.486">  1  5  2 -1</clus>
</clustering>
</event>
<event>
 9    2  0.2869112E-005  0.1015663E+03  0.7546771E-02  0.1282537E+00
         -1   -1    0    0    0  501 -0.00000000000E+00  0.00000000000E+00  0.63821466571E+02  0.63821466571E+02  0.00000000000E+00 0.  1.
          2   -1    0    0  502    0  0.00000000000E+00 -0.00000000000E+00 -0.24073310288E+03  0.24073310288E+03  0.00000000000E+00 0. -1.
         23    2    1    2    0    0  0.34341360039E+02 -0.20320099387E+02 -0.29966482069E+02  0.10388744905E+03  0.91117377999E+02 0.  0.
         24    2    1    2    0    0 -0.48094174206E+02  0.90702931276E+00 -0.15014205583E+03  0.17666238406E+03  0.79706265227E+02 0.  0.
        -13    1    4    4    0    0  0.17697150349E+02 -0.15281511328E+02 -0.24190464539E+02  0.33643607024E+02  0.00000000000E+00 0.  1.
         14    1    4    4    0    0 -0.65791324555E+02  0.16188540641E+02 -0.12595159130E+03  0.14301877704E+03  0.00000000000E+00 0. -1.
        -13    1    3    3    0    0  0.45133121132E+02  0.17489295415E+02  0.81973414678E+01  0.49092468713E+02  0.00000000000E+00 0.  1.
         13    1    3    3    0    0 -0.10791761093E+02 -0.37809394802E+02 -0.38163823537E+02  0.54794980334E+02  0.00000000000E+00 0. -1.
         21    1    1    2  502  501  0.13752814167E+02  0.19413070074E+02  0.31969015952E+01  0.24004736346E+02  0.00000000000E+00 0. -1.
<scales pt_clust_5="13000.00000" pt_clust_6="13000.00000" pt_clust_7="13000.00000" pt_clust_8="13000.00000" pt_clust_9="23.79091"></scales>
<clustering>
<clus scale="   23.791">  1  9  2 -1</clus>
<clus scale="   79.706">  5  6 -1 -1</clus>
<clus scale="   91.117">  7  8 -1 -1</clus>
<clus scale="   91.468">  2  5  1 -1</clus>
<clus scale="   91.468">  2  5  1 -1</clus>
</clustering>
</event>
<event>
 9    2  0.2869112E-005  0.1026202E+03  0.7546771E-02  0.1279735E+00
         -1   -1    0    0    0  501 -0.00000000000E+00  0.00000000000E+00  0.32397256600E+03  0.32397256600E+03  0.00000000000E+00 0.  1.
          2   -1    0    0  502    0  0.00000000000E+00 -0.00000000000E+00 -0.16113872700E+03  0.16113872700E+03  0.00000000000E+00 0. -1.
         23    2    1    2    0    0  0.48439047860E+02 -0.37439929165E+01  0.26850367023E+03  0.28758725748E+03  0.90839698923E+02 0.  0.
         24    2    1    2    0    0 -0.37941630363E+02 -0.30021720810E+02 -0.12570788159E+03  0.15688116825E+03  0.80426105362E+02 0.  0.
        -11    1    4    4    0    0 -0.37930022295E+02  0.14817012470E+02 -0.28125512467E+02  0.49490149539E+02  0.00000000000E+00 0.  1.
         12    1    4    4    0    0 -0.11608067812E-01 -0.44838733279E+02 -0.97582369122E+02  0.10739101871E+03  0.00000000000E+00 0. -1.
        -11    1    3    3    0    0  0.38458699800E+02 -0.23173255320E+02  0.26047357609E+03  0.26431525721E+03  0.00000000000E+00 0.  1.
         11    1    3    3    0    0  0.99803480597E+01  0.19429262404E+02  0.80300941395E+01  0.23272000276E+02  0.00000000000E+00 0. -1.
         21    1    1    2  502  501 -0.10497417496E+02  0.33765713726E+02  0.20038050367E+02  0.40642867271E+02  0.00000000000E+00 0. -1.
<scales pt_clust_5="13000.00000" pt_clust_6="13000.00000" pt_clust_7="13000.00000" pt_clust_8="13000.00000" pt_clust_9="35.35985"></scales>
<clustering>
<clus scale="   35.360">  1  9  2 -1</clus>
<clus scale="   80.426">  5  6 -1 -1</clus>
<clus scale="   90.840">  7  8 -1 -1</clus>
<clus scale="   93.528">  2  5  1 -1</clus>
<clus scale="   93.528">  2  5  1 -1</clus>
</clustering>
</event>
<event>
 9    2  0.2869112E-005  0.1365405E+03  0.7546771E-02  0.1220632E+00
         -1   -1    0    0    0  501 -0.00000000000E+00  0.00000000000E+00  0.93011323660E+02  0.93011323660E+02  0.00000000000E+00 0.  1.
          2   -1    0    0  502    0  0.00000000000E+00 -0.00000000000E+00 -0.43304121031E+03  0.43304121031E+03  0.00000000000E+00 0. -1.
         23    2    1    2    0    0 -0.87410418874E+02  0.62957683004E+02 -0.14743784137E+03  0.20426680916E+03  0.91557419571E+02 0.  0.
         24    2    1    2    0    0  0.88847899294E+02 -0.42120864728E+02 -0.23912485918E+03  0.27078041022E+03  0.80456297604E+02 0.  0.
        -11    1    4    4    0    0  0.76763788129E+02 -0.26120531232E+02 -0.93419571874E+02  0.12370197140E+03  0.00000000000E+00 0.  1.
         12    1    4    4    0    0  0.12084111165E+02 -0.16000333496E+02 -0.14570528731E+03  0.14707843882E+03  0.00000000000E+00 0. -1.
        -11    1    3    3    0    0 -0.33511732910E+02  0.59659200498E+01  0.34441081177E+01  0.34212429400E+02  0.00000000000E+00 0.  1.
         11    1    3    3    0    0 -0.53898685964E+02  0.56991762955E+02 -0.15088194949E+03  0.17005437976E+03  0.00000000000E+00 0. -1.
         21    1    1    2  502  501 -0.14374804201E+01 -0.20836818276E+02  0.46532813911E+02  0.51005314588E+02  0.00000000000E+00 0.  1.
<scales pt_clust_5="13000.00000" pt_clust_6="13000.00000" pt_clust_7="13000.00000" pt_clust_8="13000.00000" pt_clust_9="20.88634"></scales>
<clustering>
<clus scale="   20.886">  1  9  2 -1</clus>
<clus scale="   80.456">  5  6 -1 -1</clus>
<clus scale="   91.557">  7  8 -1 -1</clus>
<clus scale="  129.359">  2  5  1 -1</clus>
<clus scale="  129.359">  2  5  1 -1</clus>
</clustering>
</event>
<event>
 9    2  0.2869112E-005  0.1142415E+03  0.7546771E-02  0.1260748E+00
          2   -1    0    0  502    0  0.00000000000E+00  0.00000000000E+00  0.10797195009E+04  0.10797195009E+04  0.00000000000E+00 0. -1.
         -1   -1    0    0    0  501 -0.00000000000E+00 -0.00000000000E+00 -0.22757009533E+03  0.22757009533E+03  0.00000000000E+00 0.  1.
         23    2    1    2    0    0 -0.87697962416E+02 -0.54207548916E+02 -0.12384657046E+03  0.18898570415E+03  0.98733137236E+02 0.  0.
         24    2    1    2    0    0  0.22588979693E+02  0.52404036152E+02  0.10294352105E+04  0.10340531706E+04  0.79200138711E+02 0.  0.
        -11    1    4    4    0    0  0.48260620730E+01  0.20923702792E+02  0.56440113503E+02  0.60386907736E+02  0.00000000000E+00 0.  1.
         12    1    4    4    0    0  0.17762917620E+02  0.31480333360E+02  0.97299509703E+03  0.97366626289E+03  0.00000000000E+00 0. -1.
        -13    1    3    3    0    0 -0.66677811196E+02 -0.15960398543E+02 -0.12793864471E+03  0.14515151270E+03  0.00000000000E+00 0.  1.
         13    1    3    3    0    0 -0.21020151220E+02 -0.38247150372E+02  0.40920742527E+01  0.43834191456E+02  0.00000000000E+00 0. -1.
         21    1    1    2  502  501  0.65108982723E+02  0.18035127632E+01 -0.53439234478E+02  0.84250721487E+02  0.00000000000E+00 0. -1.
<scales pt_clust_5="13000.00000" pt_clust_6="13000.00000" pt_clust_7="13000.00000" pt_clust_8="13000.00000" pt_clust_9="65.13396"></scales>
<clustering>
<clus scale="   65.134">  2  9  1 -1</clus>
<clus scale="   79.200">  5  6 -1 -1</clus>
<clus scale="   97.855">  1  5  2 -1</clus>
<clus scale="   98.733">  7  8 -1 -1</clus>
<clus scale="   97.855">  1  5  2 -1</clus>
</clustering>
</event>
<event>
 9    2  0.2869112E-005  0.1303270E+03  0.7546771E-02  0.1227952E+00
         -1   -1    0    0    0  501 -0.00000000000E+00  0.00000000000E+00  0.35045172779E+02  0.35045172779E+02  0.00000000000E+00 0.  1.
          2   -1    0    0  502    0  0.00000000000E+00 -0.00000000000E+00 -0.11284155278E+04  0.11284155278E+04  0.00000000000E+00 0. -1.
         23    2    1    2    0    0 -0.27200984694E+02  0.79930422838E+02 -0.14120456878E+03  0.18772511307E+03  0.90405872429E+02 0.  0.
         24    2    1    2    0    0  0.13672094206E+02 -0.94907538740E+02 -0.94578545622E+03  0.95456831349E+03  0.86580418401E+02 0.  0.
        -11    1    4    4    0    0 -0.23314597610E+02 -0.97721819155E+01 -0.81961525242E+02  0.85771543189E+02  0.00000000000E+00 0.  1.
         12    1    4    4    0    0  0.36986691815E+02 -0.85135356824E+02 -0.86382393098E+03  0.86879677030E+03  0.00000000000E+00 0. -1.
        -13    1    3    3    0    0  0.87277354394E+01  0.26829808450E+02  0.44703689293E+01  0.28565646951E+02  0.00000000000E+00 0.  1.
         13    1    3    3    0    0 -0.35928720133E+02  0.53100614388E+02 -0.14567493771E+03  0.15915946612E+03  0.00000000000E+00 0. -1.
         21    1    1    2  502  501  0.13528890488E+02  0.14977115902E+02 -0.63803300326E+01  0.21167274031E+02  0.00000000000E+00 0. -1.
<scales pt_clust_5="13000.00000" pt_clust_6="13000.00000" pt_clust_7="13000.00000" pt_clust_8="13000.00000" pt_clust_9="20.18279"></scales>
<clustering>
<clus scale="   20.183">  1  9  2 -1</clus>
<clus scale="   86.580">  5  6 -1 -1</clus>
<clus scale="   90.406">  7  8 -1 -1</clus>
<clus scale="  127.703">  2  5  1 -1</clus>
<clus scale="  127.703">  2  5  1 -1</clus>
</clustering>
</event>
<event>
 9    2  0.2869112E-005  0.1012209E+03  0.7546771E-02  0.1284365E+00
         -1   -1    0    0    0  501 -0.00000000000E+00  0.00000000000E+00  0.22406607187E+03  0.22406607187E+03  0.00000000000E+00 0.  1.
          2   -1    0    0  502    0  0.00000000000E+00 -0.00000000000E+00 -0.23506077743E+03  0.23506077743E+03  0.00000000000E+00 0. -1.
         23    2    1    2    0    0 -0.16856124189E+02  0.21094786145E+02  0.17849279042E+03  0.20210048453E+03  0.90861491779E+02 0.  0.
         24    2    1    2    0    0  0.46006982546E+02  0.22811019790E+01 -0.19905395230E+03  0.21845536822E+03  0.77320282655E+02 0.  0.
        -11    1    4    4    0    0 -0.16809085245E+02  0.18629509303E+02 -0.55954239869E+02  0.61322760236E+02  0.00000000000E+00 0.  1.
         12    1    4    4    0    0  0.62816067791E+02 -0.16348407324E+02 -0.14309971243E+03  0.15713260799E+03  0.00000000000E+00 0. -1.
        -13    1    3    3    0    0  0.23637053886E+02  0.41075809796E+02  0.11314894019E+03  0.12267279704E+03  0.00000000000E+00 0.  1.
         13    1    3    3    0    0 -0.40493178076E+02 -0.19981023651E+02  0.65343850227E+02  0.79427687485E+02  0.00000000000E+00 0. -1.
         21    1    1    2  502  501 -0.29150858356E+02 -0.23375888124E+02  0.95664563148E+01  0.38570996551E+02  0.00000000000E+00 0. -1.
<scales pt_clust_5="13000.00000" pt_clust_6="13000.00000" pt_clust_7="13000.00000" pt_clust_8="13000.00000" pt_clust_9="37.36582"></scales>
<clustering>
<clus scale="   37.366">  1  9  2 -1</clus>
<clus scale="   77.320">  5  6 -1 -1</clus>
<clus scale="   89.265">  2  5  1 -1</clus>
<clus scale="   90.861">  7  8 -1 -1</clus>
<clus scale="   89.265">  2  5  1 -1</clus>
</clustering>
</event>
<event>
 9    2  0.2869112E-005  0.1129272E+03  0.7546771E-02  0.1260332E+00
         -1   -1    0    0    0  501 -0.00000000000E+00  0.00000000000E+00  0.19047018667E+03  0.19047018667E+03  0.00000000000E+00 0.  1.
          2   -1    0    0  502    0  0.00000000000E+00 -0.00000000000E+00 -0.18712889611E+03  0.18712889611E+03  0.00000000000E+00 0. -1.
         23    2    1    2    0    0 -0.34906156063E+02 -0.34900916765E+02  0.92276923451E+02  0.13924553864E+03  0.91857366099E+02 0.  0.
         24    2    1    2    0    0  0.16213577373E+02  0.67179081056E+02 -0.14030542767E+03  0.17487009588E+03  0.78217826458E+02 0.  0.
        -11    1    4    4    0    0  0.39970088400E+01  0.34093699890E+02 -0.45731003678E+01  0.34630473558E+02  0.00000000000E+00 0.  1.
         12    1    4    4    0    0  0.12216568533E+02  0.33085381166E+02 -0.13573232730E+03  0.14023962232E+03  0.00000000000E+00 0. -1.
        -11    1    3    3    0    0 -0.46310890139E+02  0.13720056805E+02  0.22109226362E+02  0.53120207026E+02  0.00000000000E+00 0. -1.
         11    1    3    3    0    0  0.11404734076E+02 -0.48620973570E+02  0.70167697089E+02  0.86125331611E+02  0.00000000000E+00 0.  1.
         21    1    1    2  502  501  0.18692578690E+02 -0.32278164291E+02  0.51369794773E+02  0.63483448261E+02  0.00000000000E+00 0.  1.
<scales pt_clust_5="13000.00000" pt_clust_6="13000.00000" pt_clust_7="13000.00000" pt_clust_8="13000.00000" pt_clust_9="37.30003"></scales>
<clustering>
<clus scale="   37.300">  1  9  2 -1</clus>
<clus scale="   78.218">  5  6 -1 -1</clus>
<clus scale="   91.857">  7  8 -1 -1</clus>
<clus scale="  102.141">  2  5  1 -1</clus>
<clus scale="  102.141">  2  5  1 -1</clus>
</clustering>
</event>
<event>
 9    2  0.2869112E-005  0.1011631E+03  0.7546771E-02  0.1283739E+00
          2   -1    0    0  502    0  0.00000000000E+00  0.00000000000E+00  0.52748177618E+03  0.52748177618E+03  0.00000000000E+00 0. -1.
         -1   -1    0    0    0  501 -0.00000000000E+00 -0.00000000000E+00 -0.37524978535E+03  0.37524978535E+03  0.00000000000E+00 0.  1.
         23    2    1    2    0    0 -0.21794542764E+02 -0.64141189780E+02 -0.16083735255E+03  0.19679028753E+03  0.90932221851E+02 0.  0.
         24    2    1    2    0    0  0.11981301899E+02  0.42139655988E+02  0.50475078839E+03  0.51275187588E+03  0.78878549955E+02 0.  0.
        -11    1    4    4    0    0  0.32589256020E+02 -0.20034919557E+01  0.10282533781E+03  0.10788477040E+03  0.00000000000E+00 0.  1.
         12    1    4    4    0    0 -0.20607954121E+02  0.44143147944E+02  0.40192545058E+03  0.40486710549E+03  0.00000000000E+00 0. -1.
        -11    1    3    3    0    0 -0.42107668742E+02 -0.12225079314E+02 -0.11978409386E+03  0.12755680096E+03  0.00000000000E+00 0.  1.
         11    1    3    3    0    0  0.20313125978E+02 -0.51916110466E+02 -0.41053258692E+02  0.69233486566E+02  0.00000000000E+00 0. -1.
         21    1    1    2  502  501  0.98132408648E+01  0.22001533792E+02 -0.19168144500E+03  0.19318939811E+03  0.00000000000E+00 0. -1.
<scales pt_clust_5="13000.00000" pt_clust_6="13000.00000" pt_clust_7="13000.00000" pt_clust_8="13000.00000" pt_clust_9="24.09081"></scales>
<clustering>
<clus scale="   24.091">  2  9  1 -1</clus>
<clus scale="   78.879">  5  6 -1 -1</clus>
<clus scale="   90.483">  1  5  2 -1</clus>
<clus scale="   90.932">  7  8 -1 -1</clus>
<clus scale="   90.483">  1  5  2 -1</clus>
</clustering>
</event>
<event>
 9    2  0.2869112E-005  0.2115929E+03  0.7546771E-02  0.1141058E+00
         -1   -1    0    0    0  501 -0.00000000000E+00  0.00000000000E+00  0.21235937193E+03  0.21235937193E+03  0.00000000000E+00 0.  1.
          2   -1    0    0  502    0  0.00000000000E+00 -0.00000000000E+00 -0.54150993417E+03  0.54150993417E+03  0.00000000000E+00 0. -1.
         23    2    1    2    0    0  0.20041001421E+03  0.55667970556E+02  0.64460844000E+02  0.23603042991E+03  0.91060785713E+02 0.  0.
         24    2    1    2    0    0 -0.18907877689E+03  0.21079162407E+02 -0.38828470338E+03  0.44007710461E+03  0.81900745777E+02 0.  0.
        -13    1    4    4    0    0 -0.80199754340E+02 -0.94350629765E+01 -0.89158350770E+02  0.12029227956E+03  0.00000000000E+00 0.  1.
         14    1    4    4    0    0 -0.10887902255E+03  0.30514225383E+02 -0.29912635261E+03  0.31978482505E+03  0.00000000000E+00 0. -1.
        -11    1    3    3    0    0  0.12029877768E+03  0.69776995176E+02  0.67591325328E+02  0.15462603994E+03  0.00000000000E+00 0.  1.
         11    1    3    3    0    0  0.80111236529E+02 -0.14109024620E+02 -0.31304813283E+01  0.81404389976E+02  0.00000000000E+00 0. -1.
         21    1    1    2  502  501 -0.11331237318E+02 -0.76747132963E+02 -0.53267028598E+01  0.77761771588E+02  0.00000000000E+00 0.  1.
<scales pt_clust_5="13000.00000" pt_clust_6="13000.00000" pt_clust_7="13000.00000" pt_clust_8="13000.00000" pt_clust_9="77.57912"></scales>
<clustering>
<clus scale="   77.579">  1  9  2 -1</clus>
<clus scale="   81.901">  5  6 -1 -1</clus>
<clus scale="   91.061">  7  8 -1 -1</clus>
<clus scale="  207.815">  2  5  1 -1</clus>
<clus scale="  207.815">  2  5  1 -1</clus>
</clustering>
</event>
<event>
 9    2  0.3352374E-005  0.9245542E+02  0.7546771E-02  0.1303629E+00
          4   -1    0    0  502    0  0.00000000000E+00  0.00000000000E+00  0.30303553083E+03  0.30303553083E+03  0.00000000000E+00 0. -1.
         -3   -1    0    0    0  501 -0.00000000000E+00 -0.00000000000E+00 -0.14954316776E+03  0.14954316776E+03  0.00000000000E+00 0.  1.
         24    2    1    2    0    0  0.40673072317E+01  0.32107561113E+02 -0.50531641062E+02  0.10108946029E+03  0.81352281864E+02 0.  0.
         23    2    1    2    0    0  0.54970576079E+01 -0.51701070725E+01  0.26690081280E+03  0.28241973292E+03  0.92021269395E+02 0.  0.
        -11    1    3    3    0    0 -0.12515090346E+02  0.46326101553E+02 -0.60381676166E+02  0.77127699227E+02  0.00000000000E+00 0.  1.
         12    1    3    3    0    0  0.16582397577E+02 -0.14218540440E+02  0.98500351042E+01  0.23961761062E+02  0.00000000000E+00 0. -1.
        -13    1    4    4    0    0 -0.38225488888E+02 -0.12282906363E+02  0.70935318775E+02  0.81509982451E+02  0.00000000000E+00 0.  1.
         13    1    4    4    0    0  0.43722546496E+02  0.71127992909E+01  0.19596549403E+03  0.20090975047E+03  0.00000000000E+00 0. -1.
         21    1    1    2  502  501 -0.95643648396E+01 -0.26937454040E+02 -0.62876808668E+02  0.69069505379E+02  0.00000000000E+00 0.  1.
<scales pt_clust_5="13000.00000" pt_clust_6="13000.00000" pt_clust_7="13000.00000" pt_clust_8="13000.00000" pt_clust_9="28.58502"></scales>
<clustering>
<clus scale="   28.585">  2  9  1 -1</clus>
<clus scale="   81.352">  5  6 -1 -1</clus>
<clus scale="   81.843">  2  5  1 -1</clus>
<clus scale="   92.021">  7  8 -1 -1</clus>
<clus scale="   92.455">  1  5  2 -1</clus>
</clustering>
</event>
<event>
 9    2  0.2869112E-005  0.1230825E+03  0.7546771E-02  0.1254631E+00
          2   -1    0    0  502    0  0.00000000000E+00  0.00000000000E+00  0.47915365953E+02  0.47915365953E+02  0.00000000000E+00 0. -1.
         -1   -1    0    0    0  501 -0.00000000000E+00 -0.00000000000E+00 -0.59820830677E+03  0.59820830677E+03  0.00000000000E+00 0.  1.
         24    2    1    2    0    0 -0.35132543708E+02 -0.22026466398E+02 -0.16690103948E+03  0.18881153399E+03  0.77938293144E+02 0.  0.
         23    2    1    2    0    0  0.36699990543E+02 -0.71180336384E+02 -0.95669862818E+02  0.15486555432E+03  0.91744687421E+02 0.  0.
        -11    1    3    3    0    0 -0.45739358348E+02  0.14720914353E+02 -0.11229296109E+03  0.12214132525E+03  0.00000000000E+00 0.  1.
         12    1    3    3    0    0  0.10606814640E+02 -0.36747380750E+02 -0.54608078385E+02  0.66670208742E+02  0.00000000000E+00 0. -1.
        -11    1    4    4    0    0  0.26559859478E+02 -0.91035625862E+02 -0.58204619107E+02  0.11126854451E+03  0.00000000000E+00 0. -1.
         11    1    4    4    0    0  0.10140131066E+02  0.19855289478E+02 -0.37465243711E+02  0.43597009813E+02  0.00000000000E+00 0.  1.
         21    1    1    2  502  501 -0.15674468358E+01  0.93206802782E+02 -0.28772203852E+03  0.30244658442E+03  0.00000000000E+00 0.  1.
<scales pt_clust_5="13000.00000" pt_clust_6="13000.00000" pt_clust_7="13000.00000" pt_clust_8="13000.00000" pt_clust_9="82.05007"></scales>
<clustering>
<clus scale="   77.938">  5  6 -1 -1</clus>
<clus scale="   88.283">  2  5  1 -1</clus>
<clus scale="   82.050">  2  9  1 -1</clus>
<clus scale="   91.745">  7  8 -1 -1</clus>
<clus scale="  123.082">  1  5  2 -1</clus>
</clustering>
</event>
<event>
 9    2  0.2869112E-005  0.2602868E+03  0.7546771E-02  0.1107249E+00
         -1   -1    0    0    0  501 -0.00000000000E+00  0.00000000000E+00  0.37751295319E+03  0.37751295319E+03  0.00000000000E+00 0.  1.
          2   -1    0    0  502    0  0.00000000000E+00 -0.00000000000E+00 -0.20974926882E+03  0.20974926882E+03  0.00000000000E+00 0. -1.
         23    2    1    2    0    0 -0.16016761050E+03 -0.20782833843E+03  0.84215982476E+02  0.29060741482E+03  0.92271643173E+02 0.  0.
         24    2    1    2    0    0  0.15307423881E+03  0.16870802675E+03  0.62667812360E+02  0.25174729674E+03  0.86921377302E+02 0.  0.
        -11    1    4    4    0    0  0.20884242255E+02  0.17679003168E+02  0.41796419070E+02  0.49956374715E+02  0.00000000000E+00 0.  1.
         12    1    4    4    0    0  0.13218999656E+03  0.15102902358E+03  0.20871393290E+02  0.20179092202E+03  0.00000000000E+00 0. -1.
        -13    1    3    3    0    0 -0.11746195290E+03 -0.15097245849E+03  0.15809691088E+02  0.19193733335E+03  0.00000000000E+00 0. -1.
         13    1    3    3    0    0 -0.42705657597E+02 -0.56855879941E+02  0.68406291388E+02  0.98670081464E+02  0.00000000000E+00 0.  1.
         21    1    1    2  502  501  0.70933716881E+01  0.39120311682E+02  0.20879889539E+02  0.44907510454E+02  0.00000000000E+00 0.  1.
<scales pt_clust_5="13000.00000" pt_clust_6="13000.00000" pt_clust_7="13000.00000" pt_clust_8="13000.00000" pt_clust_9="39.75820"></scales>
<clustering>
<clus scale="   39.758">  1  9  2 -1</clus>
<clus scale="   86.921">  5  6 -1 -1</clus>
<clus scale="   92.272">  7  8 -1 -1</clus>
<clus scale="  258.439">  2  5  1 -1</clus>
<clus scale="  258.439">  2  5  1 -1</clus>
</clustering>
</event>
<event>
 9    2  0.2869112E-005  0.1002575E+03  0.7546771E-02  0.1281827E+00
         -3   -1    0    0    0  501 -0.00000000000E+00  0.00000000000E+00  0.36695260367E+02  0.36695260367E+02  0.00000000000E+00 0.  1.
          4   -1    0    0  502    0  0.00000000000E+00 -0.00000000000E+00 -0.11023131225E+04  0.11023131225E+04  0.00000000000E+00 0. -1.
         23    2    1    2    0    0 -0.88401533335E+02 -0.18898156270E+02 -0.15896045533E+03  0.20423359689E+03  0.90944842273E+02 0.  0.
         24    2    1    2    0    0  0.25879951787E+02 -0.32036770189E+02 -0.77107912395E+03  0.77702566340E+03  0.86658753969E+02 0.  0.
        -13    1    4    4    0    0 -0.59102900383E+00  0.20329626844E+02 -0.56636267801E+02  0.60177320257E+02  0.00000000000E+00 0.  1.
         14    1    4    4    0    0  0.26470980791E+02 -0.52366397033E+02 -0.71444285615E+03  0.71684834314E+03  0.00000000000E+00 0. -1.
        -13    1    3    3    0    0 -0.46905823942E+02  0.35252582669E+02 -0.88265441363E+02  0.10598909870E+03  0.00000000000E+00 0.  1.
         13    1    3    3    0    0 -0.41495709393E+02 -0.54150738939E+02 -0.70695013965E+02  0.98244498193E+02  0.00000000000E+00 0. -1.
         21    1    1    2  502  501  0.62521581548E+02  0.50934926460E+02 -0.13557828289E+03  0.15774912261E+03  0.00000000000E+00 0.  1.
<scales pt_clust_5="13000.00000" pt_clust_6="13000.00000" pt_clust_7="13000.00000" pt_clust_8="13000.00000" pt_clust_9="80.64313"></scales>
<clustering>
<clus scale="   80.643">  1  9  2 -1</clus>
<clus scale="   86.659">  5  6 -1 -1</clus>
<clus scale="   90.945">  7  8 -1 -1</clus>
<clus scale="   96.386">  2  5  1 -1</clus>
<clus scale="   96.386">  2  5  1 -1</clus>
</clustering>
</event>
<event>
 9    2  0.2869112E-005  0.1407953E+03  0.7546771E-02  0.1214036E+00
         -1   -1    0    0    0  501 -0.00000000000E+00  0.00000000000E+00  0.42896194074E+03  0.42896194074E+03  0.00000000000E+00 0.  1.
          2   -1    0    0  502    0  0.00000000000E+00 -0.00000000000E+00 -0.26715541235E+03  0.26715541235E+03  0.00000000000E+00 0. -1.
         23    2    1    2    0    0  0.14761857762E+03 -0.69121505581E+02  0.30913517742E+03  0.36060208942E+03  0.88883530413E+02 0.  0.
         24    2    1    2    0    0 -0.65071203993E+02  0.84838763743E+02 -0.19683457047E+03  0.23798610211E+03  0.80384446517E+02 0.  0.
        -13    1    4    4    0    0 -0.47376118808E+02  0.43956916408E+02 -0.42496277581E+02  0.77347532227E+02  0.00000000000E+00 0.  1.
         14    1    4    4    0    0 -0.17695085184E+02  0.40881847335E+02 -0.15433829289E+03  0.16063856988E+03  0.00000000000E+00 0. -1.
        -11    1    3    3    0    0  0.19449244548E+02 -0.43881068720E+02  0.13238698491E+03  0.14081951242E+03  0.00000000000E+00 0. -1.
         11    1    3    3    0    0  0.12816933307E+03 -0.25240436861E+02  0.17674819252E+03  0.21978257700E+03  0.00000000000E+00 0.  1.
         21    1    1    2  502  501 -0.82547373630E+02 -0.15717258162E+02  0.49505921441E+02  0.97529161562E+02  0.00000000000E+00 0.  1.
<scales pt_clust_5="13000.00000" pt_clust_6="13000.00000" pt_clust_7="13000.00000" pt_clust_8="13000.00000" pt_clust_9="84.03036"></scales>
<clustering>
<clus scale="   80.384">  5  6 -1 -1</clus>
<clus scale="   84.030">  1  9  2 -1</clus>
<clus scale="   88.884">  7  8 -1 -1</clus>
<clus scale="  135.590">  2  5  1 -1</clus>
<clus scale="  135.590">  2  5  1 -1</clus>
</clustering>
</event>
<event>
 9    2  0.2869112E-005  0.9563322E+02  0.7546771E-02  0.1298750E+00
          2   -1    0    0  502    0  0.00000000000E+00  0.00000000000E+00  0.35116991734E+03  0.35116991734E+03  0.00000000000E+00 0. -1.
         -1   -1    0    0    0  501 -0.00000000000E+00 -0.00000000000E+00 -0.52117633571E+02  0.52117633571E+02  0.00000000000E+00 0.  1.
         23    2    1    2    0    0 -0.13851281404E+02  0.82409356845E+01  0.35128827184E+02  0.99637309485E+02  0.91835657153E+02 0.  0.
         24    2    1    2    0    0  0.24221719521E+02  0.18706826937E+02  0.26210891031E+03  0.27471893529E+03  0.76372609413E+02 0.  0.
        -13    1    4    4    0    0  0.62412092448E+01 -0.28339895362E+02  0.63386416580E+02  0.69713271110E+02  0.00000000000E+00 0.  1.
         14    1    4    4    0    0  0.17980510276E+02  0.47046722299E+02  0.19872249373E+03  0.20500566418E+03  0.00000000000E+00 0. -1.
        -11    1    3    3    0    0 -0.47348795230E+01  0.29448555786E+02  0.59198085625E+02  0.66287629794E+02  0.00000000000E+00 0. -1.
         11    1    3    3    0    0 -0.91164018808E+01 -0.21207620101E+02 -0.24069258442E+02  0.33349679692E+02  0.00000000000E+00 0.  1.
         21    1    1    2  502  501 -0.10370438117E+02 -0.26947762622E+02  0.18145462775E+01  0.28931306145E+02  0.00000000000E+00 0.  1.
<scales pt_clust_5="13000.00000" pt_clust_6="13000.00000" pt_clust_7="13000.00000" pt_clust_8="13000.00000" pt_clust_9="28.87435"></scales>
<clustering>
<clus scale="   28.874">  2  9  1 -1</clus>
<clus scale="   76.373">  5  6 -1 -1</clus>
<clus scale="   80.899">  1  5  2 -1</clus>
<clus scale="   91.836">  7  8 -1 -1</clus>
<clus scale="   80.899">  1  5  2 -1</clus>
</clustering>
</event>
<event>
 9    2  0.2869112E-005  0.2214144E+03  0.7546771E-02  0.1136402E+00
         -1   -1    0    0    0  501 -0.00000000000E+00  0.00000000000E+00  0.93221743105E+02  0.93221743105E+02  0.00000000000E+00 0.  1.
          2   -1    0    0  502    0  0.00000000000E+00 -0.00000000000E+00 -0.10015751612E+04  0.10015751612E+04  0.00000000000E+00 0. -1.
         24    2    1    2    0    0 -0.97114545827E+02  0.18168184447E+03 -0.49528164632E+03  0.54250765828E+03  0.81062460426E+02 0.  0.
         23    2    1    2    0    0  0.84402714372E+02 -0.14446974357E+03 -0.45216952086E+03  0.49683687828E+03  0.11997617691E+03 0.  0.
        -11    1    3    3    0    0  0.24123968838E+01  0.76442787901E+02 -0.16543913480E+03  0.18226197301E+03  0.00000000000E+00 0.  1.
         12    1    3    3    0    0 -0.99526942710E+02  0.10523905657E+03 -0.32984251152E+03  0.36024568527E+03  0.00000000000E+00 0. -1.
        -13    1    4    4    0    0  0.35681215392E+02 -0.10824350940E+01 -0.24900897780E+02  0.43524424267E+02  0.00000000000E+00 0.  1.
         13    1    4    4    0    0  0.48721498981E+02 -0.14338730848E+03 -0.42726862308E+03  0.45331245402E+03  0.00000000000E+00 0. -1.
         21    1    1    2  502  501  0.12711831454E+02 -0.37212100899E+02  0.39097749044E+02  0.55452367782E+02  0.00000000000E+00 0.  1.
<scales pt_clust_5="13000.00000" pt_clust_6="13000.00000" pt_clust_7="13000.00000" pt_clust_8="13000.00000" pt_clust_9="39.32342"></scales>
<clustering>
<clus scale="   39.323">  1  9  2 -1</clus>
<clus scale="   81.062">  5  6 -1 -1</clus>
<clus scale="  119.976">  7  8 -1 -1</clus>
<clus scale="  202.981">  1  5  2 -1</clus>
<clus scale="  221.414">  2  5  1 -1</clus>
</clustering>
</event>
<event>
 9    2  0.2869112E-005  0.1000844E+03  0.7546771E-02  0.1286043E+00
         -1   -1    0    0    0  501 -0.00000000000E+00  0.00000000000E+00  0.37088448685E+03  0.37088448685E+03  0.00000000000E+00 0.  1.
          2   -1    0    0  502    0  0.00000000000E+00 -0.00000000000E+00 -0.10706269991E+03  0.10706269991E+03  0.00000000000E+00 0. -1.
         23    2    1    2    0    0  0.64431350388E+02  0.66519047858E+02  0.21500278415E+03  0.25133172434E+03  0.91461772498E+02 0.  0.
         24    2    1    2    0    0 -0.22189090085E+02 -0.27688170668E+02 -0.58417845843E+02  0.10499314833E+03  0.79698970945E+02 0.  0.
        -11    1    4    4    0    0  0.19472161956E+02 -0.11633919527E+02  0.87734886848E+01  0.24320511477E+02  0.00000000000E+00 0.  1.
         12    1    4    4    0    0 -0.41661252040E+02 -0.16054251142E+02 -0.67191334527E+02  0.80672636853E+02  0.00000000000E+00 0. -1.
        -11    1    3    3    0    0  0.20051818777E+02  0.42802209152E+01 -0.26236762621E+01  0.20670737879E+02  0.00000000000E+00 0. -1.
         11    1    3    3    0    0  0.44379531611E+02  0.62238826943E+02  0.21762646041E+03  0.23066098646E+03  0.00000000000E+00 0.  1.
         21    1    1    2  502  501 -0.42242260304E+02 -0.38830877190E+02  0.10723684864E+03  0.12162231409E+03  0.00000000000E+00 0. -1.
<scales pt_clust_5="13000.00000" pt_clust_6="13000.00000" pt_clust_7="13000.00000" pt_clust_8="13000.00000" pt_clust_9="57.37809"></scales>
<clustering>
<clus scale="   57.378">  1  9  2 -1</clus>
<clus scale="   79.699">  5  6 -1 -1</clus>
<clus scale="   89.463">  2  5  1 -1</clus>
<clus scale="   91.462">  7  8 -1 -1</clus>
<clus scale="   89.463">  2  5  1 -1</clus>
</clustering>
</event>
<event>
 9    2  0.2869112E-005  0.2327118E+03  0.7546771E-02  0.1146411E+00
          2   -1    0    0  502    0  0.00000000000E+00  0.00000000000E+00  0.22531776632E+04  0.22531776632E+04  0.00000000000E+00 0. -1.
         -1   -1    0    0    0  501 -0.00000000000E+00 -0.00000000000E+00 -0.10803728122E+03  0.10803728122E+03  0.00000000000E+00 0.  1.
         23    2    1    2    0    0 -0.42634613396E+02 -0.89152212658E+02 -0.12289840302E+01  0.13741949909E+03  0.95481836209E+02 0.  0.
         24    2    1    2    0    0  0.11601607630E+03 -0.12999625062E+03  0.25848733931E+03  0.32182030491E+03  0.79961546574E+02 0.  0.
        -13    1    4    4    0    0  0.79491452611E+02 -0.13230586327E+03  0.19699613357E+03  0.25026228069E+03  0.00000000000E+00 0.  1.
         14    1    4    4    0    0  0.36524623693E+02  0.23096126525E+01  0.61491205737E+02  0.71558024215E+02  0.00000000000E+00 0. -1.
        -11    1    3    3    0    0 -0.38254534386E+02 -0.24936396918E+02  0.40229849281E+02  0.60857818442E+02  0.00000000000E+00 0. -1.
         11    1    3    3    0    0 -0.43800790098E+01 -0.64215815740E+02 -0.41458833311E+02  0.76561680643E+02  0.00000000000E+00 0.  1.
         21    1    1    2  502  501 -0.73381462908E+02  0.21914846328E+03  0.18878820267E+04  0.19019751404E+04  0.00000000000E+00 0. -1.
<scales pt_clust_5="13000.00000" pt_clust_6="13000.00000" pt_clust_7="13000.00000" pt_clust_8="13000.00000" pt_clust_9="218.54270"></scales>
<clustering>
<clus scale="   79.962">  5  6 -1 -1</clus>
<clus scale="   95.482">  7  8 -1 -1</clus>
<clus scale="  137.414">  2  7  1 -1</clus>
<clus scale="  218.543">  1  9  2 -1</clus>
<clus scale="  218.543">  1  5  2 -1</clus>
</clustering>
</event>
<event>
 9    2  0.2869112E-005  0.9156876E+02  0.7546771E-02  0.1300390E+00
         -1   -1    0    0    0  501 -0.00000000000E+00  0.00000000000E+00  0.11762470869E+03  0.11762470869E+03  0.00000000000E+00 0.  1.
          2   -1    0    0  502    0  0.00000000000E+00 -0.00000000000E+00 -0.56280357706E+03  0.56280357706E+03  0.00000000000E+00 0. -1.
         23    2    1    2    0    0 -0.31230095215E+02 -0.41144762015E+02 -0.33864935789E+02  0.10186448025E+03  0.81002025729E+02 0.  0.
         24    2    1    2    0    0  0.30047985964E+02  0.20594542231E+02 -0.48941217835E+03  0.49779843601E+03  0.83378570088E+02 0.  0.
        -13    1    4    4    0    0 -0.11780416993E+02 -0.17054977746E+02 -0.41746107058E+02  0.46608882683E+02  0.00000000000E+00 0.  1.
         14    1    4    4    0    0  0.41828402957E+02  0.37649519977E+02 -0.44766607129E+03  0.45118955333E+03  0.00000000000E+00 0. -1.
        -13    1    3    3    0    0 -0.30145410619E+02 -0.44689155750E+01  0.20173053206E+02  0.36546806475E+02  0.00000000000E+00 0.  1.
         13    1    3    3    0    0 -0.10846845962E+01 -0.36675846440E+02 -0.54037988996E+02  0.65317673775E+02  0.00000000000E+00 0. -1.
         21    1    1    2  502  501  0.11821092516E+01  0.20550219784E+02  0.78098245770E+02  0.80765369484E+02  0.00000000000E+00 0.  1.
<scales pt_clust_5="13000.00000" pt_clust_6="13000.00000" pt_clust_7="13000.00000" pt_clust_8="13000.00000" pt_clust_9="20.58419"></scales>
<clustering>
<clus scale="   20.584">  1  9  2 -1</clus>
<clus scale="   81.002">  7  8 -1 -1</clus>
<clus scale="   83.379">  5  6 -1 -1</clus>
<clus scale="   89.410">  1  7  2 -1</clus>
<clus scale="   91.569">  2  5  1 -1</clus>
</clustering>
</event>
<event>
 9    2  0.2869112E-005  0.9875975E+02  0.7546771E-02  0.1287033E+00
         -1   -1    0    0    0  501 -0.00000000000E+00  0.00000000000E+00  0.17900030365E+02  0.17900030365E+02  0.00000000000E+00 0.  1.
          2   -1    0    0  502    0  0.00000000000E+00 -0.00000000000E+00 -0.14048888223E+04  0.14048888223E+04  0.00000000000E+00 0. -1.
         23    2    1    2    0    0  0.65066557585E+02  0.64412434438E+01 -0.25190471251E+03  0.27520024121E+03  0.89465311937E+02 0.  0.
         24    2    1    2    0    0 -0.36898068789E+02  0.11669538034E+02 -0.10753331090E+04  0.10790930449E+04  0.81257976473E+02 0.  0.
        -13    1    4    4    0    0 -0.14692679803E+02  0.15974393213E+02 -0.65412292883E+02  0.68918967916E+02  0.00000000000E+00 0.  1.
         14    1    4    4    0    0 -0.22205388986E+02 -0.43048551791E+01 -0.10099208161E+04  0.10101740770E+04  0.00000000000E+00 0. -1.
        -13    1    3    3    0    0  0.72925385246E+02 -0.25998582092E+02 -0.17787657675E+03  0.19399514077E+03  0.00000000000E+00 0.  1.
         13    1    3    3    0    0 -0.78588276611E+01  0.32439825535E+02 -0.74028135764E+02  0.81205100441E+02  0.00000000000E+00 0. -1.
         21    1    1    2  502  501 -0.28168488796E+02 -0.18110781477E+02 -0.59750970480E+02  0.68495566572E+02  0.00000000000E+00 0. -1.
<scales pt_clust_5="13000.00000" pt_clust_6="13000.00000" pt_clust_7="13000.00000" pt_clust_8="13000.00000" pt_clust_9="33.48827"></scales>
<clustering>
<clus scale="   33.488">  1  9  2 -1</clus>
<clus scale="   81.258">  5  6 -1 -1</clus>
<clus scale="   89.465">  7  8 -1 -1</clus>
<clus scale="   91.391">  2  5  1 -1</clus>
<clus scale="   91.391">  2  5  1 -1</clus>
</clustering>
</event>
<event>
 9    2  0.2869112E-005  0.1195066E+03  0.7546771E-02  0.1246733E+00
         -1   -1    0    0    0  501 -0.00000000000E+00  0.00000000000E+00  0.10991086030E+03  0.10991086030E+03  0.00000000000E+00 0.  1.
          2   -1    0    0  502    0  0.00000000000E+00 -0.00000000000E+00 -0.27850260405E+03  0.27850260405E+03  0.00000000000E+00 0. -1.
         23    2    1    2    0    0  0.76621271766E+02 -0.32319984295E+02 -0.12784475295E+02  0.12343171404E+03  0.90313590060E+02 0.  0.
         24    2    1    2    0    0 -0.58235298659E+02  0.51662873961E+02 -0.19044618757E+03  0.22125480090E+03  0.81385096939E+02 0.  0.
        -11    1    4    4    0    0 -0.68024922610E+02  0.45014268331E+02 -0.95587598030E+02  0.12566090620E+03  0.00000000000E+00 0.  1.
         12    1    4    4    0    0  0.97896239503E+01  0.66486056305E+01 -0.94858589545E+02  0.95593894702E+02  0.00000000000E+00 0. -1.
        -13    1    3    3    0    0  0.33565954067E+02 -0.61903059509E+02 -0.99331358826E+01  0.71114901655E+02  0.00000000000E+00 0.  1.
         13    1    3    3    0    0  0.43055317699E+02  0.29583075214E+02 -0.28513394127E+01  0.52316812381E+02  0.00000000000E+00 0. -1.
         21    1    1    2  502  501 -0.18385973107E+02 -0.19342889667E+02  0.34638919117E+02  0.43726949418E+02  0.00000000000E+00 0.  1.
<scales pt_clust_5="13000.00000" pt_clust_6="13000.00000" pt_clust_7="13000.00000" pt_clust_8="13000.00000" pt_clust_9="26.68691"></scales>
<clustering>
<clus scale="   26.687">  1  9  2 -1</clus>
<clus scale="   81.385">  5  6 -1 -1</clus>
<clus scale="   90.314">  7  8 -1 -1</clus>
<clus scale="  112.911">  2  5  1 -1</clus>
<clus scale="  112.911">  2  5  1 -1</clus>
</clustering>
</event>
<event>
 9    2  0.2869112E-005  0.1434708E+03  0.7546771E-02  0.1214329E+00
         -1   -1    0    0    0  501 -0.00000000000E+00  0.00000000000E+00  0.56348774465E+02  0.56348774465E+02  0.00000000000E+00 0.  1.
          2   -1    0    0  502    0  0.00000000000E+00 -0.00000000000E+00 -0.99268549394E+03  0.99268549394E+03  0.00000000000E+00 0. -1.
         23    2    1    2    0    0 -0.10201866675E+03  0.48516396334E+02 -0.89434998091E+02  0.17613680883E+03  0.10131094443E+03 0.  0.
         24    2    1    2    0    0  0.77925188264E+02 -0.63704161161E+02 -0.83036946967E+03  0.83996602698E+03  0.76804395746E+02 0.  0.
        -13    1    4    4    0    0  0.15682997105E+02  0.15721282860E+02 -0.87473998713E+02  0.90248632033E+02  0.00000000000E+00 0.  1.
         14    1    4    4    0    0  0.62242191158E+02 -0.79425444022E+02 -0.74289547096E+03  0.74971739495E+03  0.00000000000E+00 0. -1.
        -13    1    3    3    0    0  0.77249276184E+00  0.33556564871E+02 -0.59027608310E+02  0.67903595883E+02  0.00000000000E+00 0. -1.
         13    1    3    3    0    0 -0.10279115951E+03  0.14959831463E+02 -0.30407389781E+02  0.10823321295E+03  0.00000000000E+00 0.  1.
         21    1    1    2  502  501  0.24093478487E+02  0.15187764827E+02 -0.16532251710E+02  0.32931432593E+02  0.00000000000E+00 0.  1.
<scales pt_clust_5="13000.00000" pt_clust_6="13000.00000" pt_clust_7="13000.00000" pt_clust_8="13000.00000" pt_clust_9="28.48094"></scales>
<clustering>
<clus scale="   28.481">  1  9  2 -1</clus>
<clus scale="   76.804">  5  6 -1 -1</clus>
<clus scale="  101.311">  7  8 -1 -1</clus>
<clus scale="  127.353">  2  5  1 -1</clus>
<clus scale="  127.353">  2  5  1 -1</clus>
</clustering>
</event>
<event>
 9    2  0.2869112E-005  0.1016930E+03  0.7546771E-02  0.1282305E+00
          2   -1    0    0  502    0  0.00000000000E+00  0.00000000000E+00  0.74843638791E+03  0.74843638791E+03  0.00000000000E+00 0. -1.
         -1   -1    0    0    0  501 -0.00000000000E+00 -0.00000000000E+00 -0.10143730912E+03  0.10143730912E+03  0.00000000000E+00 0.  1.
         23    2    1    2    0    0 -0.35732460151E+02  0.55968584433E+02 -0.36361343326E+02  0.11891129673E+03  0.91697644733E+02 0.  0.
         24    2    1    2    0    0  0.92196733324E+01 -0.42258548829E+02  0.69347704970E+03  0.69944670429E+03  0.80277558262E+02 0.  0.
        -11    1    4    4    0    0  0.38761098222E+02 -0.14737625659E+02  0.19626072352E+03  0.20059384821E+03  0.00000000000E+00 0.  1.
         12    1    4    4    0    0 -0.29541424890E+02 -0.27520923169E+02  0.49721632618E+03  0.49885285607E+03  0.00000000000E+00 0. -1.
        -13    1    3    3    0    0 -0.53012266221E+02  0.32338540768E+02 -0.56033752918E+02  0.83641276024E+02  0.00000000000E+00 0.  1.
         13    1    3    3    0    0  0.17279806069E+02  0.23630043666E+02  0.19672409592E+02  0.35270020706E+02  0.00000000000E+00 0. -1.
         21    1    1    2  502  501  0.26512786819E+02 -0.13710035605E+02 -0.10116627580E+02  0.31515696006E+02  0.00000000000E+00 0. -1.
<scales pt_clust_5="13000.00000" pt_clust_6="13000.00000" pt_clust_7="13000.00000" pt_clust_8="13000.00000" pt_clust_9="29.84783"></scales>
<clustering>
<clus scale="   29.848">  2  9  1 -1</clus>
<clus scale="   80.278">  5  6 -1 -1</clus>
<clus scale="   91.529">  1  5  2 -1</clus>
<clus scale="   91.698">  7  8 -1 -1</clus>
<clus scale="   91.529">  1  5  2 -1</clus>
</clustering>
</event>
<event>
 9    2  0.2869112E-005  0.8657106E+02  0.7546771E-02  0.1316617E+00
          2   -1    0    0  502    0  0.00000000000E+00  0.00000000000E+00  0.37185499599E+03  0.37185499599E+03  0.00000000000E+00 0. -1.
         -1   -1    0    0    0  501 -0.00000000000E+00 -0.00000000000E+00 -0.39956510985E+02  0.39956510985E+02  0.00000000000E+00 0.  1.
         23    2    1    2    0    0  0.21213531009E+02  0.10618371431E+02  0.36744872316E+02  0.84333105575E+02  0.72104946743E+02 0.  0.
         24    2    1    2    0    0 -0.56534486535E+02 -0.27461883940E+02  0.22587744062E+03  0.24791420198E+03  0.80563826400E+02 0.  0.
        -11    1    4    4    0    0 -0.10631249831E+02  0.21872015087E+02  0.20639334551E+02  0.31896561690E+02  0.00000000000E+00 0.  1.
         12    1    4    4    0    0 -0.45903236704E+02 -0.49333899026E+02  0.20523810607E+03  0.21601764029E+03  0.00000000000E+00 0. -1.
        -13    1    3    3    0    0  0.99863435521E+00  0.26011582784E+02 -0.12532675385E+02  0.28890615463E+02  0.00000000000E+00 0.  1.
         13    1    3    3    0    0  0.20214896654E+02 -0.15393211353E+02  0.49277547701E+02  0.55442490113E+02  0.00000000000E+00 0. -1.
         21    1    1    2  502  501  0.35320955526E+02  0.16843512509E+02  0.69276172072E+02  0.79564199424E+02  0.00000000000E+00 0.  1.
<scales pt_clust_5="13000.00000" pt_clust_6="13000.00000" pt_clust_7="13000.00000" pt_clust_8="13000.00000" pt_clust_9="39.13149"></scales>
<clustering>
<clus scale="   39.131">  1  9  2 -1</clus>
<clus scale="   72.105">  7  8 -1 -1</clus>
<clus scale="   78.760">  2  7  1 -1</clus>
<clus scale="   80.564">  5  6 -1 -1</clus>
<clus scale="   39.131">  1  5  2 -1</clus>
</clustering>
</event>
<event>
 9    2  0.2869112E-005  0.1357047E+03  0.7546771E-02  0.1220020E+00
         -1   -1    0    0    0  501 -0.00000000000E+00  0.00000000000E+00  0.13589991703E+03  0.13589991703E+03  0.00000000000E+00 0.  1.
          2   -1    0    0  502    0  0.00000000000E+00 -0.00000000000E+00 -0.30991708654E+03  0.30991708654E+03  0.00000000000E+00 0. -1.
         23    2    1    2    0    0 -0.66828593732E+02  0.89972100598E+02  0.56573225572E+01  0.14488786203E+03  0.91648499381E+02 0.  0.
         24    2    1    2    0    0  0.67941185052E+02 -0.64368233407E+02 -0.21759251559E+03  0.25516264307E+03  0.94879910831E+02 0.  0.
        -13    1    4    4    0    0  0.37278258336E+02  0.92616052452E+01 -0.22788325348E+02  0.44662665040E+02  0.00000000000E+00 0.  1.
         14    1    4    4    0    0  0.30662926716E+02 -0.73629838652E+02 -0.19480419024E+03  0.21049997803E+03  0.00000000000E+00 0. -1.
        -11    1    3    3    0    0 -0.74162874400E+02  0.60257790432E+02  0.35693250173E+02  0.10200559472E+03  0.00000000000E+00 0.  1.
         11    1    3    3    0    0  0.73342806676E+01  0.29714310167E+02 -0.30035927616E+02  0.42882267306E+02  0.00000000000E+00 0. -1.
         21    1    1    2  502  501 -0.11125913200E+01 -0.25603867191E+02  0.37918023520E+02  0.45766498470E+02  0.00000000000E+00 0. -1.
<scales pt_clust_5="13000.00000" pt_clust_6="13000.00000" pt_clust_7="13000.00000" pt_clust_8="13000.00000" pt_clust_9="25.62803"></scales>
<clustering>
<clus scale="   25.628">  1  9  2 -1</clus>
<clus scale="   91.648">  7  8 -1 -1</clus>
<clus scale="   94.880">  5  6 -1 -1</clus>
<clus scale="  133.465">  1  7  2 -1</clus>
<clus scale="  135.705">  2  5  1 -1</clus>
</clustering>
</event>
<event>
 9    2  0.2869112E-005  0.1194234E+03  0.7546771E-02  0.1247025E+00
          2   -1    0    0  502    0  0.00000000000E+00  0.00000000000E+00  0.19201327650E+03  0.19201327650E+03  0.00000000000E+00 0. -1.
         -1   -1    0    0    0  501 -0.00000000000E+00 -0.00000000000E+00 -0.20991310220E+03  0.20991310220E+03  0.00000000000E+00 0.  1.
         23    2    1    2    0    0 -0.63108835332E+01  0.59004879369E+00 -0.88102262271E+02  0.12719758431E+03  0.91526178922E+02 0.  0.
         24    2    1    2    0    0  0.64135772749E+02  0.70461586969E+02  0.11700109857E+03  0.17185913160E+03  0.82268289531E+02 0.  0.
        -11    1    4    4    0    0  0.72657782025E+02  0.42239409032E+02  0.47907799755E+02  0.96739228039E+02  0.00000000000E+00 0.  1.
         12    1    4    4    0    0 -0.85220092758E+01  0.28222177938E+02  0.69093298812E+02  0.75119903557E+02  0.00000000000E+00 0. -1.
        -13    1    3    3    0    0  0.49443051887E+01  0.29803703279E+02  0.34812287967E+01  0.30410949293E+02  0.00000000000E+00 0.  1.
         13    1    3    3    0    0 -0.11255188722E+02 -0.29213654485E+02 -0.91583491067E+02  0.96786635016E+02  0.00000000000E+00 0. -1.
         21    1    1    2  502  501 -0.57824889216E+02 -0.71051635763E+02 -0.46798661999E+02  0.10286966279E+03  0.00000000000E+00 0.  1.
<scales pt_clust_5="13000.00000" pt_clust_6="13000.00000" pt_clust_7="13000.00000" pt_clust_8="13000.00000" pt_clust_9="91.60815"></scales>
<clustering>
<clus scale="   82.268">  5  6 -1 -1</clus>
<clus scale="   91.526">  7  8 -1 -1</clus>
<clus scale="   91.608">  2  9  1 -1</clus>
<clus scale="  112.486">  1  5  2 -1</clus>
<clus scale="  112.486">  1  5  2 -1</clus>
</clustering>
</event>
<event>
 9    2  0.2869112E-005  0.9340291E+02  0.7546771E-02  0.1301690E+00
          2   -1    0    0  502    0  0.00000000000E+00  0.00000000000E+00  0.12109133451E+04  0.12109133451E+04  0.00000000000E+00 0. -1.
         -1   -1    0    0    0  501 -0.00000000000E+00 -0.00000000000E+00 -0.22401274521E+02  0.22401274521E+02  0.00000000000E+00 0.  1.
         23    2    1    2    0    0  0.77185541036E+00  0.42655889892E+01  0.15297738067E+03  0.17861389350E+03  0.92098061574E+02 0.  0.
         24    2    1    2    0    0  0.37607878379E+01  0.17746967234E+02  0.10275061400E+04  0.10308353726E+04  0.80768801470E+02 0.  0.
        -13    1    4    4    0    0 -0.14727570281E+02 -0.14595381312E+02  0.81508181906E+02  0.84104162796E+02  0.00000000000E+00 0.  1.
         14    1    4    4    0    0  0.18488358119E+02  0.32342348546E+02  0.94599795810E+03  0.94673120981E+03  0.00000000000E+00 0. -1.
        -13    1    3    3    0    0 -0.97833155215E+01  0.29434377342E+02  0.14756531902E+03  0.15078998379E+03  0.00000000000E+00 0. -1.
         13    1    3    3    0    0  0.10555170932E+02 -0.25168788353E+02  0.54120616440E+01  0.27823909714E+02  0.00000000000E+00 0.  1.
         21    1    1    2  502  501 -0.45326432482E+01 -0.22012556223E+02  0.80285499504E+01  0.23865353561E+02  0.00000000000E+00 0.  1.
<scales pt_clust_5="13000.00000" pt_clust_6="13000.00000" pt_clust_7="13000.00000" pt_clust_8="13000.00000" pt_clust_9="22.47437"></scales>
<clustering>
<clus scale="   22.474">  2  9  1 -1</clus>
<clus scale="   80.769">  5  6 -1 -1</clus>
<clus scale="   82.254">  1  5  2 -1</clus>
<clus scale="   92.098">  7  8 -1 -1</clus>
<clus scale="   82.254">  1  5  2 -1</clus>
</clustering>
</event>
<event>
 9    2  0.2869112E-005  0.9207344E+02  0.7546771E-02  0.1308617E+00
          2   -1    0    0  502    0  0.00000000000E+00  0.00000000000E+00  0.12033469070E+03  0.12033469070E+03  0.00000000000E+00 0. -1.
         -1   -1    0    0    0  501 -0.00000000000E+00 -0.00000000000E+00 -0.40703514840E+03  0.40703514840E+03  0.00000000000E+00 0.  1.
         23    2    1    2    0    0  0.26371092882E+02  0.18097403762E+02 -0.33159750655E+03  0.34456544958E+03  0.88008477591E+02 0.  0.
         24    2    1    2    0    0 -0.65059513878E+01 -0.26373931996E+02  0.98976095076E+02  0.12460071261E+03  0.70648131573E+02 0.  0.
        -13    1    4    4    0    0 -0.19706860622E+02  0.10030364595E+02  0.45958419315E+01  0.22585179489E+02  0.00000000000E+00 0.  1.
         14    1    4    4    0    0  0.13200909234E+02 -0.36404296591E+02  0.94380253144E+02  0.10201553312E+03  0.00000000000E+00 0. -1.
        -13    1    3    3    0    0  0.44621852934E+02  0.34988998978E+02 -0.29446521546E+03  0.29987514556E+03  0.00000000000E+00 0.  1.
         13    1    3    3    0    0 -0.18250760052E+02 -0.16891595216E+02 -0.37132291094E+02  0.44690304019E+02  0.00000000000E+00 0. -1.
         21    1    1    2  502  501 -0.19865141495E+02  0.82765282342E+01 -0.54079046225E+02  0.58203676919E+02  0.00000000000E+00 0. -1.
<scales pt_clust_5="13000.00000" pt_clust_6="13000.00000" pt_clust_7="13000.00000" pt_clust_8="13000.00000" pt_clust_9="21.52033"></scales>
<clustering>
<clus scale="   21.520">  2  9  1 -1</clus>
<clus scale="   70.648">  5  6 -1 -1</clus>
<clus scale="   75.652">  1  5  2 -1</clus>
<clus scale="   88.008">  7  8 -1 -1</clus>
<clus scale="   75.652">  1  5  2 -1</clus>
</clustering>
</event>
<event>
 9    2  0.2869112E-005  0.1002403E+03  0.7546771E-02  0.1285544E+00
          2   -1    0    0  502    0  0.00000000000E+00  0.00000000000E+00  0.17653333077E+03  0.17653333077E+03  0.00000000000E+00 0. -1.
         -1   -1    0    0    0  501 -0.00000000000E+00 -0.00000000000E+00 -0.25514956110E+03  0.25514956110E+03  0.00000000000E+00 0.  1.
         24    2    1    2    0    0  0.51160711512E+02  0.14711252347E+02 -0.11402931080E+03  0.14932021658E+03  0.80374150133E+02 0.  0.
         23    2    1    2    0    0 -0.32080652084E+02 -0.22142591614E+02  0.14216632021E+03  0.17366342200E+03  0.91805549600E+02 0.  0.
        -13    1    3    3    0    0  0.20430241351E+02 -0.20564598348E+02 -0.94107963133E+02  0.98471347061E+02  0.00000000000E+00 0.  1.
         14    1    3    3    0    0  0.30730470161E+02  0.35275850695E+02 -0.19921347671E+02  0.50848869521E+02  0.00000000000E+00 0. -1.
        -11    1    4    4    0    0 -0.21199231808E+02 -0.48267736431E+02  0.36117924590E+02  0.63903726699E+02  0.00000000000E+00 0. -1.
         11    1    4    4    0    0 -0.10881420276E+02  0.26125144817E+02  0.10604839562E+03  0.10975969530E+03  0.00000000000E+00 0.  1.
         21    1    1    2  502  501 -0.19080059428E+02  0.74313392671E+01 -0.10675323974E+03  0.10869925329E+03  0.00000000000E+00 0.  1.
<scales pt_clust_5="13000.00000" pt_clust_6="13000.00000" pt_clust_7="13000.00000" pt_clust_8="13000.00000" pt_clust_9="20.47617"></scales>
<clustering>
<clus scale="   20.476">  2  9  1 -1</clus>
<clus scale="   80.374">  5  6 -1 -1</clus>
<clus scale="   89.888">  2  5  1 -1</clus>
<clus scale="   91.806">  7  8 -1 -1</clus>
<clus scale="  100.240">  1  5  2 -1</clus>
</clustering>
</event>
<event>
 9    2  0.2869112E-005  0.1101630E+03  0.7546771E-02  0.1264567E+00
          2   -1    0    0  502    0  0.00000000000E+00  0.00000000000E+00  0.14707767337E+04  0.14707767337E+04  0.00000000000E+00 0. -1.
         -1   -1    0    0    0  501 -0.00000000000E+00 -0.00000000000E+00 -0.17279820664E+02  0.17279820664E+02  0.00000000000E+00 0.  1.
         23    2    1    2    0    0 -0.18499049748E+02  0.52961831761E+02  0.24549030743E+03  0.26812115689E+03  0.92066786983E+02 0.  0.
         24    2    1    2    0    0  0.38304123393E+02 -0.48566534032E+02  0.11844742574E+04  0.11888656213E+04  0.81217515223E+02 0.  0.
        -11    1    4    4    0    0  0.23351524458E+02 -0.36927391178E+02  0.22491904112E+03  0.22912333136E+03  0.00000000000E+00 0.  1.
         12    1    4    4    0    0  0.14952598935E+02 -0.11639142854E+02  0.95955521632E+03  0.95974228991E+03  0.00000000000E+00 0. -1.
        -11    1    3    3    0    0 -0.66924008705E+01  0.78148954884E+02  0.15947640183E+03  0.17772104580E+03  0.00000000000E+00 0.  1.
         11    1    3    3    0    0 -0.11806648878E+02 -0.25187123124E+02  0.86013905602E+02  0.90400111095E+02  0.00000000000E+00 0. -1.
         21    1    1    2  502  501 -0.19805073645E+02 -0.43952977288E+01  0.23532348195E+02  0.31069776243E+02  0.00000000000E+00 0. -1.
<scales pt_clust_5="13000.00000" pt_clust_6="13000.00000" pt_clust_7="13000.00000" pt_clust_8="13000.00000" pt_clust_9="20.28693"></scales>
<clustering>
<clus scale="   20.287">  2  9  1 -1</clus>
<clus scale="   81.218">  5  6 -1 -1</clus>
<clus scale="   92.067">  7  8 -1 -1</clus>
<clus scale="  101.271">  1  5  2 -1</clus>
<clus scale="  101.271">  1  5  2 -1</clus>
</clustering>
</event>
<event>
 9    2  0.2869112E-005  0.1718926E+03  0.7546771E-02  0.1209758E+00
         -1   -1    0    0    0  501 -0.00000000000E+00  0.00000000000E+00  0.11197963921E+03  0.11197963921E+03  0.00000000000E+00 0.  1.
          2   -1    0    0  502    0  0.00000000000E+00 -0.00000000000E+00 -0.11801857731E+04  0.11801857731E+04  0.00000000000E+00 0. -1.
         23    2    1    2    0    0 -0.14407289582E+03 -0.67200062511E+02 -0.80482975559E+03  0.82536575122E+03  0.90580572319E+02 0.  0.
         24    2    1    2    0    0  0.31743721121E+02 -0.25339333438E+02 -0.30475445674E+03  0.31549358502E+03  0.70789671807E+02 0.  0.
        -13    1    4    4    0    0  0.34392036879E+02 -0.13259669465E+02 -0.59936230751E+02  0.70363220447E+02  0.00000000000E+00 0.  1.
         14    1    4    4    0    0 -0.26483157587E+01 -0.12079663973E+02 -0.24481822599E+03  0.24513036457E+03  0.00000000000E+00 0. -1.
        -13    1    3    3    0    0 -0.32383949609E+02  0.14639803075E+02 -0.81640982628E+02  0.89040968496E+02  0.00000000000E+00 0.  1.
         13    1    3    3    0    0 -0.11168894621E+03 -0.81839865585E+02 -0.72318877297E+03  0.73632478272E+03  0.00000000000E+00 0. -1.
         21    1    1    2  502  501  0.11232917470E+03  0.92539395948E+02  0.41378078424E+02  0.15130607610E+03  0.00000000000E+00 0.  1.
<scales pt_clust_5="13000.00000" pt_clust_6="13000.00000" pt_clust_7="13000.00000" pt_clust_8="13000.00000" pt_clust_9="146.08976"></scales>
<clustering>
<clus scale="   70.790">  5  6 -1 -1</clus>
<clus scale="   81.614">  2  5  1 -1</clus>
<clus scale="   90.581">  7  8 -1 -1</clus>
<clus scale="  146.090">  1  9  2 -1</clus>
<clus scale="   81.614">  2  5  1 -1</clus>
</clustering>
</event>
<event>
 9    2  0.2869112E-005  0.9450455E+02  0.7546771E-02  0.1297228E+00
          4   -1    0    0  502    0  0.00000000000E+00  0.00000000000E+00  0.11563378468E+03  0.11563378468E+03  0.00000000000E+00 0. -1.
         -3   -1    0    0    0  501 -0.00000000000E+00 -0.00000000000E+00 -0.34500778619E+03  0.34500778619E+03  0.00000000000E+00 0.  1.
         24    2    1    2    0    0 -0.11760063277E+02 -0.23503286386E+02 -0.14546575864E+03  0.16961925001E+03  0.83184731038E+02 0.  0.
         23    2    1    2    0    0 -0.21766980776E+02  0.13015358912E+02  0.79417850852E+02  0.12396103810E+03  0.91738448387E+02 0.  0.
        -11    1    3    3    0    0 -0.50636641613E+01  0.31215273132E+02 -0.61869315512E+02  0.69482704130E+02  0.00000000000E+00 0.  1.
         12    1    3    3    0    0 -0.66963991158E+01 -0.54718559518E+02 -0.83596443125E+02  0.10013654588E+03  0.00000000000E+00 0. -1.
        -11    1    4    4    0    0  0.23280438825E+02 -0.17469231091E+02  0.17732528948E+01  0.29159857555E+02  0.00000000000E+00 0.  1.
         11    1    4    4    0    0 -0.45047419600E+02  0.30484590003E+02  0.77644597957E+02  0.94801180543E+02  0.00000000000E+00 0. -1.
         21    1    1    2  502  501  0.33527044053E+02  0.10487927474E+02 -0.16332609373E+03  0.16706128276E+03  0.00000000000E+00 0.  1.
<scales pt_clust_5="13000.00000" pt_clust_6="13000.00000" pt_clust_7="13000.00000" pt_clust_8="13000.00000" pt_clust_9="35.12918"></scales>
<clustering>
<clus scale="   35.129">  2  9  1 -1</clus>
<clus scale="   83.185">  5  6 -1 -1</clus>
<clus scale="   86.226">  2  5  1 -1</clus>
<clus scale="   91.738">  7  8 -1 -1</clus>
<clus scale="   94.505">  1  5  2 -1</clus>
</clustering>
</event>
<event>
 9    2  0.2869112E-005  0.1180523E+03  0.7546771E-02  0.1250133E+00
          2   -1    0    0  502    0  0.00000000000E+00  0.00000000000E+00  0.36923054125E+03  0.36923054125E+03  0.00000000000E+00 0. -1.
         -1   -1    0    0    0  501 -0.00000000000E+00 -0.00000000000E+00 -0.79064007775E+02  0.79064007775E+02  0.00000000000E+00 0.  1.
         23    2    1    2    0    0  0.17424620216E+02 -0.57814188576E+02  0.13077317618E+02  0.11034759442E+03  0.91430178650E+02 0.  0.
         24    2    1    2    0    0 -0.39928094998E+02  0.67082447914E+02  0.28971826947E+03  0.31052798301E+03  0.79979028361E+02 0.  0.
        -11    1    4    4    0    0 -0.40371671327E+02  0.18173617092E+02  0.54198250948E+02  0.69982873689E+02  0.00000000000E+00 0.  1.
         12    1    4    4    0    0  0.44357632917E+00  0.48908830822E+02  0.23552001852E+03  0.24054510932E+03  0.00000000000E+00 0. -1.
        -13    1    3    3    0    0 -0.26174727604E+02 -0.45601182108E+02 -0.17837417118E+02  0.55522586613E+02  0.00000000000E+00 0.  1.
         13    1    3    3    0    0  0.43599347819E+02 -0.12213006469E+02  0.30914734737E+02  0.54825007808E+02  0.00000000000E+00 0. -1.
         21    1    1    2  502  501  0.22503474782E+02 -0.92682593374E+01 -0.12629053610E+02  0.27418971599E+02  0.00000000000E+00 0.  1.
<scales pt_clust_5="13000.00000" pt_clust_6="13000.00000" pt_clust_7="13000.00000" pt_clust_8="13000.00000" pt_clust_9="24.33736"></scales>
<clustering>
<clus scale="   24.337">  2  9  1 -1</clus>
<clus scale="   79.979">  5  6 -1 -1</clus>
<clus scale="   91.430">  7  8 -1 -1</clus>
<clus scale="  109.424">  1  5  2 -1</clus>
<clus scale="  109.424">  1  5  2 -1</clus>
</clustering>
</event>
<event>
 9    2  0.2869112E-005  0.9305055E+02  0.7546771E-02  0.1300615E+00
         -1   -1    0    0    0  501 -0.00000000000E+00  0.00000000000E+00  0.16095314448E+03  0.16095314448E+03  0.00000000000E+00 0.  1.
          2   -1    0    0  502    0  0.00000000000E+00 -0.00000000000E+00 -0.11554944217E+03  0.11554944217E+03  0.00000000000E+00 0. -1.
         23    2    1    2    0    0  0.94090437926E+01  0.45960415168E+02  0.68524302993E+02  0.12239885747E+03  0.89916685553E+02 0.  0.
         24    2    1    2    0    0  0.39574962154E+01 -0.19049950180E+02 -0.62579969167E+02  0.10450655911E+03  0.81405196259E+02 0.  0.
        -13    1    4    4    0    0  0.13444707641E+02  0.23086711048E+02 -0.54317027061E+02  0.60531775286E+02  0.00000000000E+00 0.  1.
         14    1    4    4    0    0 -0.94872114256E+01 -0.42136661228E+02 -0.82629421057E+01  0.43974783823E+02  0.00000000000E+00 0. -1.
        -11    1    3    3    0    0  0.11537506255E+02  0.72627514832E+02  0.57972210431E+02  0.93641054797E+02  0.00000000000E+00 0.  1.
         11    1    3    3    0    0 -0.21284624628E+01 -0.26667099664E+02  0.10552092562E+02  0.28757802669E+02  0.00000000000E+00 0. -1.
         21    1    1    2  502  501 -0.13366540008E+02 -0.26910464988E+02  0.39459368488E+02  0.49597170072E+02  0.00000000000E+00 0.  1.
<scales pt_clust_5="13000.00000" pt_clust_6="13000.00000" pt_clust_7="13000.00000" pt_clust_8="13000.00000" pt_clust_9="30.04725"></scales>
<clustering>
<clus scale="   30.047">  1  9  2 -1</clus>
<clus scale="   81.405">  5  6 -1 -1</clus>
<clus scale="   84.854">  2  5  1 -1</clus>
<clus scale="   89.917">  7  8 -1 -1</clus>
<clus scale="   84.854">  2  5  1 -1</clus>
</clustering>
</event>
<event>
 9    2  0.2869112E-005  0.1037826E+03  0.7546771E-02  0.1275952E+00
         -1   -1    0    0    0  501 -0.00000000000E+00  0.00000000000E+00  0.15442584404E+03  0.15442584404E+03  0.00000000000E+00 0.  1.
          2   -1    0    0  502    0  0.00000000000E+00 -0.00000000000E+00 -0.63393874515E+03  0.63393874515E+03  0.00000000000E+00 0. -1.
         23    2    1    2    0    0 -0.65289897117E+02  0.28060184291E+02  0.11451948589E+03  0.16109362167E+03  0.88240000479E+02 0.  0.
         24    2    1    2    0    0  0.43854325372E+02 -0.31872021998E+02 -0.59742023378E+03  0.60523709930E+03  0.80386460369E+02 0.  0.
        -11    1    4    4    0    0  0.58536912129E+01 -0.37172276565E+02 -0.10901294010E+03  0.11532504045E+03  0.00000000000E+00 0.  1.
         12    1    4    4    0    0  0.38000634159E+02  0.53002545669E+01 -0.48840729368E+03  0.48991205885E+03  0.00000000000E+00 0. -1.
        -11    1    3    3    0    0 -0.45565758785E+02  0.17070165540E+02  0.12649806568E+03  0.13553372106E+03  0.00000000000E+00 0.  1.
         11    1    3    3    0    0 -0.19724138332E+02  0.10990018751E+02 -0.11978579787E+02  0.25559900602E+02  0.00000000000E+00 0. -1.
         21    1    1    2  502  501  0.21435571745E+02  0.38118377066E+01  0.33878467721E+01  0.22033868214E+02  0.00000000000E+00 0.  1.
<scales pt_clust_5="13000.00000" pt_clust_6="13000.00000" pt_clust_7="13000.00000" pt_clust_8="13000.00000" pt_clust_9="21.77186"></scales>
<clustering>
<clus scale="   21.772">  1  9  2 -1</clus>
<clus scale="   80.386">  5  6 -1 -1</clus>
<clus scale="   88.240">  7  8 -1 -1</clus>
<clus scale="   97.193">  2  5  1 -1</clus>
<clus scale="   97.193">  2  5  1 -1</clus>
</clustering>
</event>
<event>
 9    2  0.2869112E-005  0.1114467E+03  0.7546771E-02  0.1266500E+00
          2   -1    0    0  502    0  0.00000000000E+00  0.00000000000E+00  0.68936577563E+03  0.68936577563E+03  0.00000000000E+00 0. -1.
         -1   -1    0    0    0  501 -0.00000000000E+00 -0.00000000000E+00 -0.37369408321E+02  0.37369408321E+02  0.00000000000E+00 0.  1.
         23    2    1    2    0    0  0.12657979654E+02 -0.28473968833E+02  0.63414092354E+02  0.12234043208E+03  0.99874135099E+02 0.  0.
         24    2    1    2    0    0 -0.33792446592E+02  0.39727799959E+02  0.55482065561E+03  0.56300439855E+03  0.80173345661E+02 0.  0.
        -11    1    4    4    0    0 -0.36023948319E+02 -0.55916465947E+01  0.11017614266E+03  0.11605073793E+03  0.00000000000E+00 0.  1.
         12    1    4    4    0    0  0.22315017270E+01  0.45319446554E+02  0.44464451295E+03  0.44695366061E+03  0.00000000000E+00 0. -1.
        -11    1    3    3    0    0  0.53340636714E+02 -0.19014393503E+02  0.56518774569E+02  0.80007140708E+02  0.00000000000E+00 0.  1.
         11    1    3    3    0    0 -0.40682657060E+02 -0.94595753299E+01  0.68953177848E+01  0.42333291370E+02  0.00000000000E+00 0. -1.
         21    1    1    2  502  501  0.21134466937E+02 -0.11253831126E+02  0.33761619342E+02  0.41390353324E+02  0.00000000000E+00 0.  1.
<scales pt_clust_5="13000.00000" pt_clust_6="13000.00000" pt_clust_7="13000.00000" pt_clust_8="13000.00000" pt_clust_9="23.94398"></scales>
<clustering>
<clus scale="   23.944">  2  9  1 -1</clus>
<clus scale="   80.173">  5  6 -1 -1</clus>
<clus scale="   94.198">  1  5  2 -1</clus>
<clus scale="   99.874">  7  8 -1 -1</clus>
<clus scale="   94.198">  1  5  2 -1</clus>
</clustering>
</event>
<event>
 9    2  0.2869112E-005  0.1111837E+03  0.7546771E-02  0.1260574E+00
         -1   -1    0    0    0  501 -0.00000000000E+00  0.00000000000E+00  0.13323969617E+03  0.13323969617E+03  0.00000000000E+00 0.  1.
          2   -1    0    0  502    0  0.00000000000E+00 -0.00000000000E+00 -0.26114236002E+03  0.26114236002E+03  0.00000000000E+00 0. -1.
         23    2    1    2    0    0 -0.83431610776E+01 -0.38948787277E+02  0.32935425734E+02  0.10706783032E+03  0.93766527369E+02 0.  0.
         24    2    1    2    0    0 -0.16746692160E+02  0.62186968589E+02 -0.20451581234E+03  0.23184119394E+03  0.88181352615E+02 0.  0.
        -11    1    4    4    0    0  0.29868364373E+02 -0.17940895491E+01 -0.60872007438E+02  0.67828749341E+02  0.00000000000E+00 0.  1.
         12    1    4    4    0    0 -0.46615056533E+02  0.63981058138E+02 -0.14364380490E+03  0.16401244460E+03  0.00000000000E+00 0. -1.
        -13    1    3    3    0    0  0.12164013265E+01 -0.65978710188E+02  0.40486166015E+02  0.77419632322E+02  0.00000000000E+00 0.  1.
         13    1    3    3    0    0 -0.95595624041E+01  0.27029922911E+02 -0.75507402812E+01  0.29648198002E+02  0.00000000000E+00 0. -1.
         21    1    1    2  502  501  0.25089853237E+02 -0.23238181313E+02  0.43677722753E+02  0.55473031926E+02  0.00000000000E+00 0.  1.
<scales pt_clust_5="13000.00000" pt_clust_6="13000.00000" pt_clust_7="13000.00000" pt_clust_8="13000.00000" pt_clust_9="34.19816"></scales>
<clustering>
<clus scale="   34.198">  1  9  2 -1</clus>
<clus scale="   88.181">  5  6 -1 -1</clus>
<clus scale="   93.767">  7  8 -1 -1</clus>
<clus scale="  106.516">  2  5  1 -1</clus>
<clus scale="  106.516">  2  5  1 -1</clus>
</clustering>
</event>
<event>
 9    2  0.2869112E-005  0.8955136E+02  0.7546771E-02  0.1311274E+00
          2   -1    0    0  502    0  0.00000000000E+00  0.00000000000E+00  0.48928364896E+03  0.48928364896E+03  0.00000000000E+00 0. -1.
         -1   -1    0    0    0  501 -0.00000000000E+00 -0.00000000000E+00 -0.21176233291E+02  0.21176233291E+02  0.00000000000E+00 0.  1.
         23    2    1    2    0    0  0.99188112826E+01  0.96507277904E+01  0.21223431272E+03  0.23076874543E+03  0.89550494185E+02 0.  0.
         24    2    1    2    0    0  0.71478357063E+01  0.60660793159E+01  0.23697229877E+03  0.24976574854E+03  0.78352855003E+02 0.  0.
        -11    1    4    4    0    0  0.27876085569E+02 -0.27609136524E+02  0.11075152493E+03  0.11749570563E+03  0.00000000000E+00 0.  1.
         12    1    4    4    0    0 -0.20728249863E+02  0.33675215840E+02  0.12622077384E+03  0.13227004291E+03  0.00000000000E+00 0. -1.
        -11    1    3    3    0    0  0.44302717314E+02  0.12676867905E+02  0.65862793325E+02  0.80382468772E+02  0.00000000000E+00 0.  1.
         11    1    3    3    0    0 -0.34383906032E+02 -0.30261401146E+01  0.14637151939E+03  0.15038627666E+03  0.00000000000E+00 0. -1.
         21    1    1    2  502  501 -0.17066646989E+02 -0.15716807106E+02  0.18900804188E+02  0.29925388285E+02  0.00000000000E+00 0.  1.
<scales pt_clust_5="13000.00000" pt_clust_6="13000.00000" pt_clust_7="13000.00000" pt_clust_8="13000.00000" pt_clust_9="23.20104"></scales>
<clustering>
<clus scale="   23.201">  2  9  1 -1</clus>
<clus scale="   78.353">  5  6 -1 -1</clus>
<clus scale="   78.354">  1  5  2 -1</clus>
<clus scale="   89.550">  7  8 -1 -1</clus>
<clus scale="   78.354">  1  5  2 -1</clus>
</clustering>
</event>
<event>
 9    2  0.2869112E-005  0.3004239E+03  0.7546771E-02  0.1085396E+00
          2   -1    0    0  502    0  0.00000000000E+00  0.00000000000E+00  0.29606035682E+03  0.29606035682E+03  0.00000000000E+00 0. -1.
         -1   -1    0    0    0  501 -0.00000000000E+00 -0.00000000000E+00 -0.42511252245E+03  0.42511252245E+03  0.00000000000E+00 0.  1.
         23    2    1    2    0    0  0.24473418266E+02  0.27785838150E+03 -0.21231536647E+03  0.36241332270E+03  0.91985723102E+02 0.  0.
         24    2    1    2    0    0 -0.11772216935E+02 -0.30553804069E+03  0.86450257917E+02  0.32813862613E+03  0.81909898432E+02 0.  0.
        -11    1    4    4    0    0 -0.44377731576E+02 -0.13002336847E+03  0.47962462378E+02  0.14551926747E+03  0.00000000000E+00 0.  1.
         12    1    4    4    0    0  0.32605514642E+02 -0.17551467222E+03  0.38487795539E+02  0.18261935865E+03  0.00000000000E+00 0. -1.
        -11    1    3    3    0    0  0.53686618011E+02  0.13289866839E+03 -0.80925773462E+02  0.16460039436E+03  0.00000000000E+00 0.  1.
         11    1    3    3    0    0 -0.29213199745E+02  0.14495971311E+03 -0.13138959301E+03  0.19781292833E+03  0.00000000000E+00 0. -1.
         21    1    1    2  502  501 -0.12701201331E+02  0.27679659192E+02 -0.31870570735E+01  0.30620930440E+02  0.00000000000E+00 0. -1.
<scales pt_clust_5="13000.00000" pt_clust_6="13000.00000" pt_clust_7="13000.00000" pt_clust_8="13000.00000" pt_clust_9="30.45462"></scales>
<clustering>
<clus scale="   30.455">  1  9  2 -1</clus>
<clus scale="   81.910">  5  6 -1 -1</clus>
<clus scale="   91.986">  7  8 -1 -1</clus>
<clus scale="  297.494">  1  5  2 -1</clus>
<clus scale="   30.455">  1  5  2 -1</clus>
</clustering>
</event>
<event>
 9    2  0.2869112E-005  0.1048854E+03  0.7546771E-02  0.1281803E+00
          2   -1    0    0  502    0  0.00000000000E+00  0.00000000000E+00  0.77108428979E+03  0.77108428979E+03  0.00000000000E+00 0. -1.
         -1   -1    0    0    0  501 -0.00000000000E+00 -0.00000000000E+00 -0.10734926096E+03  0.10734926096E+03  0.00000000000E+00 0.  1.
         23    2    1    2    0    0  0.24493747328E+02  0.94939416577E+02 -0.37333741084E+02  0.13841274734E+03  0.90282024371E+02 0.  0.
         24    2    1    2    0    0  0.20513265743E+02 -0.48451100650E+02  0.65562787773E+03  0.66095330424E+03  0.65138722014E+02 0.  0.
        -11    1    4    4    0    0 -0.21480003368E+02 -0.18593966513E+02  0.14684114537E+03  0.14956419394E+03  0.00000000000E+00 0.  1.
         12    1    4    4    0    0  0.41993269110E+02 -0.29857134137E+02  0.50878673236E+03  0.51138911030E+03  0.00000000000E+00 0. -1.
        -11    1    3    3    0    0  0.29539509801E+01  0.27231066042E+02  0.29930282951E+02  0.40571894480E+02  0.00000000000E+00 0. -1.
         11    1    3    3    0    0  0.21539796348E+02  0.67708350535E+02 -0.67264024035E+02  0.97840852859E+02  0.00000000000E+00 0.  1.
         21    1    1    2  502  501 -0.45007013071E+02 -0.46488315927E+02  0.45440892184E+02  0.79067499175E+02  0.00000000000E+00 0. -1.
<scales pt_clust_5="13000.00000" pt_clust_6="13000.00000" pt_clust_7="13000.00000" pt_clust_8="13000.00000" pt_clust_9="64.70545"></scales>
<clustering>
<clus scale="   64.705">  2  9  1 -1</clus>
<clus scale="   65.139">  5  6 -1 -1</clus>
<clus scale="   84.221">  1  5  2 -1</clus>
<clus scale="   90.282">  7  8 -1 -1</clus>
<clus scale="   84.221">  1  5  2 -1</clus>
</clustering>
</event>
<event>
 9    2  0.2869112E-005  0.1019515E+03  0.7546771E-02  0.1282779E+00
         -1   -1    0    0    0  501 -0.00000000000E+00  0.00000000000E+00  0.19501542701E+03  0.19501542701E+03  0.00000000000E+00 0.  1.
          2   -1    0    0  502    0  0.00000000000E+00 -0.00000000000E+00 -0.31777323205E+03  0.31777323205E+03  0.00000000000E+00 0. -1.
         23    2    1    2    0    0 -0.32492370104E+02  0.24301733730E+02  0.16596000728E+03  0.19492437146E+03  0.93842731193E+02 0.  0.
         24    2    1    2    0    0  0.30379757091E+02 -0.14689946368E+01 -0.28056660872E+03  0.29352832185E+03  0.80722773845E+02 0.  0.
        -13    1    4    4    0    0 -0.24681763449E+02  0.14843182498E+02 -0.89833712631E+02  0.94337720126E+02  0.00000000000E+00 0.  1.
         14    1    4    4    0    0  0.55061520540E+02 -0.16312177135E+02 -0.19073289609E+03  0.19919060173E+03  0.00000000000E+00 0. -1.
        -13    1    3    3    0    0 -0.49692435926E+02 -0.19023584459E+02  0.67192208474E+02  0.85708971721E+02  0.00000000000E+00 0.  1.
         13    1    3    3    0    0  0.17200065821E+02  0.43325318189E+02  0.98767798804E+02  0.10921539974E+03  0.00000000000E+00 0. -1.
         21    1    1    2  502  501  0.21126130129E+01 -0.22832739094E+02 -0.81512036058E+01  0.24335965740E+02  0.00000000000E+00 0. -1.
<scales pt_clust_5="13000.00000" pt_clust_6="13000.00000" pt_clust_7="13000.00000" pt_clust_8="13000.00000" pt_clust_9="22.93027"></scales>
<clustering>
<clus scale="   22.930">  2  9  1 -1</clus>
<clus scale="   80.723">  5  6 -1 -1</clus>
<clus scale="   90.021">  2  5  1 -1</clus>
<clus scale="   93.843">  7  8 -1 -1</clus>
<clus scale="   22.930">  2  5  1 -1</clus>
</clustering>
</event>
<event>
 9    2  0.2869112E-005  0.1616158E+03  0.7546771E-02  0.1189844E+00
         -1   -1    0    0    0  501 -0.00000000000E+00  0.00000000000E+00  0.22435156828E+03  0.22435156828E+03  0.00000000000E+00 0.  1.
          2   -1    0    0  502    0  0.00000000000E+00 -0.00000000000E+00 -0.20389503581E+03  0.20389503581E+03  0.00000000000E+00 0. -1.
         24    2    1    2    0    0 -0.10634721408E+03 -0.65699228954E+01  0.17187050906E+02  0.13357926245E+03  0.78709153264E+02 0.  0.
         23    2    1    2    0    0  0.14389647583E+03 -0.47275766069E+02 -0.72942254482E+02  0.19408138840E+03  0.96983601822E+02 0.  0.
        -11    1    3    3    0    0 -0.73758728015E+02 -0.37095219397E+02  0.28802227369E+02  0.87441257778E+02  0.00000000000E+00 0.  1.
         12    1    3    3    0    0 -0.32588486066E+02  0.30525296501E+02 -0.11615176463E+02  0.46138004669E+02  0.00000000000E+00 0. -1.
        -11    1    4    4    0    0  0.12015460485E+03 -0.30535583798E+02 -0.95397068073E+01  0.12434048798E+03  0.00000000000E+00 0.  1.
         11    1    4    4    0    0  0.23741870971E+02 -0.16740182271E+02 -0.63402547674E+02  0.69740900419E+02  0.00000000000E+00 0. -1.
         21    1    1    2  502  501 -0.37549261744E+02  0.53845688965E+02  0.76211736045E+02  0.10058595324E+03  0.00000000000E+00 0.  1.
<scales pt_clust_5="13000.00000" pt_clust_6="13000.00000" pt_clust_7="13000.00000" pt_clust_8="13000.00000" pt_clust_9="65.64530"></scales>
<clustering>
<clus scale="   65.645">  1  9  2 -1</clus>
<clus scale="   78.709">  5  6 -1 -1</clus>
<clus scale="   96.984">  7  8 -1 -1</clus>
<clus scale="  151.357">  1  5  2 -1</clus>
<clus scale="  161.616">  2  5  1 -1</clus>
</clustering>
</event>
<event>
 9    2  0.2869112E-005  0.1006521E+03  0.7546771E-02  0.1286737E+00
          2   -1    0    0  502    0  0.00000000000E+00  0.00000000000E+00  0.19024812368E+03  0.19024812368E+03  0.00000000000E+00 0. -1.
         -1   -1    0    0    0  501 -0.00000000000E+00 -0.00000000000E+00 -0.79776006738E+02  0.79776006738E+02  0.00000000000E+00 0.  1.
         23    2    1    2    0    0 -0.12435701591E+01  0.13958014638E+02  0.48559193896E+01  0.95783377037E+02  0.94628234286E+02 0.  0.
         24    2    1    2    0    0  0.30960127053E+02 -0.29554193662E+02  0.10761765951E+03  0.14062051537E+03  0.79753300083E+02 0.  0.
        -11    1    4    4    0    0  0.52892540713E+02 -0.36458211483E+01  0.45643541462E+02  0.69958886156E+02  0.00000000000E+00 0.  1.
         12    1    4    4    0    0 -0.21932413660E+02 -0.25908372514E+02  0.61974118049E+02  0.70661629214E+02  0.00000000000E+00 0. -1.
        -13    1    3    3    0    0 -0.24772172929E+02  0.45427681172E+02 -0.11856433950E+02  0.53083988116E+02  0.00000000000E+00 0.  1.
         13    1    3    3    0    0  0.23528602770E+02 -0.31469666534E+02  0.16712353339E+02  0.42699388921E+02  0.00000000000E+00 0. -1.
         21    1    1    2  502  501 -0.29716556894E+02  0.15596179024E+02 -0.20014619607E+01  0.33620238009E+02  0.00000000000E+00 0.  1.
<scales pt_clust_5="13000.00000" pt_clust_6="13000.00000" pt_clust_7="13000.00000" pt_clust_8="13000.00000" pt_clust_9="33.56061"></scales>
<clustering>
<clus scale="   33.561">  2  9  1 -1</clus>
<clus scale="   79.753">  5  6 -1 -1</clus>
<clus scale="   86.816">  1  5  2 -1</clus>
<clus scale="   94.628">  7  8 -1 -1</clus>
<clus scale="   86.816">  1  5  2 -1</clus>
</clustering>
</event>
<event>
 9    2  0.2869112E-005  0.1059529E+03  0.7546771E-02  0.1275049E+00
          2   -1    0    0  502    0  0.00000000000E+00  0.00000000000E+00  0.18112323580E+03  0.18112323580E+03  0.00000000000E+00 0. -1.
         -1   -1    0    0    0  501 -0.00000000000E+00 -0.00000000000E+00 -0.47621965565E+03  0.47621965565E+03  0.00000000000E+00 0.  1.
         23    2    1    2    0    0  0.18008006484E+02  0.74170805942E+02 -0.22112129224E+03  0.25188894303E+03  0.93422786233E+02 0.  0.
         24    2    1    2    0    0 -0.24238995373E+02 -0.42233498801E+02  0.15164445860E+03  0.17749997391E+03  0.78351781056E+02 0.  0.
        -11    1    4    4    0    0  0.23737816433E+02 -0.15905499344E+02  0.19841909422E+02  0.34787500742E+02  0.00000000000E+00 0.  1.
         12    1    4    4    0    0 -0.47976811805E+02 -0.26327999457E+02  0.13180254918E+03  0.14271247317E+03  0.00000000000E+00 0. -1.
        -11    1    3    3    0    0  0.26144257977E+02  0.43683129881E+02 -0.31950969628E+02  0.60104929262E+02  0.00000000000E+00 0. -1.
         11    1    3    3    0    0 -0.81362514935E+01  0.30487676061E+02 -0.18917032261E+03  0.19178401377E+03  0.00000000000E+00 0.  1.
         21    1    1    2  502  501  0.62309888890E+01 -0.31937307141E+02 -0.22561958621E+03  0.22795397451E+03  0.00000000000E+00 0.  1.
<scales pt_clust_5="13000.00000" pt_clust_6="13000.00000" pt_clust_7="13000.00000" pt_clust_8="13000.00000" pt_clust_9="32.53947"></scales>
<clustering>
<clus scale="   32.539">  2  9  1 -1</clus>
<clus scale="   78.352">  5  6 -1 -1</clus>
<clus scale="   92.937">  1  5  2 -1</clus>
<clus scale="   93.423">  7  8 -1 -1</clus>
<clus scale="   92.937">  1  5  2 -1</clus>
</clustering>
</event>
<event>
 9    2  0.2869112E-005  0.1083271E+03  0.7546771E-02  0.1268537E+00
         -1   -1    0    0    0  501 -0.00000000000E+00  0.00000000000E+00  0.11158071714E+03  0.11158071714E+03  0.00000000000E+00 0.  1.
          2   -1    0    0  502    0  0.00000000000E+00 -0.00000000000E+00 -0.37865778574E+03  0.37865778574E+03  0.00000000000E+00 0. -1.
         23    2    1    2    0    0 -0.30107980586E+02 -0.76048540268E+02  0.27003029642E+02  0.12519367200E+03  0.90853843769E+02 0.  0.
         24    2    1    2    0    0  0.46707691583E+02  0.34076609866E+02 -0.30353413419E+03  0.31893005946E+03  0.78997394991E+02 0.  0.
        -13    1    4    4    0    0  0.54391041129E+02  0.75242879081E+01 -0.10509210593E+03  0.11857213413E+03  0.00000000000E+00 0.  1.
         14    1    4    4    0    0 -0.76833495459E+01  0.26552321958E+02 -0.19844202827E+03  0.20035792533E+03  0.00000000000E+00 0. -1.
        -11    1    3    3    0    0  0.11864901897E+02 -0.62332569388E+02  0.44706859786E+02  0.77619768200E+02  0.00000000000E+00 0.  1.
         11    1    3    3    0    0 -0.41972882483E+02 -0.13715970880E+02 -0.17703830145E+02  0.47573903802E+02  0.00000000000E+00 0. -1.
         21    1    1    2  502  501 -0.16599710997E+02  0.41971930402E+02  0.94540359523E+01  0.46114771415E+02  0.00000000000E+00 0. -1.
<scales pt_clust_5="13000.00000" pt_clust_6="13000.00000" pt_clust_7="13000.00000" pt_clust_8="13000.00000" pt_clust_9="45.13528"></scales>
<clustering>
<clus scale="   45.135">  1  9  2 -1</clus>
<clus scale="   78.997">  5  6 -1 -1</clus>
<clus scale="   90.854">  7  8 -1 -1</clus>
<clus scale="   98.595">  2  5  1 -1</clus>
<clus scale="   98.595">  2  5  1 -1</clus>
</clustering>
</event>
<event>
 9    2  0.2869112E-005  0.1620457E+03  0.7546771E-02  0.1187163E+00
         -1   -1    0    0    0  501 -0.00000000000E+00  0.00000000000E+00  0.24404581571E+03  0.24404581571E+03  0.00000000000E+00 0.  1.
          2   -1    0    0  502    0  0.00000000000E+00 -0.00000000000E+00 -0.26039258690E+03  0.26039258690E+03  0.00000000000E+00 0. -1.
         23    2    1    2    0    0 -0.12201548476E+03  0.93159390128E+02  0.15902124093E+03  0.23907094392E+03  0.91108236013E+02 0.  0.
         24    2    1    2    0    0  0.10181703021E+03 -0.82701824191E+02 -0.18325695506E+03  0.24129312230E+03  0.86214615509E+02 0.  0.
        -13    1    4    4    0    0  0.23211820712E+02  0.66452103137E+01 -0.16908230873E+01  0.24203436194E+02  0.00000000000E+00 0.  1.
         14    1    4    4    0    0  0.78605209493E+02 -0.89347034505E+02 -0.18156613198E+03  0.21708968611E+03  0.00000000000E+00 0. -1.
        -13    1    3    3    0    0 -0.32357968736E+02  0.78226484519E+02  0.98466338596E+02  0.12985392122E+03  0.00000000000E+00 0.  1.
         13    1    3    3    0    0 -0.89657516026E+02  0.14932905609E+02  0.60554902338E+02  0.10921702270E+03  0.00000000000E+00 0. -1.
         21    1    1    2  502  501  0.20198454557E+02 -0.10457565937E+02  0.78889429374E+01  0.24074336387E+02  0.00000000000E+00 0.  1.
<scales pt_clust_5="13000.00000" pt_clust_6="13000.00000" pt_clust_7="13000.00000" pt_clust_8="13000.00000" pt_clust_9="22.74507"></scales>
<clustering>
<clus scale="   22.745">  1  9  2 -1</clus>
<clus scale="   86.215">  5  6 -1 -1</clus>
<clus scale="   91.108">  7  8 -1 -1</clus>
<clus scale="  159.346">  2  5  1 -1</clus>
<clus scale="  159.346">  2  5  1 -1</clus>
</clustering>
</event>
<event>
 9    2  0.2869112E-005  0.9183995E+02  0.7546771E-02  0.1303183E+00
         -1   -1    0    0    0  501 -0.00000000000E+00  0.00000000000E+00  0.29618350709E+02  0.29618350709E+02  0.00000000000E+00 0.  1.
          2   -1    0    0  502    0  0.00000000000E+00 -0.00000000000E+00 -0.43890036121E+03  0.43890036121E+03  0.00000000000E+00 0. -1.
         24    2    1    2    0    0  0.11156208176E+01 -0.15171745011E+02 -0.98623341332E+02  0.13042299020E+03  0.83977178213E+02 0.  0.
         23    2    1    2    0    0  0.15677310015E+02 -0.19226055944E+02 -0.22938612857E+03  0.24826011022E+03  0.91649697620E+02 0.  0.
        -13    1    3    3    0    0  0.23083994285E+02 -0.25637321341E+02 -0.10026478008E+03  0.10603381141E+03  0.00000000000E+00 0.  1.
         14    1    3    3    0    0 -0.21968373468E+02  0.10465576331E+02  0.16414387497E+01  0.24389178787E+02  0.00000000000E+00 0. -1.
        -13    1    4    4    0    0 -0.27910982641E+02  0.13009279397E+02 -0.14295205467E+03  0.14623116712E+03  0.00000000000E+00 0. -1.
         13    1    4    4    0    0  0.43588292656E+02 -0.32235335341E+02 -0.86434073898E+02  0.10202894311E+03  0.00000000000E+00 0.  1.
         21    1    1    2  502  501 -0.16792930832E+02  0.34397800955E+02 -0.81272540609E+02  0.89835611500E+02  0.00000000000E+00 0.  1.
<scales pt_clust_5="13000.00000" pt_clust_6="13000.00000" pt_clust_7="13000.00000" pt_clust_8="13000.00000" pt_clust_9="38.27808"></scales>
<clustering>
<clus scale="   38.278">  2  9  1 -1</clus>
<clus scale="   83.977">  5  6 -1 -1</clus>
<clus scale="   84.185">  1  5  2 -1</clus>
<clus scale="   91.650">  7  8 -1 -1</clus>
<clus scale="   38.278">  2  5  1 -1</clus>
</clustering>
</event>
<event>
 9    2  0.2869112E-005  0.1198059E+03  0.7546771E-02  0.1246752E+00
          2   -1    0    0  502    0  0.00000000000E+00  0.00000000000E+00  0.80917435088E+03  0.80917435088E+03  0.00000000000E+00 0. -1.
         -1   -1    0    0    0  501 -0.00000000000E+00 -0.00000000000E+00 -0.43717280304E+02  0.43717280304E+02  0.00000000000E+00 0.  1.
         23    2    1    2    0    0  0.48824939566E+02  0.70675764854E+01  0.15782758686E+03  0.18859108685E+03  0.90682002106E+02 0.  0.
         24    2    1    2    0    0 -0.13638039798E+03  0.45102215922E+02  0.33391494793E+03  0.37222642251E+03  0.80121746894E+02 0.  0.
        -11    1    4    4    0    0 -0.30306769470E+02 -0.10594975772E+02  0.24376129129E+02  0.40310661848E+02  0.00000000000E+00 0.  1.
         12    1    4    4    0    0 -0.10607362851E+03  0.55697191694E+02  0.30953881880E+03  0.33191576066E+03  0.00000000000E+00 0. -1.
        -13    1    3    3    0    0 -0.14126430211E+02 -0.25929958901E+02  0.67321258856E+02  0.73512384623E+02  0.00000000000E+00 0.  1.
         13    1    3    3    0    0  0.62951369777E+02  0.32997535386E+02  0.90506328002E+02  0.11507870223E+03  0.00000000000E+00 0. -1.
         21    1    1    2  502  501  0.87555458417E+02 -0.52169792408E+02  0.27371453579E+03  0.29207412183E+03  0.00000000000E+00 0. -1.
<scales pt_clust_5="13000.00000" pt_clust_6="13000.00000" pt_clust_7="13000.00000" pt_clust_8="13000.00000" pt_clust_9="101.91980"></scales>
<clustering>
<clus scale="   80.122">  5  6 -1 -1</clus>
<clus scale="   90.682">  7  8 -1 -1</clus>
<clus scale="  101.920">  1  9  2 -1</clus>
<clus scale="  112.025">  1  5  2 -1</clus>
<clus scale="  101.920">  1  5  2 -1</clus>
</clustering>
</event>
<event>
 9    2  0.2869112E-005  0.1089935E+03  0.7546771E-02  0.1266655E+00
          2   -1    0    0  502    0  0.00000000000E+00  0.00000000000E+00  0.81217393935E+03  0.81217393935E+03  0.00000000000E+00 0. -1.
         -1   -1    0    0    0  501 -0.00000000000E+00 -0.00000000000E+00 -0.28511632373E+02  0.28511632373E+02  0.00000000000E+00 0.  1.
         23    2    1    2    0    0 -0.64171836205E+02 -0.19813415669E+01  0.18396463116E+03  0.21490234457E+03  0.90653637044E+02 0.  0.
         24    2    1    2    0    0  0.55782292283E+02  0.23137841902E+02  0.59387669121E+03  0.60229140272E+03  0.80114827319E+02 0.  0.
        -11    1    4    4    0    0 -0.98873949479E+01  0.32021381143E+02  0.17087654425E+03  0.17413191208E+03  0.00000000000E+00 0.  1.
         12    1    4    4    0    0  0.65669687230E+02 -0.88835392411E+01  0.42300014696E+03  0.42815949063E+03  0.00000000000E+00 0. -1.
        -13    1    3    3    0    0  0.23266895279E+02 -0.20316610998E+01  0.32704187873E+02  0.40187559857E+02  0.00000000000E+00 0. -1.
         13    1    3    3    0    0 -0.87438731484E+02  0.50319532958E-01  0.15126044329E+03  0.17471478472E+03  0.00000000000E+00 0.  1.
         21    1    1    2  502  501  0.83895439220E+01 -0.21156500335E+02  0.58209846063E+01  0.23491824438E+02  0.00000000000E+00 0.  1.
<scales pt_clust_5="13000.00000" pt_clust_6="13000.00000" pt_clust_7="13000.00000" pt_clust_8="13000.00000" pt_clust_9="22.75922"></scales>
<clustering>
<clus scale="   22.759">  2  9  1 -1</clus>
<clus scale="   80.115">  5  6 -1 -1</clus>
<clus scale="   90.654">  7  8 -1 -1</clus>
<clus scale="  100.399">  1  5  2 -1</clus>
<clus scale="  100.399">  1  5  2 -1</clus>
</clustering>
</event>
<event>
 9    2  0.2869112E-005  0.1556323E+03  0.7546771E-02  0.1194039E+00
          2   -1    0    0  502    0  0.00000000000E+00  0.00000000000E+00  0.32622581641E+03  0.32622581641E+03  0.00000000000E+00 0. -1.
         -1   -1    0    0    0  501 -0.00000000000E+00 -0.00000000000E+00 -0.17591430311E+03  0.17591430311E+03  0.00000000000E+00 0.  1.
         23    2    1    2    0    0  0.35427571477E+02 -0.89223591690E+02 -0.89333140137E+02  0.15818531921E+03  0.88465943456E+02 0.  0.
         24    2    1    2    0    0 -0.64483980483E+02  0.11757886395E+03  0.25477006229E+03  0.30062958407E+03  0.86529701215E+02 0.  0.
        -11    1    4    4    0    0 -0.44493666000E+02  0.11175146516E+02  0.43430077853E+02  0.63172318908E+02  0.00000000000E+00 0.  1.
         12    1    4    4    0    0 -0.19990314482E+02  0.10640371743E+03  0.21133998444E+03  0.23745726517E+03  0.00000000000E+00 0. -1.
        -13    1    3    3    0    0  0.62385119275E+02 -0.65084262811E+02 -0.80669015968E+02  0.12097666928E+03  0.00000000000E+00 0.  1.
         13    1    3    3    0    0 -0.26957547798E+02 -0.24139328880E+02 -0.86641241688E+01  0.37208649930E+02  0.00000000000E+00 0. -1.
         21    1    1    2  502  501  0.29056409006E+02 -0.28355272260E+02 -0.15125408853E+02  0.43325216240E+02  0.00000000000E+00 0.  1.
<scales pt_clust_5="13000.00000" pt_clust_6="13000.00000" pt_clust_7="13000.00000" pt_clust_8="13000.00000" pt_clust_9="40.59922"></scales>
<clustering>
<clus scale="   40.599">  2  9  1 -1</clus>
<clus scale="   86.530">  5  6 -1 -1</clus>
<clus scale="   88.466">  7  8 -1 -1</clus>
<clus scale="  154.540">  1  5  2 -1</clus>
<clus scale="  154.540">  1  5  2 -1</clus>
</clustering>
</event>
<event>
 9    2  0.2869112E-005  0.1249141E+03  0.7546771E-02  0.1239171E+00
         -1   -1    0    0    0  501 -0.00000000000E+00  0.00000000000E+00  0.86166178183E+02  0.86166178183E+02  0.00000000000E+00 0.  1.
          2   -1    0    0  502    0  0.00000000000E+00 -0.00000000000E+00 -0.62050846064E+03  0.62050846064E+03  0.00000000000E+00 0. -1.
         23    2    1    2    0    0  0.65576983560E+02  0.97424752242E+02 -0.38684912356E+02  0.15440105605E+03  0.92472917885E+02 0.  0.
         24    2    1    2    0    0 -0.65788976936E+02 -0.47180473879E+02 -0.48864166621E+03  0.50154141793E+03  0.78860188524E+02 0.  0.
        -13    1    4    4    0    0 -0.26941327476E+02 -0.34962531814E+02 -0.84318748371E+02  0.95172816938E+02  0.00000000000E+00 0.  1.
         14    1    4    4    0    0 -0.38847649460E+02 -0.12217942065E+02 -0.40432291784E+03  0.40636860099E+03  0.00000000000E+00 0. -1.
        -13    1    3    3    0    0  0.53404047326E+02  0.66095222545E+02  0.19521201316E+02  0.87187430372E+02  0.00000000000E+00 0.  1.
         13    1    3    3    0    0  0.12172936233E+02  0.31329529697E+02 -0.58206113672E+02  0.67213625675E+02  0.00000000000E+00 0. -1.
         21    1    1    2  502  501  0.21199337678E+00 -0.50244278363E+02 -0.70157038882E+01  0.50732164851E+02  0.00000000000E+00 0.  1.
<scales pt_clust_5="13000.00000" pt_clust_6="13000.00000" pt_clust_7="13000.00000" pt_clust_8="13000.00000" pt_clust_9="50.24473"></scales>
<clustering>
<clus scale="   50.245">  1  9  2 -1</clus>
<clus scale="   78.860">  5  6 -1 -1</clus>
<clus scale="   92.473">  7  8 -1 -1</clus>
<clus scale="  115.201">  2  5  1 -1</clus>
<clus scale="  115.201">  2  5  1 -1</clus>
</clustering>
</event>
<event>
 9    2  0.2869112E-005  0.9182984E+02  0.7546771E-02  0.1301672E+00
         -3   -1    0    0    0  501 -0.00000000000E+00  0.00000000000E+00  0.42949920714E+02  0.42949920714E+02  0.00000000000E+00 0.  1.
          4   -1    0    0  502    0  0.00000000000E+00 -0.00000000000E+00 -0.92577217334E+03  0.92577217334E+03  0.00000000000E+00 0. -1.
         23    2    1    2    0    0  0.18806607407E+02  0.48040756194E+02 -0.48586568942E+02  0.11080330437E+03  0.85176961907E+02 0.  0.
         24    2    1    2    0    0  0.21011018939E+02 -0.27654210923E+02 -0.79087888679E+03  0.79562218919E+03  0.79492364845E+02 0.  0.
        -13    1    4    4    0    0  0.37288983263E+02 -0.16919306165E+02 -0.18709596749E+03  0.19152449515E+03  0.00000000000E+00 0.  1.
         14    1    4    4    0    0 -0.16277964325E+02 -0.10734904758E+02 -0.60378291930E+03  0.60409769404E+03  0.00000000000E+00 0. -1.
        -13    1    3    3    0    0  0.33120455725E+01  0.28212696946E+02  0.21958742539E+02  0.35904209903E+02  0.00000000000E+00 0.  1.
         13    1    3    3    0    0  0.15494561834E+02  0.19828059248E+02 -0.70545311480E+02  0.74899094466E+02  0.00000000000E+00 0. -1.
         21    1    1    2  502  501 -0.39817626345E+02 -0.20386545271E+02 -0.43356796893E+02  0.62296600491E+02  0.00000000000E+00 0. -1.
<scales pt_clust_5="13000.00000" pt_clust_6="13000.00000" pt_clust_7="13000.00000" pt_clust_8="13000.00000" pt_clust_9="44.73315"></scales>
<clustering>
<clus scale="   44.733">  1  9  2 -1</clus>
<clus scale="   79.492">  5  6 -1 -1</clus>
<clus scale="   85.177">  7  8 -1 -1</clus>
<clus scale="   86.583">  2  5  1 -1</clus>
<clus scale="   86.583">  2  5  1 -1</clus>
</clustering>
</event>
<event>
 9    2  0.2869112E-005  0.1325825E+03  0.7546771E-02  0.1226495E+00
         -1   -1    0    0    0  501 -0.00000000000E+00  0.00000000000E+00  0.94810991776E+02  0.94810991776E+02  0.00000000000E+00 0.  1.
          2   -1    0    0  502    0  0.00000000000E+00 -0.00000000000E+00 -0.49839107438E+03  0.49839107438E+03  0.00000000000E+00 0. -1.
         24    2    1    2    0    0  0.71485587792E+02  0.67088447949E+02 -0.59876159365E+02  0.13943222477E+03  0.79026209160E+02 0.  0.
         23    2    1    2    0    0 -0.51007490572E+02 -0.82858814063E+02 -0.38374850773E+03  0.40610826714E+03  0.90518839427E+02 0.  0.
        -11    1    3    3    0    0  0.41970405331E+02  0.76868264234E+02 -0.21760414931E+02  0.90242787125E+02  0.00000000000E+00 0.  1.
         12    1    3    3    0    0  0.29515182461E+02 -0.97798162851E+01 -0.38115744434E+02  0.49189437647E+02  0.00000000000E+00 0. -1.
        -11    1    4    4    0    0 -0.50613552668E+02 -0.83748136504E+00 -0.15876605319E+03  0.16664060950E+03  0.00000000000E+00 0.  1.
         11    1    4    4    0    0 -0.39393790410E+00 -0.82021332698E+02 -0.22498245454E+03  0.23946765764E+03  0.00000000000E+00 0. -1.
         21    1    1    2  502  501 -0.20478097220E+02  0.15770366114E+02  0.40044584488E+02  0.47661574249E+02  0.00000000000E+00 0. -1.
<scales pt_clust_5="13000.00000" pt_clust_6="13000.00000" pt_clust_7="13000.00000" pt_clust_8="13000.00000" pt_clust_9="25.84680"></scales>
<clustering>
<clus scale="   25.847">  1  9  2 -1</clus>
<clus scale="   79.026">  5  6 -1 -1</clus>
<clus scale="   90.519">  7  8 -1 -1</clus>
<clus scale="  125.018">  1  5  2 -1</clus>
<clus scale="  132.583">  2  5  1 -1</clus>
</clustering>
</event>
<event>
 9    2  0.2869112E-005  0.4897768E+03  0.7546771E-02  0.1016588E+00
         -1   -1    0    0    0  501 -0.00000000000E+00  0.00000000000E+00  0.90491310611E+03  0.90491310611E+03  0.00000000000E+00 0.  1.
          2   -1    0    0  502    0  0.00000000000E+00 -0.00000000000E+00 -0.31268448996E+03  0.31268448996E+03  0.00000000000E+00 0. -1.
         24    2    1    2    0    0  0.24950743945E+03  0.41125775363E+03  0.46661719142E+03  0.67505619555E+03  0.81131754347E+02 0.  0.
         23    2    1    2    0    0 -0.22845632780E+03 -0.42423411071E+03  0.88754773568E+02  0.49815730562E+03  0.90091158877E+02 0.  0.
        -11    1    3    3    0    0  0.89321806440E+02  0.14549035211E+03  0.11370361712E+03  0.20512030667E+03  0.00000000000E+00 0.  1.
         12    1    3    3    0    0  0.16018563301E+03  0.26576740152E+03  0.35291357430E+03  0.46993588888E+03  0.00000000000E+00 0. -1.
        -11    1    4    4    0    0 -0.70178381780E+02 -0.81995979104E+02  0.50493070777E+02  0.11915492459E+03  0.00000000000E+00 0.  1.
         11    1    4    4    0    0 -0.15827794602E+03 -0.34223813161E+03  0.38261702791E+02  0.37900238103E+03  0.00000000000E+00 0. -1.
         21    1    1    2  502  501 -0.21051111653E+02  0.12976357080E+02  0.36856651158E+02  0.44384094893E+02  0.00000000000E+00 0. -1.
<scales pt_clust_5="13000.00000" pt_clust_6="13000.00000" pt_clust_7="13000.00000" pt_clust_8="13000.00000" pt_clust_9="24.72924"></scales>
<clustering>
<clus scale="   24.729">  1  9  2 -1</clus>
<clus scale="   81.132">  5  6 -1 -1</clus>
<clus scale="   90.091">  7  8 -1 -1</clus>
<clus scale="  488.208">  1  5  2 -1</clus>
<clus scale="  489.777">  2  5  1 -1</clus>
</clustering>
</event>
<event>
 9    2  0.2869112E-005  0.8955383E+02  0.7546771E-02  0.1308438E+00
          2   -1    0    0  502    0  0.00000000000E+00  0.00000000000E+00  0.75703181576E+03  0.75703181576E+03  0.00000000000E+00 0. -1.
         -1   -1    0    0    0  501 -0.00000000000E+00 -0.00000000000E+00 -0.36320656999E+02  0.36320656999E+02  0.00000000000E+00 0.  1.
         23    2    1    2    0    0  0.14269874689E+02  0.10550255330E+02  0.16756231907E+03  0.18959820392E+03  0.86921866904E+02 0.  0.
         24    2    1    2    0    0  0.31046080131E+02 -0.50921820634E+01  0.55147437829E+03  0.55808009511E+03  0.79621688256E+02 0.  0.
        -11    1    4    4    0    0  0.75884477198E+00 -0.25773268677E+02  0.60858058555E+02  0.66094935621E+02  0.00000000000E+00 0.  1.
         12    1    4    4    0    0  0.30287235359E+02  0.20681086614E+02  0.49061631973E+03  0.49198515949E+03  0.00000000000E+00 0. -1.
        -13    1    3    3    0    0 -0.19372986163E+01 -0.29049609718E+02  0.12818072640E+03  0.13144554603E+03  0.00000000000E+00 0. -1.
         13    1    3    3    0    0  0.16207173306E+02  0.39599865048E+02  0.39381592673E+02  0.58152657892E+02  0.00000000000E+00 0.  1.
         21    1    1    2  502  501 -0.45315954820E+02 -0.54580732664E+01  0.16744614043E+01  0.45674173731E+02  0.00000000000E+00 0.  1.
<scales pt_clust_5="13000.00000" pt_clust_6="13000.00000" pt_clust_7="13000.00000" pt_clust_8="13000.00000" pt_clust_9="45.64347"></scales>
<clustering>
<clus scale="   45.643">  2  9  1 -1</clus>
<clus scale="   79.622">  5  6 -1 -1</clus>
<clus scale="   82.487">  1  5  2 -1</clus>
<clus scale="   86.922">  7  8 -1 -1</clus>
<clus scale="   82.487">  1  5  2 -1</clus>
</clustering>
</event>
<event>
 9    2  0.2869112E-005  0.1136316E+03  0.7546771E-02  0.1258874E+00
          2   -1    0    0  502    0  0.00000000000E+00  0.00000000000E+00  0.61781589130E+03  0.61781589130E+03  0.00000000000E+00 0. -1.
         -1   -1    0    0    0  501 -0.00000000000E+00 -0.00000000000E+00 -0.13536782702E+03  0.13536782702E+03  0.00000000000E+00 0.  1.
         23    2    1    2    0    0 -0.40436084683E+02 -0.34054861774E+02 -0.38200603606E+02  0.11234448554E+03  0.91472327841E+02 0.  0.
         24    2    1    2    0    0  0.38232282156E+02  0.56762276710E+02  0.57373591180E+03  0.58305741120E+03  0.78098558322E+02 0.  0.
        -13    1    4    4    0    0  0.43939908941E+02 -0.26595422617E+01  0.22943450284E+03  0.23361930540E+03  0.00000000000E+00 0.  1.
         14    1    4    4    0    0 -0.57076267848E+01  0.59421818972E+02  0.34430140896E+03  0.34943810580E+03  0.00000000000E+00 0. -1.
        -13    1    3    3    0    0  0.91343070397E+01 -0.49875148896E+02 -0.31962901184E+02  0.59938244007E+02  0.00000000000E+00 0.  1.
         13    1    3    3    0    0 -0.49570391723E+02  0.15820287123E+02 -0.62377024219E+01  0.52406241534E+02  0.00000000000E+00 0. -1.
         21    1    1    2  502  501  0.22038025272E+01 -0.22707414937E+02 -0.53087243917E+02  0.57781821582E+02  0.00000000000E+00 0.  1.
<scales pt_clust_5="13000.00000" pt_clust_6="13000.00000" pt_clust_7="13000.00000" pt_clust_8="13000.00000" pt_clust_9="22.81411"></scales>
<clustering>
<clus scale="   22.814">  2  9  1 -1</clus>
<clus scale="   78.099">  5  6 -1 -1</clus>
<clus scale="   91.472">  7  8 -1 -1</clus>
<clus scale="  103.171">  1  5  2 -1</clus>
<clus scale="  103.171">  1  5  2 -1</clus>
</clustering>
</event>
<event>
 9    2  0.2869112E-005  0.1782518E+03  0.7546771E-02  0.1171168E+00
          2   -1    0    0  502    0  0.00000000000E+00  0.00000000000E+00  0.54323427071E+03  0.54323427071E+03  0.00000000000E+00 0. -1.
         -1   -1    0    0    0  501 -0.00000000000E+00 -0.00000000000E+00 -0.36550527414E+03  0.36550527414E+03  0.00000000000E+00 0.  1.
         24    2    1    2    0    0 -0.11632723233E+03  0.76561726663E+02  0.79997043928E+02  0.17847263416E+03  0.77841063295E+02 0.  0.
         23    2    1    2    0    0  0.44848757540E+02 -0.16589226970E+03  0.37928966329E+03  0.42635267493E+03  0.91565815385E+02 0.  0.
        -11    1    3    3    0    0 -0.12054995119E+03  0.84914170959E+02  0.82255048885E+02  0.16884489992E+03  0.00000000000E+00 0.  1.
         12    1    3    3    0    0  0.42227188560E+01 -0.83524442957E+01 -0.22580049571E+01  0.96277342421E+01  0.00000000000E+00 0. -1.
        -11    1    4    4    0    0 -0.28428568407E+02 -0.49494435576E+02  0.10511130854E+03  0.11960882007E+03  0.00000000000E+00 0.  1.
         11    1    4    4    0    0  0.73277325947E+02 -0.11639783412E+03  0.27417835474E+03  0.30674385486E+03  0.00000000000E+00 0. -1.
         21    1    1    2  502  501  0.71478474789E+02  0.89330543036E+02 -0.28155771064E+03  0.30391423576E+03  0.00000000000E+00 0.  1.
<scales pt_clust_5="13000.00000" pt_clust_6="13000.00000" pt_clust_7="13000.00000" pt_clust_8="13000.00000" pt_clust_9="114.40768"></scales>
<clustering>
<clus scale="   77.841">  5  6 -1 -1</clus>
<clus scale="   91.566">  7  8 -1 -1</clus>
<clus scale="  114.408">  2  9  1 -1</clus>
<clus scale="  171.606">  2  5  1 -1</clus>
<clus scale="  178.252">  1  5  2 -1</clus>
</clustering>
</event>
<event>
 9    2  0.2869112E-005  0.9539119E+02  0.7546771E-02  0.1296414E+00
         -1   -1    0    0    0  501 -0.00000000000E+00  0.00000000000E+00  0.17860632421E+03  0.17860632421E+03  0.00000000000E+00 0.  1.
          2   -1    0    0  502    0  0.00000000000E+00 -0.00000000000E+00 -0.39450645803E+03  0.39450645803E+03  0.00000000000E+00 0. -1.
         23    2    1    2    0    0 -0.14810836956E+01 -0.15312616614E+02  0.92016392490E+02  0.13034606832E+03  0.91029727031E+02 0.  0.
         24    2    1    2    0    0  0.29211106823E+02 -0.61415745455E+01 -0.36548097448E+03  0.37536565908E+03  0.80199922753E+02 0.  0.
        -13    1    4    4    0    0 -0.24664671057E+02 -0.31405765800E+01 -0.56794994267E+02  0.61999037036E+02  0.00000000000E+00 0.  1.
         14    1    4    4    0    0  0.53875777879E+02 -0.30009979655E+01 -0.30868598021E+03  0.31336662204E+03  0.00000000000E+00 0. -1.
        -11    1    3    3    0    0 -0.98445813295E+01  0.30476306475E+02  0.73640800402E+02  0.80303726699E+02  0.00000000000E+00 0.  1.
         11    1    3    3    0    0  0.83634976339E+01 -0.45788923090E+02  0.18375592088E+02  0.50042341622E+02  0.00000000000E+00 0. -1.
         21    1    1    2  502  501 -0.27730023127E+02  0.21454191160E+02  0.57564448171E+02  0.67401054845E+02  0.00000000000E+00 0.  1.
<scales pt_clust_5="13000.00000" pt_clust_6="13000.00000" pt_clust_7="13000.00000" pt_clust_8="13000.00000" pt_clust_9="35.06047"></scales>
<clustering>
<clus scale="   35.060">  1  9  2 -1</clus>
<clus scale="   80.200">  5  6 -1 -1</clus>
<clus scale="   85.118">  2  5  1 -1</clus>
<clus scale="   91.030">  7  8 -1 -1</clus>
<clus scale="   85.118">  2  5  1 -1</clus>
</clustering>
</event>
<event>
 9    2  0.2869112E-005  0.1101542E+03  0.7546771E-02  0.1263538E+00
          2   -1    0    0  502    0  0.00000000000E+00  0.00000000000E+00  0.17783491869E+03  0.17783491869E+03  0.00000000000E+00 0. -1.
         -1   -1    0    0    0  501 -0.00000000000E+00 -0.00000000000E+00 -0.96552339403E+02  0.96552339403E+02  0.00000000000E+00 0.  1.
         23    2    1    2    0    0 -0.18196258512E+02 -0.45332424322E+02 -0.31361358268E+01  0.10295607598E+03  0.90575856132E+02 0.  0.
         24    2    1    2    0    0  0.32626770410E+02  0.60711727679E+02  0.98868136948E+02  0.14586658870E+03  0.82168930680E+02 0.  0.
        -13    1    4    4    0    0  0.18594469449E+02  0.78572222820E+02  0.59069939884E+02  0.10004302220E+03  0.00000000000E+00 0.  1.
         14    1    4    4    0    0  0.14032300961E+02 -0.17860495140E+02  0.39798197064E+02  0.45823566497E+02  0.00000000000E+00 0. -1.
        -11    1    3    3    0    0 -0.53192847887E+02 -0.13824955958E+02 -0.83014968905E+01  0.55583480677E+02  0.00000000000E+00 0.  1.
         11    1    3    3    0    0  0.34996589375E+02 -0.31507468364E+02  0.51653610637E+01  0.47372595301E+02  0.00000000000E+00 0. -1.
         21    1    1    2  502  501 -0.14430511898E+02 -0.15379303357E+02 -0.14449421833E+02  0.25564593420E+02  0.00000000000E+00 0.  1.
<scales pt_clust_5="13000.00000" pt_clust_6="13000.00000" pt_clust_7="13000.00000" pt_clust_8="13000.00000" pt_clust_9="21.08940"></scales>
<clustering>
<clus scale="   21.089">  2  9  1 -1</clus>
<clus scale="   82.169">  5  6 -1 -1</clus>
<clus scale="   90.576">  7  8 -1 -1</clus>
<clus scale="  103.352">  1  5  2 -1</clus>
<clus scale="  103.352">  1  5  2 -1</clus>
</clustering>
</event>
<event>
 9    2  0.2869112E-005  0.1004856E+03  0.7546771E-02  0.1283326E+00
         -1   -1    0    0    0  501 -0.00000000000E+00  0.00000000000E+00  0.12997231158E+03  0.12997231158E+03  0.00000000000E+00 0.  1.
          2   -1    0    0  502    0  0.00000000000E+00 -0.00000000000E+00 -0.21554445575E+03  0.21554445575E+03  0.00000000000E+00 0. -1.
         24    2    1    2    0    0 -0.66734524495E+02  0.33580911775E+02  0.52912720094E+02  0.12171808580E+03  0.80214475428E+02 0.  0.
         23    2    1    2    0    0  0.43311022720E+02 -0.24245927244E+01 -0.15307966097E+03  0.18217675530E+03  0.88731416253E+02 0.  0.
        -13    1    3    3    0    0 -0.49403578950E+02 -0.16307867912E+02  0.44043499626E+02  0.68165167265E+02  0.00000000000E+00 0.  1.
         14    1    3    3    0    0 -0.17330945544E+02  0.49888779686E+02  0.88692204682E+01  0.53552918536E+02  0.00000000000E+00 0. -1.
        -13    1    4    4    0    0  0.35170669603E+02 -0.43594203799E+02 -0.98703805640E+02  0.11348952310E+03  0.00000000000E+00 0. -1.
         13    1    4    4    0    0  0.81403531172E+01  0.41169611074E+02 -0.54375855332E+02  0.68687232205E+02  0.00000000000E+00 0.  1.
         21    1    1    2  502  501  0.23423501775E+02 -0.31156319050E+02  0.14594796712E+02  0.41621926231E+02  0.00000000000E+00 0. -1.
<scales pt_clust_5="13000.00000" pt_clust_6="13000.00000" pt_clust_7="13000.00000" pt_clust_8="13000.00000" pt_clust_9="38.97918"></scales>
<clustering>
<clus scale="   38.979">  1  9  2 -1</clus>
<clus scale="   80.214">  5  6 -1 -1</clus>
<clus scale="   88.731">  7  8 -1 -1</clus>
<clus scale="   93.051">  1  5  2 -1</clus>
<clus scale="  100.486">  2  5  1 -1</clus>
</clustering>
</event>
<event>
 9    2  0.2869112E-005  0.1022408E+03  0.7546771E-02  0.1284457E+00
         -1   -1    0    0    0  501 -0.00000000000E+00  0.00000000000E+00  0.68117293645E+02  0.68117293645E+02  0.00000000000E+00 0.  1.
          2   -1    0    0  502    0  0.00000000000E+00 -0.00000000000E+00 -0.19013000081E+03  0.19013000081E+03  0.00000000000E+00 0. -1.
         23    2    1    2    0    0 -0.41661594339E+02  0.36159760290E+02 -0.30980713986E+02  0.11311486217E+03  0.93765402460E+02 0.  0.
         24    2    1    2    0    0  0.31004449264E+02 -0.16803045007E+02 -0.89836053849E+02  0.12300354983E+03  0.76260989393E+02 0.  0.
        -11    1    4    4    0    0 -0.84118970789E+01  0.22873952072E+02 -0.45568822891E+02  0.51676835386E+02  0.00000000000E+00 0.  1.
         12    1    4    4    0    0  0.39416346343E+02 -0.39676997079E+02 -0.44267230958E+02  0.71326714441E+02  0.00000000000E+00 0. -1.
        -13    1    3    3    0    0  0.96199368350E+01  0.51627127661E+02 -0.27993855494E+01  0.52590303808E+02  0.00000000000E+00 0. -1.
         13    1    3    3    0    0 -0.51281531174E+02 -0.15467367370E+02 -0.28181328437E+02  0.60524558366E+02  0.00000000000E+00 0.  1.
         21    1    1    2  502  501  0.10657145075E+02 -0.19356715284E+02 -0.11959393274E+01  0.22128882452E+02  0.00000000000E+00 0.  1.
<scales pt_clust_5="13000.00000" pt_clust_6="13000.00000" pt_clust_7="13000.00000" pt_clust_8="13000.00000" pt_clust_9="22.09654"></scales>
<clustering>
<clus scale="   22.097">  1  9  2 -1</clus>
<clus scale="   76.261">  5  6 -1 -1</clus>
<clus scale="   86.470">  2  5  1 -1</clus>
<clus scale="   93.765">  7  8 -1 -1</clus>
<clus scale="   86.470">  2  5  1 -1</clus>
</clustering>
</event>
<event>
 9    2  0.2869113E-005  0.1527784E+03  0.7546771E-02  0.1198217E+00
          2   -1    0    0  502    0  0.00000000000E+00  0.00000000000E+00  0.13182925254E+04  0.13182925254E+04  0.00000000000E+00 0. -1.
         -1   -1    0    0    0  501 -0.00000000000E+00 -0.00000000000E+00 -0.22900003716E+03  0.22900003716E+03  0.00000000000E+00 0.  1.
         23    2    1    2    0    0 -0.87171362461E+02  0.67417028883E+02 -0.18788804563E+03  0.23659473262E+03  0.92364752994E+02 0.  0.
         24    2    1    2    0    0  0.64222280256E+02 -0.10382323100E+03  0.12519026348E+04  0.12607874692E+04  0.86145637750E+02 0.  0.
        -13    1    4    4    0    0  0.45940555301E+02 -0.30374918297E+02  0.24829130028E+03  0.25432605072E+03  0.00000000000E+00 0.  1.
         14    1    4    4    0    0  0.18281724955E+02 -0.73448312704E+02  0.10036113345E+04  0.10064614185E+04  0.00000000000E+00 0. -1.
        -13    1    3    3    0    0 -0.28501853588E+02  0.13007069891E+02  0.11174306762E+01  0.31349452570E+02  0.00000000000E+00 0. -1.
         13    1    3    3    0    0 -0.58669508873E+02  0.54409958992E+02 -0.18900547630E+03  0.20524528005E+03  0.00000000000E+00 0.  1.
         21    1    1    2  502  501  0.22949082205E+02  0.36406202118E+02  0.25277899031E+02  0.49910360709E+02  0.00000000000E+00 0. -1.
<scales pt_clust_5="13000.00000" pt_clust_6="13000.00000" pt_clust_7="13000.00000" pt_clust_8="13000.00000" pt_clust_9="43.03571"></scales>
<clustering>
<clus scale="   43.036">  2  9  1 -1</clus>
<clus scale="   86.146">  5  6 -1 -1</clus>
<clus scale="   92.365">  7  8 -1 -1</clus>
<clus scale="  149.101">  1  5  2 -1</clus>
<clus scale="  149.101">  1  5  2 -1</clus>
</clustering>
</event>
<event>
 9    2  0.2869112E-005  0.2828701E+03  0.7546771E-02  0.1094541E+00
         -1   -1    0    0    0  501 -0.00000000000E+00  0.00000000000E+00  0.25272908452E+03  0.25272908452E+03  0.00000000000E+00 0.  1.
          2   -1    0    0  502    0  0.00000000000E+00 -0.00000000000E+00 -0.65657308982E+03  0.65657308982E+03  0.00000000000E+00 0. -1.
         23    2    1    2    0    0  0.40278809374E+02  0.26888771066E+03 -0.10593123691E+03  0.30539869772E+03  0.90132980567E+02 0.  0.
         24    2    1    2    0    0 -0.18910345530E+02 -0.26607508770E+03 -0.40673763506E+03  0.49296487333E+03  0.80158025784E+02 0.  0.
        -13    1    4    4    0    0 -0.43918434044E+02 -0.84799364466E+02 -0.13553841396E+03  0.16580236042E+03  0.00000000000E+00 0.  1.
         14    1    4    4    0    0  0.25008088514E+02 -0.18127572323E+03 -0.27119922110E+03  0.32716251291E+03  0.00000000000E+00 0. -1.
        -13    1    3    3    0    0 -0.23672063311E+02  0.26365363693E+02 -0.16861842584E+02  0.39240549428E+02  0.00000000000E+00 0. -1.
         13    1    3    3    0    0  0.63950872685E+02  0.24252234697E+03 -0.89069394329E+02  0.26615814829E+03  0.00000000000E+00 0.  1.
         21    1    1    2  502  501 -0.21368463844E+02 -0.28126229606E+01  0.10882486668E+03  0.11093860330E+03  0.00000000000E+00 0.  1.
<scales pt_clust_5="13000.00000" pt_clust_6="13000.00000" pt_clust_7="13000.00000" pt_clust_8="13000.00000" pt_clust_9="21.55277"></scales>
<clustering>
<clus scale="   21.553">  1  9  2 -1</clus>
<clus scale="   80.158">  5  6 -1 -1</clus>
<clus scale="   90.133">  7  8 -1 -1</clus>
<clus scale="  279.851">  2  5  1 -1</clus>
<clus scale="  279.851">  2  5  1 -1</clus>
</clustering>
</event>
<event>
 9    2  0.2869112E-005  0.1116026E+03  0.7546771E-02  0.1261203E+00
          4   -1    0    0  502    0  0.00000000000E+00  0.00000000000E+00  0.23494101548E+03  0.23494101548E+03  0.00000000000E+00 0. -1.
         -3   -1    0    0    0  501 -0.00000000000E+00 -0.00000000000E+00 -0.28123948525E+03  0.28123948525E+03  0.00000000000E+00 0.  1.
         23    2    1    2    0    0  0.30640345916E+02  0.64406381514E+02 -0.18162673739E+03  0.21468398258E+03  0.89520544378E+02 0.  0.
         24    2    1    2    0    0  0.18097537367E+02 -0.64943610847E+02  0.19692595759E+03  0.22294751884E+03  0.79878469774E+02 0.  0.
        -11    1    4    4    0    0  0.18640890724E+02 -0.33768301447E+02  0.20294152350E+02  0.43584786442E+02  0.00000000000E+00 0.  1.
         12    1    4    4    0    0 -0.54335335719E+00 -0.31175309400E+02  0.17663180524E+03  0.17936273239E+03  0.00000000000E+00 0. -1.
        -11    1    3    3    0    0 -0.22702566682E+02 -0.83643187281E+01 -0.40675045802E+02  0.47326818113E+02  0.00000000000E+00 0. -1.
         11    1    3    3    0    0  0.53342912598E+02  0.72770700242E+02 -0.14095169159E+03  0.16735716447E+03  0.00000000000E+00 0.  1.
         21    1    1    2  502  501 -0.48737883282E+02  0.53722933283E+00 -0.61597689974E+02  0.78548999308E+02  0.00000000000E+00 0.  1.
<scales pt_clust_5="13000.00000" pt_clust_6="13000.00000" pt_clust_7="13000.00000" pt_clust_8="13000.00000" pt_clust_9="48.74084"></scales>
<clustering>
<clus scale="   48.741">  2  9  1 -1</clus>
<clus scale="   79.878">  5  6 -1 -1</clus>
<clus scale="   89.521">  7  8 -1 -1</clus>
<clus scale="  104.028">  1  5  2 -1</clus>
<clus scale="  104.028">  1  5  2 -1</clus>
</clustering>
</event>
<event>
 9    2  0.2869112E-005  0.1012072E+03  0.7546771E-02  0.1281046E+00
         -1   -1    0    0    0  501 -0.00000000000E+00  0.00000000000E+00  0.17104561948E+03  0.17104561948E+03  0.00000000000E+00 0.  1.
          2   -1    0    0  502    0  0.00000000000E+00 -0.00000000000E+00 -0.63138687648E+03  0.63138687648E+03  0.00000000000E+00 0. -1.
         23    2    1    2    0    0 -0.22692358322E+02 -0.93669455611E+01  0.10493649382E+03  0.13763862852E+03  0.85615661719E+02 0.  0.
         24    2    1    2    0    0  0.24243888611E+02  0.49453918209E+02 -0.60250635210E+03  0.61006415544E+03  0.78300148632E+02 0.  0.
        -13    1    4    4    0    0 -0.51881214842E-01  0.29235856851E+02 -0.61083925201E+02  0.67719893203E+02  0.00000000000E+00 0.  1.
         14    1    4    4    0    0  0.24295769826E+02  0.20218061357E+02 -0.54142242690E+03  0.54234426224E+03  0.00000000000E+00 0. -1.
        -13    1    3    3    0    0 -0.20035121555E+02 -0.46826365544E+02  0.52547327647E+02  0.73180162945E+02  0.00000000000E+00 0.  1.
         13    1    3    3    0    0 -0.26572367668E+01  0.37459419983E+02  0.52389166172E+02  0.64458465579E+02  0.00000000000E+00 0. -1.
         21    1    1    2  502  501 -0.15515302889E+01 -0.40086972648E+02  0.37228601277E+02  0.54729711997E+02  0.00000000000E+00 0.  1.
<scales pt_clust_5="13000.00000" pt_clust_6="13000.00000" pt_clust_7="13000.00000" pt_clust_8="13000.00000" pt_clust_9="40.11699"></scales>
<clustering>
<clus scale="   40.117">  1  9  2 -1</clus>
<clus scale="   78.300">  5  6 -1 -1</clus>
<clus scale="   85.616">  7  8 -1 -1</clus>
<clus scale="   95.099">  2  5  1 -1</clus>
<clus scale="   95.099">  2  5  1 -1</clus>
</clustering>
</event>
<event>
 9    2  0.2869112E-005  0.1077705E+03  0.7546771E-02  0.1269097E+00
          2   -1    0    0  502    0  0.00000000000E+00  0.00000000000E+00  0.97887354296E+03  0.97887354296E+03  0.00000000000E+00 0. -1.
         -1   -1    0    0    0  501 -0.00000000000E+00 -0.00000000000E+00 -0.21299389293E+02  0.21299389293E+02  0.00000000000E+00 0.  1.
         23    2    1    2    0    0  0.12409406310E+02  0.39385272998E+02  0.14489820691E+03  0.17696401794E+03  0.92820149666E+02 0.  0.
         24    2    1    2    0    0 -0.82624606277E-01 -0.57949313996E+02  0.74874073684E+03  0.75550157179E+03  0.82533654645E+02 0.  0.
        -11    1    4    4    0    0  0.13412029571E+02 -0.46307119843E+02  0.17599751851E+03  0.18248111794E+03  0.00000000000E+00 0.  1.
         12    1    4    4    0    0 -0.13494654177E+02 -0.11642194153E+02  0.57274321834E+03  0.57302045385E+03  0.00000000000E+00 0. -1.
        -11    1    3    3    0    0 -0.33362444657E+02  0.42155042245E+02  0.60662414264E+02  0.81055714200E+02  0.00000000000E+00 0. -1.
         11    1    3    3    0    0  0.45771850967E+02 -0.27697692468E+01  0.84235792647E+02  0.95908303736E+02  0.00000000000E+00 0.  1.
         21    1    1    2  502  501 -0.12326781704E+02  0.18564040997E+02  0.63935209913E+02  0.67707342526E+02  0.00000000000E+00 0. -1.
<scales pt_clust_5="13000.00000" pt_clust_6="13000.00000" pt_clust_7="13000.00000" pt_clust_8="13000.00000" pt_clust_9="22.28392"></scales>
<clustering>
<clus scale="   22.284">  2  9  1 -1</clus>
<clus scale="   82.534">  5  6 -1 -1</clus>
<clus scale="   92.820">  7  8 -1 -1</clus>
<clus scale="   99.049">  1  5  2 -1</clus>
<clus scale="   99.049">  1  5  2 -1</clus>
</clustering>
</event>
<event>
 9    2  0.2869112E-005  0.9314725E+02  0.7546771E-02  0.1299863E+00
          2   -1    0    0  502    0  0.00000000000E+00  0.00000000000E+00  0.87766322789E+02  0.87766322789E+02  0.00000000000E+00 0. -1.
         -1   -1    0    0    0  501 -0.00000000000E+00 -0.00000000000E+00 -0.15465494738E+03  0.15465494738E+03  0.00000000000E+00 0.  1.
         23    2    1    2    0    0  0.11578533039E+02  0.56882001864E+01 -0.76786524612E+02  0.11959720083E+03  0.90779414157E+02 0.  0.
         24    2    1    2    0    0  0.92873223852E+01 -0.25507607748E+02  0.24049846421E+02  0.90754295011E+02  0.83192875536E+02 0.  0.
        -11    1    4    4    0    0 -0.27593053186E+02  0.13017429057E+01 -0.14363387162E+02  0.31134835947E+02  0.00000000000E+00 0.  1.
         12    1    4    4    0    0  0.36880375571E+02 -0.26809350653E+02  0.38413233583E+02  0.59619459063E+02  0.00000000000E+00 0. -1.
        -13    1    3    3    0    0 -0.22704378231E+02 -0.19196060596E+02 -0.70831681643E+02  0.76818647851E+02  0.00000000000E+00 0.  1.
         13    1    3    3    0    0  0.34282911270E+02  0.24884260783E+02 -0.59548429690E+01  0.42778552975E+02  0.00000000000E+00 0. -1.
         21    1    1    2  502  501 -0.20865855425E+02  0.19819407561E+02 -0.14151946398E+02  0.32069774329E+02  0.00000000000E+00 0. -1.
<scales pt_clust_5="13000.00000" pt_clust_6="13000.00000" pt_clust_7="13000.00000" pt_clust_8="13000.00000" pt_clust_9="28.77834"></scales>
<clustering>
<clus scale="   28.778">  2  9  1 -1</clus>
<clus scale="   83.193">  5  6 -1 -1</clus>
<clus scale="   85.770">  1  5  2 -1</clus>
<clus scale="   90.779">  7  8 -1 -1</clus>
<clus scale="   85.770">  1  5  2 -1</clus>
</clustering>
</event>
<event>
 9    2  0.2869112E-005  0.3266594E+03  0.7546771E-02  0.1073048E+00
         -1   -1    0    0    0  501 -0.00000000000E+00  0.00000000000E+00  0.26006266923E+03  0.26006266923E+03  0.00000000000E+00 0.  1.
          2   -1    0    0  502    0  0.00000000000E+00 -0.00000000000E+00 -0.17909582364E+04  0.17909582364E+04  0.00000000000E+00 0. -1.
         24    2    1    2    0    0 -0.19231079605E+03  0.23298015980E+03 -0.37883693422E+03  0.49102147075E+03  0.79507640366E+02 0.  0.
         23    2    1    2    0    0  0.17055158830E+03 -0.26780101455E+03 -0.13335013375E+04  0.13739687651E+04  0.93590185536E+02 0.  0.
        -11    1    3    3    0    0 -0.14578876071E+03  0.18943881482E+03 -0.24240538943E+03  0.34044353443E+03  0.00000000000E+00 0.  1.
         12    1    3    3    0    0 -0.46522035337E+02  0.43541344979E+02 -0.13643154479E+03  0.15057793632E+03  0.00000000000E+00 0. -1.
        -13    1    4    4    0    0  0.70300541662E+02 -0.54318190809E+02 -0.49592966475E+03  0.50382423958E+03  0.00000000000E+00 0.  1.
         13    1    4    4    0    0  0.10025104664E+03 -0.21348282374E+03 -0.83757167272E+03  0.87014452554E+03  0.00000000000E+00 0. -1.
         21    1    1    2  502  501  0.21759207744E+02  0.34820854751E+02  0.18144270454E+03  0.18603066973E+03  0.00000000000E+00 0.  1.
<scales pt_clust_5="13000.00000" pt_clust_6="13000.00000" pt_clust_7="13000.00000" pt_clust_8="13000.00000" pt_clust_9="41.06038"></scales>
<clustering>
<clus scale="   41.060">  1  9  2 -1</clus>
<clus scale="   79.508">  5  6 -1 -1</clus>
<clus scale="   93.590">  7  8 -1 -1</clus>
<clus scale="  322.907">  1  5  2 -1</clus>
<clus scale="  326.659">  2  5  1 -1</clus>
</clustering>
</event>
<event>
 9    2  0.2869112E-005  0.1136161E+03  0.7546771E-02  0.1258398E+00
          2   -1    0    0  502    0  0.00000000000E+00  0.00000000000E+00  0.12249753382E+04  0.12249753382E+04  0.00000000000E+00 0. -1.
         -1   -1    0    0    0  501 -0.00000000000E+00 -0.00000000000E+00 -0.28906476995E+02  0.28906476995E+02  0.00000000000E+00 0.  1.
         23    2    1    2    0    0  0.35032366997E+02 -0.23237959784E+01  0.10176615446E+03  0.14129048893E+03  0.91509482053E+02 0.  0.
         24    2    1    2    0    0 -0.71222027983E+02  0.91041173650E+01  0.10478736017E+04  0.10533348826E+04  0.79497342989E+02 0.  0.
        -11    1    4    4    0    0 -0.16334367221E+02  0.25006278212E+02  0.11850671735E+03  0.12221279622E+03  0.00000000000E+00 0.  1.
         12    1    4    4    0    0 -0.54887660762E+02 -0.15902160847E+02  0.92936688431E+03  0.93112208635E+03  0.00000000000E+00 0. -1.
        -13    1    3    3    0    0  0.54577993378E+02 -0.24392247669E+02  0.37456263885E+02  0.70545806479E+02  0.00000000000E+00 0.  1.
         13    1    3    3    0    0 -0.19545626381E+02  0.22068451691E+02  0.64309890571E+02  0.70744682456E+02  0.00000000000E+00 0. -1.
         21    1    1    2  502  501  0.36189660985E+02 -0.67803213865E+01  0.46429105091E+02  0.59256443699E+02  0.00000000000E+00 0.  1.
<scales pt_clust_5="13000.00000" pt_clust_6="13000.00000" pt_clust_7="13000.00000" pt_clust_8="13000.00000" pt_clust_9="36.81935"></scales>
<clustering>
<clus scale="   36.819">  2  9  1 -1</clus>
<clus scale="   79.497">  5  6 -1 -1</clus>
<clus scale="   91.509">  7  8 -1 -1</clus>
<clus scale="  104.185">  1  5  2 -1</clus>
<clus scale="  104.185">  1  5  2 -1</clus>
</clustering>
</event>
<event>
 9    2  0.2869112E-005  0.1058140E+03  0.7546771E-02  0.1273727E+00
          2   -1    0    0  502    0  0.00000000000E+00  0.00000000000E+00  0.40879316940E+03  0.40879316940E+03  0.00000000000E+00 0. -1.
         -1   -1    0    0    0  501 -0.00000000000E+00 -0.00000000000E+00 -0.48283334654E+02  0.48283334654E+02  0.00000000000E+00 0.  1.
         23    2    1    2    0    0  0.80577247877E+01 -0.33311025021E+02  0.32018345211E+02  0.10345820418E+03  0.92216453336E+02 0.  0.
         24    2    1    2    0    0 -0.21249280445E+02  0.51492799180E+02  0.30818365274E+03  0.32333625424E+03  0.80412245364E+02 0.  0.
        -11    1    4    4    0    0  0.21169065038E+02  0.42151744694E+02  0.98632828310E+02  0.10933130254E+03  0.00000000000E+00 0.  1.
         12    1    4    4    0    0 -0.42418345483E+02  0.93410544854E+01  0.20955082443E+03  0.21400495170E+03  0.00000000000E+00 0. -1.
        -13    1    3    3    0    0  0.34110115528E+02 -0.45755743022E+02 -0.41003142566E+01  0.57218009209E+02  0.00000000000E+00 0.  1.
         13    1    3    3    0    0 -0.26052390741E+02  0.12444718001E+02  0.36118659467E+02  0.46240194973E+02  0.00000000000E+00 0. -1.
         21    1    1    2  502  501  0.13191555657E+02 -0.18181774158E+02  0.20307836795E+02  0.30282045630E+02  0.00000000000E+00 0.  1.
<scales pt_clust_5="13000.00000" pt_clust_6="13000.00000" pt_clust_7="13000.00000" pt_clust_8="13000.00000" pt_clust_9="22.46317"></scales>
<clustering>
<clus scale="   22.463">  2  9  1 -1</clus>
<clus scale="   80.412">  5  6 -1 -1</clus>
<clus scale="   92.216">  7  8 -1 -1</clus>
<clus scale="   95.702">  1  5  2 -1</clus>
<clus scale="   95.702">  1  5  2 -1</clus>
</clustering>
</event>
<event>
 9    2  0.2869112E-005  0.1531217E+03  0.7546771E-02  0.1197431E+00
          2   -1    0    0  502    0  0.00000000000E+00  0.00000000000E+00  0.11234072482E+03  0.11234072482E+03  0.00000000000E+00 0. -1.
         -1   -1    0    0    0  501 -0.00000000000E+00 -0.00000000000E+00 -0.55317973349E+03  0.55317973349E+03  0.00000000000E+00 0.  1.
         23    2    1    2    0    0 -0.13812839673E+03 -0.38260988777E+02 -0.40041758897E+03  0.43494242963E+03  0.91089594871E+02 0.  0.
         24    2    1    2    0    0  0.11552577319E+03  0.33283086999E+02  0.34388445554E+02  0.15226982964E+03  0.86888248224E+02 0.  0.
        -11    1    4    4    0    0  0.87426093123E+02  0.50404615969E+02 -0.48849735160E+01  0.10103370742E+03  0.00000000000E+00 0.  1.
         12    1    4    4    0    0  0.28099680066E+02 -0.17121528970E+02  0.39273419070E+02  0.51236122214E+02  0.00000000000E+00 0. -1.
        -13    1    3    3    0    0 -0.31863187165E+02 -0.53656271959E+02 -0.15213003931E+03  0.16443177028E+03  0.00000000000E+00 0.  1.
         13    1    3    3    0    0 -0.10626520956E+03  0.15395283181E+02 -0.24828754966E+03  0.27051065935E+03  0.00000000000E+00 0. -1.
         21    1    1    2  502  501  0.22602623540E+02  0.49779017779E+01 -0.74809865258E+02  0.78308199040E+02  0.00000000000E+00 0. -1.
<scales pt_clust_5="13000.00000" pt_clust_6="13000.00000" pt_clust_7="13000.00000" pt_clust_8="13000.00000" pt_clust_9="23.14429"></scales>
<clustering>
<clus scale="   23.144">  2  9  1 -1</clus>
<clus scale="   86.888">  5  6 -1 -1</clus>
<clus scale="   91.090">  7  8 -1 -1</clus>
<clus scale="  150.660">  1  5  2 -1</clus>
<clus scale="  150.660">  1  5  2 -1</clus>
</clustering>
</event>
<event>
 9    2  0.2869112E-005  0.1040639E+03  0.7546771E-02  0.1276443E+00
         -1   -1    0    0    0  501 -0.00000000000E+00  0.00000000000E+00  0.37010446128E+03  0.37010446128E+03  0.00000000000E+00 0.  1.
          2   -1    0    0  502    0  0.00000000000E+00 -0.00000000000E+00 -0.55818667145E+02  0.55818667145E+02  0.00000000000E+00 0. -1.
         23    2    1    2    0    0  0.46019790218E+02  0.55667597961E+00  0.17999346747E+03  0.20626999473E+03  0.89618811703E+02 0.  0.
         24    2    1    2    0    0 -0.39668425045E+02  0.44373770594E+02  0.26656532564E+02  0.10284324953E+03  0.79520738070E+02 0.  0.
        -13    1    4    4    0    0  0.15826746721E+02 -0.12273018929E+02  0.54648765773E+01  0.20760004369E+02  0.00000000000E+00 0.  1.
         14    1    4    4    0    0 -0.55495171767E+02  0.56646789523E+02  0.21191655986E+02  0.82083245161E+02  0.00000000000E+00 0. -1.
        -13    1    3    3    0    0  0.33980903644E+02 -0.43138873139E+02  0.88236820766E+02  0.10392978749E+03  0.00000000000E+00 0.  1.
         13    1    3    3    0    0  0.12038886575E+02  0.43695549118E+02  0.91756646708E+02  0.10234020724E+03  0.00000000000E+00 0. -1.
         21    1    1    2  502  501 -0.63513651729E+01 -0.44930446574E+02  0.10763579410E+03  0.11680988417E+03  0.00000000000E+00 0.  1.
<scales pt_clust_5="13000.00000" pt_clust_6="13000.00000" pt_clust_7="13000.00000" pt_clust_8="13000.00000" pt_clust_9="45.37714"></scales>
<clustering>
<clus scale="   45.377">  1  9  2 -1</clus>
<clus scale="   79.521">  5  6 -1 -1</clus>
<clus scale="   89.619">  7  8 -1 -1</clus>
<clus scale="   95.506">  2  5  1 -1</clus>
<clus scale="   95.506">  2  5  1 -1</clus>
</clustering>
</event>
<event>
 9    2  0.2869112E-005  0.1915500E+03  0.7546771E-02  0.1158476E+00
         -1   -1    0    0    0  501 -0.00000000000E+00  0.00000000000E+00  0.59134454658E+02  0.59134454658E+02  0.00000000000E+00 0.  1.
          2   -1    0    0  502    0  0.00000000000E+00 -0.00000000000E+00 -0.15860011389E+04  0.15860011389E+04  0.00000000000E+00 0. -1.
         23    2    1    2    0    0 -0.12530004976E+03  0.93116002490E+02 -0.17157729311E+03  0.24922182191E+03  0.91115622247E+02 0.  0.
         24    2    1    2    0    0  0.91315991892E+02 -0.14613048758E+03 -0.12951261251E+04  0.13088214620E+04  0.77260660623E+02 0.  0.
        -11    1    4    4    0    0  0.76991382422E+02 -0.14210239288E+03 -0.97136779100E+03  0.98472135572E+03  0.00000000000E+00 0.  1.
         12    1    4    4    0    0  0.14324609470E+02 -0.40280947029E+01 -0.32375833408E+03  0.32410010625E+03  0.00000000000E+00 0. -1.
        -11    1    3    3    0    0 -0.10345833592E+03  0.98562291027E+02 -0.10057957199E+03  0.17474095910E+03  0.00000000000E+00 0.  1.
         11    1    3    3    0    0 -0.21841713842E+02 -0.54462885368E+01 -0.70997721113E+02  0.74480862815E+02  0.00000000000E+00 0. -1.
         21    1    1    2  502  501  0.33984057873E+02  0.53014485092E+02 -0.60163266008E+02  0.87092309625E+02  0.00000000000E+00 0.  1.
<scales pt_clust_5="13000.00000" pt_clust_6="13000.00000" pt_clust_7="13000.00000" pt_clust_8="13000.00000" pt_clust_9="62.97183"></scales>
<clustering>
<clus scale="   62.972">  1  9  2 -1</clus>
<clus scale="   77.261">  5  6 -1 -1</clus>
<clus scale="   91.116">  7  8 -1 -1</clus>
<clus scale="  185.361">  2  5  1 -1</clus>
<clus scale="  185.361">  2  5  1 -1</clus>
</clustering>
</event>
<event>
 9    2  0.2869112E-005  0.1707787E+03  0.7546771E-02  0.1177537E+00
          2   -1    0    0  502    0  0.00000000000E+00  0.00000000000E+00  0.87516219792E+03  0.87516219792E+03  0.00000000000E+00 0. -1.
         -1   -1    0    0    0  501 -0.00000000000E+00 -0.00000000000E+00 -0.11774929928E+03  0.11774929928E+03  0.00000000000E+00 0.  1.
         23    2    1    2    0    0  0.45719950788E+02  0.12657427384E+03 -0.19803456833E+02  0.16325130810E+03  0.90263237234E+02 0.  0.
         24    2    1    2    0    0 -0.99970427826E+01 -0.14617202151E+03  0.76961976169E+03  0.78821255820E+03  0.86592485736E+02 0.  0.
        -13    1    4    4    0    0 -0.16144224595E+02 -0.12993523769E+03  0.46455800560E+03  0.48265716875E+03  0.00000000000E+00 0.  1.
         14    1    4    4    0    0  0.61471818127E+01 -0.16236783826E+02  0.30506175609E+03  0.30555538945E+03  0.00000000000E+00 0. -1.
        -11    1    3    3    0    0  0.59609581574E+02  0.65832724855E+02 -0.40480378839E+02  0.97600773297E+02  0.00000000000E+00 0.  1.
         11    1    3    3    0    0 -0.13889630786E+02  0.60741548982E+02  0.20676922006E+02  0.65650534801E+02  0.00000000000E+00 0. -1.
         21    1    1    2  502  501 -0.35722908006E+02  0.19597747677E+02  0.75965937947E+01  0.41447630905E+02  0.00000000000E+00 0. -1.
<scales pt_clust_5="13000.00000" pt_clust_6="13000.00000" pt_clust_7="13000.00000" pt_clust_8="13000.00000" pt_clust_9="40.74553"></scales>
<clustering>
<clus scale="   40.746">  2  9  1 -1</clus>
<clus scale="   86.592">  5  6 -1 -1</clus>
<clus scale="   90.263">  7  8 -1 -1</clus>
<clus scale="  168.867">  1  5  2 -1</clus>
<clus scale="  168.867">  1  5  2 -1</clus>
</clustering>
</event>
<event>
 9    2  0.2869112E-005  0.1343896E+03  0.7546771E-02  0.1224423E+00
         -1   -1    0    0    0  501 -0.00000000000E+00  0.00000000000E+00  0.85554920786E+03  0.85554920786E+03  0.00000000000E+00 0.  1.
          2   -1    0    0  502    0  0.00000000000E+00 -0.00000000000E+00 -0.36399773713E+02  0.36399773713E+02  0.00000000000E+00 0. -1.
         24    2    1    2    0    0  0.98059487242E+02 -0.87289969737E+02  0.45237742204E+03  0.47875182854E+03  0.85573240571E+02 0.  0.
         23    2    1    2    0    0 -0.57098582634E+02  0.47760811929E+02  0.18207785720E+03  0.21992977120E+03  0.98363686815E+02 0.  0.
        -11    1    3    3    0    0  0.45430237373E+02  0.21189712926E+01  0.78260776095E+02  0.90515996278E+02  0.00000000000E+00 0.  1.
         12    1    3    3    0    0  0.52629249869E+02 -0.89408941030E+02  0.37411664594E+03  0.38823583226E+03  0.00000000000E+00 0. -1.
        -13    1    4    4    0    0 -0.26710747619E+02  0.30953979292E+02  0.18060245555E+03  0.18517251368E+03  0.00000000000E+00 0.  1.
         13    1    4    4    0    0 -0.30387835015E+02  0.16806832637E+02  0.14754016466E+01  0.34757257519E+02  0.00000000000E+00 0. -1.
         21    1    1    2  502  501 -0.40960904608E+02  0.39529157808E+02  0.18469415491E+03  0.19326738184E+03  0.00000000000E+00 0. -1.
<scales pt_clust_5="13000.00000" pt_clust_6="13000.00000" pt_clust_7="13000.00000" pt_clust_8="13000.00000" pt_clust_9="56.92407"></scales>
<clustering>
<clus scale="   56.924">  1  9  2 -1</clus>
<clus scale="   85.573">  5  6 -1 -1</clus>
<clus scale="   98.364">  7  8 -1 -1</clus>
<clus scale="  125.331">  1  5  2 -1</clus>
<clus scale="  134.390">  2  5  1 -1</clus>
</clustering>
</event>
<event>
 9    2  0.2869112E-005  0.1303489E+03  0.7546771E-02  0.1247095E+00
         -1   -1    0    0    0  501 -0.00000000000E+00  0.00000000000E+00  0.23482161657E+03  0.23482161657E+03  0.00000000000E+00 0.  1.
          2   -1    0    0  502    0  0.00000000000E+00 -0.00000000000E+00 -0.15277386617E+03  0.15277386617E+03  0.00000000000E+00 0. -1.
         23    2    1    2    0    0  0.80178446215E+01  0.76095833798E+02 -0.99126270613E+00  0.12004832018E+03  0.92497323330E+02 0.  0.
         24    2    1    2    0    0  0.35066872271E+02  0.10588048174E+02 -0.52427895012E+02  0.10104890005E+03  0.78233009217E+02 0.  0.
        -13    1    4    4    0    0  0.25770858857E+02 -0.95982836958E+01  0.14102048751E+02  0.30905209837E+02  0.00000000000E+00 0.  1.
         14    1    4    4    0    0  0.92960134140E+01  0.20186331869E+02 -0.66529943763E+02  0.70143690214E+02  0.00000000000E+00 0. -1.
        -13    1    3    3    0    0  0.22173104770E+02  0.12632290032E+02 -0.37589326333E+02  0.45433234320E+02  0.00000000000E+00 0.  1.
         13    1    3    3    0    0 -0.14155260148E+02  0.63463543766E+02  0.36598063627E+02  0.74615085864E+02  0.00000000000E+00 0. -1.
         21    1    1    2  502  501 -0.43084716892E+02 -0.86683881972E+02  0.13546690811E+03  0.16649826250E+03  0.00000000000E+00 0.  1.
<scales pt_clust_5="13000.00000" pt_clust_6="13000.00000" pt_clust_7="13000.00000" pt_clust_8="13000.00000" pt_clust_9="91.84271"></scales>
<clustering>
<clus scale="   78.233">  5  6 -1 -1</clus>
<clus scale="   86.384">  2  5  1 -1</clus>
<clus scale="   91.843">  1  9  2 -1</clus>
<clus scale="   92.497">  7  8 -1 -1</clus>
<clus scale="   86.384">  2  5  1 -1</clus>
</clustering>
</event>
<event>
 9    2  0.2869112E-005  0.1717628E+03  0.7546771E-02  0.1177176E+00
         -1   -1    0    0    0  501 -0.00000000000E+00  0.00000000000E+00  0.51432371064E+02  0.51432371064E+02  0.00000000000E+00 0.  1.
          2   -1    0    0  502    0  0.00000000000E+00 -0.00000000000E+00 -0.98004162942E+03  0.98004162942E+03  0.00000000000E+00 0. -1.
         24    2    1    2    0    0  0.12457143744E+03  0.94714344129E+02 -0.15536407463E+03  0.23467759308E+03  0.80291512638E+02 0.  0.
         23    2    1    2    0    0 -0.86148631953E+02 -0.74735277722E+02 -0.65670139562E+03  0.67246648492E+03  0.89148762286E+02 0.  0.
        -11    1    3    3    0    0  0.94481387581E+02  0.46397065777E+02 -0.53705248212E+02  0.11816799058E+03  0.00000000000E+00 0.  1.
         12    1    3    3    0    0  0.30090049855E+02  0.48317278351E+02 -0.10165882641E+03  0.11650960250E+03  0.00000000000E+00 0. -1.
        -13    1    4    4    0    0  0.15855045290E+02 -0.28773435573E+02 -0.15419130134E+03  0.15765230878E+03  0.00000000000E+00 0. -1.
         13    1    4    4    0    0 -0.10200367724E+03 -0.45961842149E+02 -0.50251009428E+03  0.51481417614E+03  0.00000000000E+00 0.  1.
         21    1    1    2  502  501 -0.38422805482E+02 -0.19979066407E+02 -0.11654378811E+03  0.12432992248E+03  0.00000000000E+00 0.  1.
<scales pt_clust_5="13000.00000" pt_clust_6="13000.00000" pt_clust_7="13000.00000" pt_clust_8="13000.00000" pt_clust_9="43.30676"></scales>
<clustering>
<clus scale="   43.307">  2  9  1 -1</clus>
<clus scale="   80.292">  5  6 -1 -1</clus>
<clus scale="   89.149">  7  8 -1 -1</clus>
<clus scale="  167.337">  1  5  2 -1</clus>
<clus scale="   43.307">  2  5  1 -1</clus>
</clustering>
</event>
<event>
 9    2  0.2869112E-005  0.1021279E+03  0.7546771E-02  0.1279017E+00
         -1   -1    0    0    0  501 -0.00000000000E+00  0.00000000000E+00  0.20609841236E+03  0.20609841236E+03  0.00000000000E+00 0.  1.
          2   -1    0    0  502    0  0.00000000000E+00 -0.00000000000E+00 -0.25436926187E+03  0.25436926187E+03  0.00000000000E+00 0. -1.
         23    2    1    2    0    0 -0.15041073945E+02 -0.23690318033E+02  0.12815591556E+03  0.15765582656E+03  0.87429719657E+02 0.  0.
         24    2    1    2    0    0  0.32779137703E+02  0.43562593086E+02 -0.22629835007E+03  0.24627229327E+03  0.80417210863E+02 0.  0.
        -11    1    4    4    0    0  0.22601966455E+02  0.35933302672E+01 -0.82034004165E+01  0.24311657459E+02  0.00000000000E+00 0.  1.
         12    1    4    4    0    0  0.10177171248E+02  0.39969262818E+02 -0.21809494965E+03  0.22196063581E+03  0.00000000000E+00 0. -1.
        -13    1    3    3    0    0 -0.48934768432E+02 -0.99597165589E+01  0.99016492802E+02  0.11089667877E+03  0.00000000000E+00 0.  1.
         13    1    3    3    0    0  0.33893694487E+02 -0.13730601474E+02  0.29139422763E+02  0.46759147787E+02  0.00000000000E+00 0. -1.
         21    1    1    2  502  501 -0.17738063757E+02 -0.19872275052E+02  0.49871584996E+02  0.56539554399E+02  0.00000000000E+00 0.  1.
<scales pt_clust_5="13000.00000" pt_clust_6="13000.00000" pt_clust_7="13000.00000" pt_clust_8="13000.00000" pt_clust_9="26.63731"></scales>
<clustering>
<clus scale="   26.637">  1  9  2 -1</clus>
<clus scale="   80.417">  5  6 -1 -1</clus>
<clus scale="   87.430">  7  8 -1 -1</clus>
<clus scale="   96.193">  2  5  1 -1</clus>
<clus scale="   96.193">  2  5  1 -1</clus>
</clustering>
</event>
<event>
 9    2  0.2869112E-005  0.9863266E+02  0.7546771E-02  0.1288950E+00
         -1   -1    0    0    0  501 -0.00000000000E+00  0.00000000000E+00  0.30322661122E+03  0.30322661122E+03  0.00000000000E+00 0.  1.
          2   -1    0    0  502    0  0.00000000000E+00 -0.00000000000E+00 -0.87292795165E+02  0.87292795165E+02  0.00000000000E+00 0. -1.
         23    2    1    2    0    0  0.12611965938E+02 -0.63181251706E+01  0.20187228465E+03  0.22204710250E+03  0.91397571237E+02 0.  0.
         24    2    1    2    0    0 -0.39450189304E+02 -0.90170106074E+01 -0.45907170707E+02  0.10100600225E+03  0.80356208551E+02 0.  0.
        -13    1    4    4    0    0  0.29612881109E+01  0.22266767468E+02  0.96332819707E+01  0.24441323252E+02  0.00000000000E+00 0.  1.
         14    1    4    4    0    0 -0.42411477415E+02 -0.31283778076E+02 -0.55540452678E+02  0.76564679003E+02  0.00000000000E+00 0. -1.
        -11    1    3    3    0    0 -0.37447454422E+02 -0.29576870556E+01  0.12265413181E+03  0.12827741737E+03  0.00000000000E+00 0. -1.
         11    1    3    3    0    0  0.50059420360E+02 -0.33604381150E+01  0.79218152842E+02  0.93769685137E+02  0.00000000000E+00 0.  1.
         21    1    1    2  502  501  0.26838223366E+02  0.15335135778E+02  0.59968702109E+02  0.67466301628E+02  0.00000000000E+00 0.  1.
<scales pt_clust_5="13000.00000" pt_clust_6="13000.00000" pt_clust_7="13000.00000" pt_clust_8="13000.00000" pt_clust_9="30.91046"></scales>
<clustering>
<clus scale="   30.910">  1  9  2 -1</clus>
<clus scale="   80.356">  5  6 -1 -1</clus>
<clus scale="   88.499">  2  5  1 -1</clus>
<clus scale="   91.398">  7  8 -1 -1</clus>
<clus scale="   88.499">  2  5  1 -1</clus>
</clustering>
</event>
<event>
 9    2  0.2869112E-005  0.1015864E+03  0.7546771E-02  0.1285223E+00
          4   -1    0    0  502    0  0.00000000000E+00  0.00000000000E+00  0.35463850812E+03  0.35463850812E+03  0.00000000000E+00 0. -1.
         -3   -1    0    0    0  501 -0.00000000000E+00 -0.00000000000E+00 -0.54921568877E+02  0.54921568877E+02  0.00000000000E+00 0.  1.
         23    2    1    2    0    0  0.38492882360E+02 -0.56445948862E+02  0.49072611965E+02  0.12693171445E+03  0.95056255732E+02 0.  0.
         24    2    1    2    0    0 -0.14483832926E+02  0.25147817254E+02  0.20852446510E+03  0.22492142807E+03  0.79151766428E+02 0.  0.
        -11    1    4    4    0    0  0.16242162731E+02 -0.22071737977E+02  0.80919146530E+02  0.85433469686E+02  0.00000000000E+00 0.  1.
         12    1    4    4    0    0 -0.30725995656E+02  0.47219555231E+02  0.12760531857E+03  0.13948795838E+03  0.00000000000E+00 0. -1.
        -11    1    3    3    0    0  0.64721912744E+02 -0.61181479193E+02  0.45587962393E+02  0.10005179509E+03  0.00000000000E+00 0. -1.
         11    1    3    3    0    0 -0.26229030384E+02  0.47355303313E+01  0.34846495718E+01  0.26879919364E+02  0.00000000000E+00 0.  1.
         21    1    1    2  502  501 -0.24009049435E+02  0.31298131608E+02  0.42119862175E+02  0.57706934475E+02  0.00000000000E+00 0. -1.
<scales pt_clust_5="13000.00000" pt_clust_6="13000.00000" pt_clust_7="13000.00000" pt_clust_8="13000.00000" pt_clust_9="39.44626"></scales>
<clustering>
<clus scale="   39.446">  2  9  1 -1</clus>
<clus scale="   79.152">  5  6 -1 -1</clus>
<clus scale="   86.886">  1  5  2 -1</clus>
<clus scale="   95.056">  7  8 -1 -1</clus>
<clus scale="   86.886">  1  5  2 -1</clus>
</clustering>
</event>
<event>
 9    2  0.2869112E-005  0.1535076E+03  0.7546771E-02  0.1198704E+00
          2   -1    0    0  502    0  0.00000000000E+00  0.00000000000E+00  0.56031330179E+03  0.56031330179E+03  0.00000000000E+00 0. -1.
         -1   -1    0    0    0  501 -0.00000000000E+00 -0.00000000000E+00 -0.61636859885E+02  0.61636859885E+02  0.00000000000E+00 0.  1.
         23    2    1    2    0    0  0.11152751096E+03 -0.69877708875E+02  0.11069048514E+03  0.19442563839E+03  0.90706479728E+02 0.  0.
         24    2    1    2    0    0 -0.95605346462E+02  0.49001992942E+02  0.35755174693E+03  0.38733059381E+03  0.10315114923E+03 0.  0.
        -11    1    4    4    0    0 -0.14190731394E+02  0.21355920460E+02  0.72711397310E+01  0.26651860520E+02  0.00000000000E+00 0.  1.
         12    1    4    4    0    0 -0.81414615069E+02  0.27646072482E+02  0.35028060720E+03  0.36067873329E+03  0.00000000000E+00 0. -1.
        -11    1    3    3    0    0  0.99649572548E+01 -0.50656140070E+02  0.15492680827E+02  0.53901466205E+02  0.00000000000E+00 0.  1.
         11    1    3    3    0    0  0.10156255371E+03 -0.19221568805E+02  0.95197804311E+02  0.14052417218E+03  0.00000000000E+00 0. -1.
         21    1    1    2  502  501 -0.15922164498E+02  0.20875715933E+02  0.30434209841E+02  0.40193929475E+02  0.00000000000E+00 0. -1.
<scales pt_clust_5="13000.00000" pt_clust_6="13000.00000" pt_clust_7="13000.00000" pt_clust_8="13000.00000" pt_clust_9="26.25473"></scales>
<clustering>
<clus scale="   26.255">  2  9  1 -1</clus>
<clus scale="   90.706">  7  8 -1 -1</clus>
<clus scale="  103.151">  5  6 -1 -1</clus>
<clus scale="  145.438">  2  7  1 -1</clus>
<clus scale="  153.508">  1  5  2 -1</clus>
</clustering>
</event>
<event>
 9    2  0.2869112E-005  0.1059194E+03  0.7546771E-02  0.1269226E+00
         -1   -1    0    0    0  501 -0.00000000000E+00  0.00000000000E+00  0.30158084258E+03  0.30158084258E+03  0.00000000000E+00 0.  1.
          2   -1    0    0  502    0  0.00000000000E+00 -0.00000000000E+00 -0.57715044837E+02  0.57715044837E+02  0.00000000000E+00 0. -1.
         23    2    1    2    0    0  0.51452409190E+01 -0.21724311665E+02  0.18197580415E+03  0.20970676247E+03  0.10180036202E+03 0.  0.
         24    2    1    2    0    0 -0.26921530680E+02  0.19461363239E+02  0.27448653650E+02  0.10877817509E+03  0.99878672977E+02 0.  0.
        -13    1    4    4    0    0 -0.38288694844E+02 -0.32924592123E+02  0.52920383783E+01  0.50774586059E+02  0.00000000000E+00 0.  1.
         14    1    4    4    0    0  0.11367164164E+02  0.52385955362E+02  0.22156615272E+02  0.58003589032E+02  0.00000000000E+00 0. -1.
        -13    1    3    3    0    0  0.44175612239E+02 -0.46473868375E+01  0.15000098722E+03  0.15643969793E+03  0.00000000000E+00 0. -1.
         13    1    3    3    0    0 -0.39030371320E+02 -0.17076924827E+02  0.31974816936E+02  0.53267064543E+02  0.00000000000E+00 0.  1.
         21    1    1    2  502  501  0.21776289761E+02  0.22629484258E+01  0.34441339939E+02  0.40810949855E+02  0.00000000000E+00 0. -1.
<scales pt_clust_5="13000.00000" pt_clust_6="13000.00000" pt_clust_7="13000.00000" pt_clust_8="13000.00000" pt_clust_9="21.89355"></scales>
<clustering>
<clus scale="   21.894">  1  9  2 -1</clus>
<clus scale="   99.879">  5  6 -1 -1</clus>
<clus scale="  101.800">  7  8 -1 -1</clus>
<clus scale="  104.074">  2  5  1 -1</clus>
<clus scale="  104.074">  2  5  1 -1</clus>
</clustering>
</event>
<event>
 9    2  0.2869112E-005  0.9371022E+02  0.7546771E-02  0.1300163E+00
         -1   -1    0    0    0  501 -0.00000000000E+00  0.00000000000E+00  0.62163947368E+03  0.62163947368E+03  0.00000000000E+00 0.  1.
          2   -1    0    0  502    0  0.00000000000E+00 -0.00000000000E+00 -0.27074483147E+02  0.27074483147E+02  0.00000000000E+00 0. -1.
         24    2    1    2    0    0  0.13894874977E+02 -0.21464229576E+01  0.37214948851E+03  0.38120517221E+03  0.81390827755E+02 0.  0.
         23    2    1    2    0    0  0.30123043872E+02  0.67001335973E+01  0.10852214762E+03  0.14532036602E+03  0.91589642943E+02 0.  0.
        -11    1    3    3    0    0  0.38472169903E+02  0.14254733476E+02  0.11011540133E+03  0.11751045440E+03  0.00000000000E+00 0.  1.
         12    1    3    3    0    0 -0.24577294926E+02 -0.16401156434E+02  0.26203408718E+03  0.26369471781E+03  0.00000000000E+00 0. -1.
        -11    1    4    4    0    0 -0.49380461897E+01  0.30168506341E+02  0.96828056697E+02  0.10153913353E+03  0.00000000000E+00 0.  1.
         11    1    4    4    0    0  0.35061090062E+02 -0.23468372744E+02  0.11694090919E+02  0.43781232486E+02  0.00000000000E+00 0. -1.
         21    1    1    2  502  501 -0.44017918849E+02 -0.45537106398E+01  0.11389335440E+03  0.12218841859E+03  0.00000000000E+00 0.  1.
<scales pt_clust_5="13000.00000" pt_clust_6="13000.00000" pt_clust_7="13000.00000" pt_clust_8="13000.00000" pt_clust_9="44.25284"></scales>
<clustering>
<clus scale="   44.253">  1  9  2 -1</clus>
<clus scale="   81.391">  5  6 -1 -1</clus>
<clus scale="   83.770">  1  5  2 -1</clus>
<clus scale="   91.590">  7  8 -1 -1</clus>
<clus scale="   93.710">  2  5  1 -1</clus>
</clustering>
</event>
<event>
 9    2  0.2869112E-005  0.9424010E+02  0.7546771E-02  0.1295621E+00
          2   -1    0    0  502    0  0.00000000000E+00  0.00000000000E+00  0.50836737872E+03  0.50836737872E+03  0.00000000000E+00 0. -1.
         -1   -1    0    0    0  501 -0.00000000000E+00 -0.00000000000E+00 -0.11139533416E+03  0.11139533416E+03  0.00000000000E+00 0.  1.
         23    2    1    2    0    0  0.67012673420E+02 -0.70301860407E+01  0.38609963210E+02  0.11489124649E+03  0.84670817556E+02 0.  0.
         24    2    1    2    0    0 -0.37221603707E+02  0.92056982328E+01  0.42382813833E+03  0.43291283033E+03  0.79454610706E+02 0.  0.
        -13    1    4    4    0    0 -0.18816897363E+02  0.34318807539E+02  0.96905439815E+02  0.10451086280E+03  0.00000000000E+00 0.  1.
         14    1    4    4    0    0 -0.18404706344E+02 -0.25113109306E+02  0.32692269852E+03  0.32840196753E+03  0.00000000000E+00 0. -1.
        -13    1    3    3    0    0  0.57815356938E+02 -0.25394985931E+02 -0.82922608611E+01  0.63688950364E+02  0.00000000000E+00 0.  1.
         13    1    3    3    0    0  0.91973164823E+01  0.18364799890E+02  0.46902224071E+02  0.51202296123E+02  0.00000000000E+00 0. -1.
         21    1    1    2  502  501 -0.29791069714E+02 -0.21755121921E+01 -0.65466056981E+02  0.71958636067E+02  0.00000000000E+00 0. -1.
<scales pt_clust_5="13000.00000" pt_clust_6="13000.00000" pt_clust_7="13000.00000" pt_clust_8="13000.00000" pt_clust_9="29.87040"></scales>
<clustering>
<clus scale="   29.870">  2  9  1 -1</clus>
<clus scale="   79.455">  5  6 -1 -1</clus>
<clus scale="   84.671">  7  8 -1 -1</clus>
<clus scale="   89.583">  1  5  2 -1</clus>
<clus scale="   89.583">  1  5  2 -1</clus>
</clustering>
</event>
<event>
 9    2  0.2869112E-005  0.1090208E+03  0.7546771E-02  0.1267197E+00
          2   -1    0    0  502    0  0.00000000000E+00  0.00000000000E+00  0.68561387429E+03  0.68561387429E+03  0.00000000000E+00 0. -1.
         -1   -1    0    0    0  501 -0.00000000000E+00 -0.00000000000E+00 -0.37505762222E+02  0.37505762222E+02  0.00000000000E+00 0.  1.
         23    2    1    2    0    0 -0.75250723232E+02  0.13548115787E+02  0.10867732078E+03  0.16155504738E+03  0.91886073449E+02 0.  0.
         24    2    1    2    0    0  0.55590528565E+02 -0.38937669563E+01  0.52784757540E+03  0.53678757163E+03  0.80077249701E+02 0.  0.
        -13    1    4    4    0    0  0.21538142148E+02 -0.20886578615E+02  0.57083409318E+02  0.64487644962E+02  0.00000000000E+00 0.  1.
         14    1    4    4    0    0  0.34052386417E+02  0.16992811659E+02  0.47076416608E+03  0.47229992667E+03  0.00000000000E+00 0. -1.
        -11    1    3    3    0    0  0.17072043723E+02  0.11266027724E+02  0.44848823175E+02  0.49292950791E+02  0.00000000000E+00 0. -1.
         11    1    3    3    0    0 -0.92322766954E+02  0.22820880633E+01  0.63828497602E+02  0.11226209659E+03  0.00000000000E+00 0.  1.
         21    1    1    2  502  501  0.19660194667E+02 -0.96543488307E+01  0.11583215890E+02  0.24777017497E+02  0.00000000000E+00 0.  1.
<scales pt_clust_5="13000.00000" pt_clust_6="13000.00000" pt_clust_7="13000.00000" pt_clust_8="13000.00000" pt_clust_9="21.90273"></scales>
<clustering>
<clus scale="   21.903">  2  9  1 -1</clus>
<clus scale="   80.077">  5  6 -1 -1</clus>
<clus scale="   91.886">  7  8 -1 -1</clus>
<clus scale="   99.272">  1  5  2 -1</clus>
<clus scale="   99.272">  1  5  2 -1</clus>
</clustering>
</event>
<event>
 9    2  0.2869112E-005  0.1139483E+03  0.7546771E-02  0.1258387E+00
         -1   -1    0    0    0  501 -0.00000000000E+00  0.00000000000E+00  0.26184466958E+03  0.26184466958E+03  0.00000000000E+00 0.  1.
          2   -1    0    0  502    0  0.00000000000E+00 -0.00000000000E+00 -0.13493542742E+03  0.13493542742E+03  0.00000000000E+00 0. -1.
         23    2    1    2    0    0 -0.16545324377E+02 -0.85641860656E+02  0.13430308853E+03  0.18408659532E+03  0.90786997605E+02 0.  0.
         24    2    1    2    0    0  0.16712934198E+02  0.64000921165E+02 -0.84830811807E+02  0.13228926068E+03  0.76998323230E+02 0.  0.
        -13    1    4    4    0    0  0.45811685081E+02  0.44254170185E+02 -0.68428433150E+02  0.93485787862E+02  0.00000000000E+00 0.  1.
         14    1    4    4    0    0 -0.29098750883E+02  0.19746750980E+02 -0.16402378656E+02  0.38803472819E+02  0.00000000000E+00 0. -1.
        -11    1    3    3    0    0 -0.34276910545E+01 -0.67618556754E+02  0.14449870416E+03  0.15957410125E+03  0.00000000000E+00 0.  1.
         11    1    3    3    0    0 -0.13117633322E+02 -0.18023303903E+02 -0.10195615639E+02  0.24512494075E+02  0.00000000000E+00 0. -1.
         21    1    1    2  502  501 -0.16760982146E+00  0.21640939491E+02  0.77436965437E+02  0.80404241002E+02  0.00000000000E+00 0.  1.
<scales pt_clust_5="13000.00000" pt_clust_6="13000.00000" pt_clust_7="13000.00000" pt_clust_8="13000.00000" pt_clust_9="21.64159"></scales>
<clustering>
<clus scale="   21.642">  1  9  2 -1</clus>
<clus scale="   76.998">  5  6 -1 -1</clus>
<clus scale="   90.787">  7  8 -1 -1</clus>
<clus scale="  103.299">  2  5  1 -1</clus>
<clus scale="  103.299">  2  5  1 -1</clus>
</clustering>
</event>
<event>
 9    2  0.2869112E-005  0.9713659E+02  0.7546771E-02  0.1292898E+00
          2   -1    0    0  502    0  0.00000000000E+00  0.00000000000E+00  0.19616594890E+03  0.19616594890E+03  0.00000000000E+00 0. -1.
         -1   -1    0    0    0  501 -0.00000000000E+00 -0.00000000000E+00 -0.10149850362E+03  0.10149850362E+03  0.00000000000E+00 0.  1.
         24    2    1    2    0    0 -0.67084728032E+01 -0.22265129980E+02 -0.45968694163E+02  0.95256835844E+02  0.80124929401E+02 0.  0.
         23    2    1    2    0    0  0.33117998844E+02  0.11411092814E+02  0.14320817064E+03  0.17373901829E+03  0.91921985688E+02 0.  0.
        -11    1    3    3    0    0  0.15862972353E+02  0.25218100758E+02 -0.94948967727E+01  0.31268827328E+02  0.00000000000E+00 0.  1.
         12    1    3    3    0    0 -0.22571445156E+02 -0.47483230739E+02 -0.36473797390E+02  0.63988008516E+02  0.00000000000E+00 0. -1.
        -11    1    4    4    0    0 -0.23378819427E+02 -0.11226256321E+02  0.10955323327E+02  0.28153456946E+02  0.00000000000E+00 0.  1.
         11    1    4    4    0    0  0.56496818271E+02  0.22637349134E+02  0.13225284731E+03  0.14558556135E+03  0.00000000000E+00 0. -1.
         21    1    1    2  502  501 -0.26409526041E+02  0.10854037167E+02 -0.25720312060E+01  0.28668598380E+02  0.00000000000E+00 0.  1.
<scales pt_clust_5="13000.00000" pt_clust_6="13000.00000" pt_clust_7="13000.00000" pt_clust_8="13000.00000" pt_clust_9="28.55299"></scales>
<clustering>
<clus scale="   28.553">  2  9  1 -1</clus>
<clus scale="   80.125">  5  6 -1 -1</clus>
<clus scale="   86.057">  2  5  1 -1</clus>
<clus scale="   91.922">  7  8 -1 -1</clus>
<clus scale="   97.137">  1  5  2 -1</clus>
</clustering>
</event>
<event>
 9    2  0.2869112E-005  0.1023296E+03  0.7546771E-02  0.1280654E+00
          2   -1    0    0  502    0  0.00000000000E+00  0.00000000000E+00  0.64163882970E+03  0.64163882970E+03  0.00000000000E+00 0. -1.
         -1   -1    0    0    0  501 -0.00000000000E+00 -0.00000000000E+00 -0.17172496686E+03  0.17172496686E+03  0.00000000000E+00 0.  1.
         23    2    1    2    0    0 -0.17027357234E+02  0.15628937720E+02 -0.12097356017E+03  0.15336543405E+03  0.91390149970E+02 0.  0.
         24    2    1    2    0    0 -0.30709300547E+02 -0.35868903217E+02  0.60012461722E+03  0.60733176536E+03  0.80452953105E+02 0.  0.
        -13    1    4    4    0    0 -0.36610535236E+02 -0.30585728724E+01  0.10796531616E+03  0.11404470901E+03  0.00000000000E+00 0.  1.
         14    1    4    4    0    0  0.59012346890E+01 -0.32810330345E+02  0.49215930106E+03  0.49328705635E+03  0.00000000000E+00 0. -1.
        -11    1    3    3    0    0  0.21575458026E+02  0.17773755842E+02 -0.10953618172E+03  0.11304681283E+03  0.00000000000E+00 0.  1.
         11    1    3    3    0    0 -0.38602815260E+02 -0.21448181218E+01 -0.11437378449E+02  0.40318621213E+02  0.00000000000E+00 0. -1.
         21    1    1    2  502  501  0.47736657782E+02  0.20239965497E+02 -0.92371942060E+01  0.52666597159E+02  0.00000000000E+00 0.  1.
<scales pt_clust_5="13000.00000" pt_clust_6="13000.00000" pt_clust_7="13000.00000" pt_clust_8="13000.00000" pt_clust_9="51.85021"></scales>
<clustering>
<clus scale="   51.850">  2  9  1 -1</clus>
<clus scale="   80.453">  5  6 -1 -1</clus>
<clus scale="   91.390">  7  8 -1 -1</clus>
<clus scale="   92.692">  1  5  2 -1</clus>
<clus scale="   92.692">  1  5  2 -1</clus>
</clustering>
</event>
<event>
 9    2  0.2869112E-005  0.9409247E+02  0.7546771E-02  0.1299174E+00
         -1   -1    0    0    0  501 -0.00000000000E+00  0.00000000000E+00  0.23163456072E+02  0.23163456072E+02  0.00000000000E+00 0.  1.
          2   -1    0    0  502    0  0.00000000000E+00 -0.00000000000E+00 -0.59355992424E+03  0.59355992424E+03  0.00000000000E+00 0. -1.
         23    2    1    2    0    0  0.25202538811E+02 -0.29866015843E+02 -0.18610240283E+03  0.21101234478E+03  0.91460146768E+02 0.  0.
         24    2    1    2    0    0 -0.13003826354E+02  0.93715475041E+01 -0.36701561207E+03  0.37625977468E+03  0.81326706179E+02 0.  0.
        -11    1    4    4    0    0 -0.19985900847E+02 -0.33121149297E+02 -0.20506358808E+03  0.20868043013E+03  0.00000000000E+00 0.  1.
         12    1    4    4    0    0  0.69820744929E+01  0.42492696801E+02 -0.16195202400E+03  0.16757934456E+03  0.00000000000E+00 0. -1.
        -13    1    3    3    0    0 -0.13652066767E+02 -0.41358788270E+02 -0.39106051806E+02  0.58533849883E+02  0.00000000000E+00 0.  1.
         13    1    3    3    0    0  0.38854605579E+02  0.11492772427E+02 -0.14699635103E+03  0.15247849490E+03  0.00000000000E+00 0. -1.
         21    1    1    2  502  501 -0.12198712457E+02  0.20494468339E+02 -0.17278453266E+02  0.29451260845E+02  0.00000000000E+00 0. -1.
<scales pt_clust_5="13000.00000" pt_clust_6="13000.00000" pt_clust_7="13000.00000" pt_clust_8="13000.00000" pt_clust_9="23.85020"></scales>
<clustering>
<clus scale="   23.850">  1  9  2 -1</clus>
<clus scale="   81.327">  5  6 -1 -1</clus>
<clus scale="   84.276">  2  5  1 -1</clus>
<clus scale="   91.460">  7  8 -1 -1</clus>
<clus scale="   84.276">  2  5  1 -1</clus>
</clustering>
</event>
<event>
 9    2  0.2869112E-005  0.9268061E+02  0.7546771E-02  0.1302796E+00
         -1   -1    0    0    0  501 -0.00000000000E+00  0.00000000000E+00  0.13300902843E+03  0.13300902843E+03  0.00000000000E+00 0.  1.
          2   -1    0    0  502    0  0.00000000000E+00 -0.00000000000E+00 -0.14169580170E+03  0.14169580170E+03  0.00000000000E+00 0. -1.
         23    2    1    2    0    0 -0.36840870442E+02  0.23610195460E+02  0.17778018600E+02  0.10092020327E+03  0.89185976583E+02 0.  0.
         24    2    1    2    0    0  0.86758921978E+00 -0.23444496358E+02 -0.76520225436E+02  0.11214331890E+03  0.78551778800E+02 0.  0.
        -13    1    4    4    0    0  0.23358300829E+02 -0.25857479004E+02 -0.27168592122E+01  0.34951405723E+02  0.00000000000E+00 0.  1.
         14    1    4    4    0    0 -0.22490711609E+02  0.24129826460E+01 -0.73803366224E+02  0.77191913177E+02  0.00000000000E+00 0. -1.
        -13    1    3    3    0    0  0.15288852800E+01  0.50501483541E+02  0.19184390607E+02  0.54044224234E+02  0.00000000000E+00 0.  1.
         13    1    3    3    0    0 -0.38369755722E+02 -0.26891288081E+02 -0.14063720068E+01  0.46875979041E+02  0.00000000000E+00 0. -1.
         21    1    1    2  502  501  0.35973281222E+02 -0.16569910165E+00  0.50055433561E+02  0.61641307961E+02  0.00000000000E+00 0.  1.
<scales pt_clust_5="13000.00000" pt_clust_6="13000.00000" pt_clust_7="13000.00000" pt_clust_8="13000.00000" pt_clust_9="35.97366"></scales>
<clustering>
<clus scale="   35.974">  1  9  2 -1</clus>
<clus scale="   78.552">  5  6 -1 -1</clus>
<clus scale="   82.498">  2  5  1 -1</clus>
<clus scale="   89.186">  7  8 -1 -1</clus>
<clus scale="   82.498">  2  5  1 -1</clus>
</clustering>
</event>
<event>
 9    2  0.2869112E-005  0.1164810E+03  0.7546771E-02  0.1253430E+00
          2   -1    0    0  502    0  0.00000000000E+00  0.00000000000E+00  0.39257004560E+03  0.39257004560E+03  0.00000000000E+00 0. -1.
         -1   -1    0    0    0  501 -0.00000000000E+00 -0.00000000000E+00 -0.77635380221E+02  0.77635380221E+02  0.00000000000E+00 0.  1.
         24    2    1    2    0    0  0.95049794231E+02 -0.20688498801E+00  0.17121163875E+02  0.12569384042E+03  0.80444397459E+02 0.  0.
         23    2    1    2    0    0 -0.65141131780E+02  0.17589879501E+01  0.29290194105E+03  0.31416260619E+03  0.93059846155E+02 0.  0.
        -13    1    3    3    0    0  0.51738533854E+02 -0.12246697042E+02 -0.29604598567E+02  0.60854660710E+02  0.00000000000E+00 0.  1.
         14    1    3    3    0    0  0.43311260377E+02  0.12039812054E+02  0.46725762442E+02  0.64839179711E+02  0.00000000000E+00 0. -1.
        -11    1    4    4    0    0 -0.14348447056E+01 -0.25004695556E+02  0.18350085423E+02  0.31048658814E+02  0.00000000000E+00 0.  1.
         11    1    4    4    0    0 -0.63706287074E+02  0.26763683506E+02  0.27455185563E+03  0.28311394737E+03  0.00000000000E+00 0. -1.
         21    1    1    2  502  501 -0.29908662451E+02 -0.15521029621E+01  0.49115604523E+01  0.30348979214E+02  0.00000000000E+00 0.  1.
<scales pt_clust_5="13000.00000" pt_clust_6="13000.00000" pt_clust_7="13000.00000" pt_clust_8="13000.00000" pt_clust_9="29.94891"></scales>
<clustering>
<clus scale="   29.949">  2  9  1 -1</clus>
<clus scale="   80.444">  5  6 -1 -1</clus>
<clus scale="   93.060">  7  8 -1 -1</clus>
<clus scale="  106.672">  2  5  1 -1</clus>
<clus scale="  116.481">  1  5  2 -1</clus>
</clustering>
</event>
<event>
 9    2  0.2869112E-005  0.1897405E+03  0.7546771E-02  0.1186552E+00
         -1   -1    0    0    0  501 -0.00000000000E+00  0.00000000000E+00  0.34061465778E+02  0.34061465778E+02  0.00000000000E+00 0.  1.
          2   -1    0    0  502    0  0.00000000000E+00 -0.00000000000E+00 -0.18867567693E+04  0.18867567693E+04  0.00000000000E+00 0. -1.
         23    2    1    2    0    0 -0.29781126821E+02  0.29361393981E+02 -0.16491729628E+03  0.19318700427E+03  0.91512278053E+02 0.  0.
         24    2    1    2    0    0 -0.15689596693E+03 -0.32879561985E+02 -0.92199370832E+03  0.93941406067E+03  0.82030294176E+02 0.  0.
        -13    1    4    4    0    0 -0.14161584486E+03 -0.49010705167E+02 -0.87088768358E+03  0.88368685299E+03  0.00000000000E+00 0.  1.
         14    1    4    4    0    0 -0.15280122069E+02  0.16131143182E+02 -0.51106024746E+02  0.55727207682E+02  0.00000000000E+00 0. -1.
        -11    1    3    3    0    0 -0.95172758044E+01 -0.18232083112E+02 -0.23100791608E+00  0.20567954638E+02  0.00000000000E+00 0.  1.
         11    1    3    3    0    0 -0.20263851017E+02  0.47593477093E+02 -0.16468628837E+03  0.17261904963E+03  0.00000000000E+00 0. -1.
         21    1    1    2  502  501  0.18667709375E+03  0.35181680039E+01 -0.76578429894E+03  0.78821717016E+03  0.00000000000E+00 0. -1.
<scales pt_clust_5="13000.00000" pt_clust_6="13000.00000" pt_clust_7="13000.00000" pt_clust_8="13000.00000" pt_clust_9="171.09200"></scales>
<clustering>
<clus scale="   82.030">  5  6 -1 -1</clus>
<clus scale="   91.512">  7  8 -1 -1</clus>
<clus scale="  100.616">  1  7  2 -1</clus>
<clus scale="  171.092">  1  9  2 -1</clus>
<clus scale="  189.740">  2  5  1 -1</clus>
</clustering>
</event>
<event>
 9    2  0.4348699E-005  0.9955341E+02  0.7546771E-02  0.1285913E+00
          4   -1    0    0  502    0  0.00000000000E+00  0.00000000000E+00  0.33179647322E+03  0.33179647322E+03  0.00000000000E+00 0. -1.
         -3   -1    0    0    0  501 -0.00000000000E+00 -0.00000000000E+00 -0.10892842708E+03  0.10892842708E+03  0.00000000000E+00 0.  1.
         24    2    1    2    0    0 -0.24867026692E+02  0.53751886835E+02 -0.53281386162E+02  0.11481130456E+03  0.82674634489E+02 0.  0.
         23    2    1    2    0    0  0.23267743249E+02 -0.28003443981E+02  0.28254756999E+03  0.29933397605E+03  0.91881005453E+02 0.  0.
        -13    1    3    3    0    0 -0.33595572858E+02  0.57784454665E+02 -0.69202742404E+02  0.96211876984E+02  0.00000000000E+00 0.  1.
         14    1    3    3    0    0  0.87285461659E+01 -0.40325678304E+01  0.15921356241E+02  0.18599427573E+02  0.00000000000E+00 0. -1.
        -13    1    4    4    0    0  0.54009083533E+02 -0.37516743190E+02  0.20770335052E+03  0.21786502460E+03  0.00000000000E+00 0. -1.
         13    1    4    4    0    0 -0.30741340283E+02  0.95132992093E+01  0.74844219463E+02  0.81468951455E+02  0.00000000000E+00 0.  1.
         21    1    1    2  502  501  0.15992834427E+01 -0.25748442854E+02 -0.63981376846E+01  0.26579619688E+02  0.00000000000E+00 0.  1.
<scales pt_clust_5="13000.00000" pt_clust_6="13000.00000" pt_clust_7="13000.00000" pt_clust_8="13000.00000" pt_clust_9="25.79806"></scales>
<clustering>
<clus scale="   25.798">  2  9  1 -1</clus>
<clus scale="   82.675">  5  6 -1 -1</clus>
<clus scale="   91.126">  2  5  1 -1</clus>
<clus scale="   91.881">  7  8 -1 -1</clus>
<clus scale="   99.553">  1  5  2 -1</clus>
</clustering>
</event>
<event>
 9    2  0.2869112E-005  0.1170970E+03  0.7546771E-02  0.1252971E+00
          2   -1    0    0  502    0  0.00000000000E+00  0.00000000000E+00  0.24964128009E+03  0.24964128009E+03  0.00000000000E+00 0. -1.
         -1   -1    0    0    0  501 -0.00000000000E+00 -0.00000000000E+00 -0.15902413194E+03  0.15902413194E+03  0.00000000000E+00 0.  1.
         23    2    1    2    0    0  0.31697101717E+02 -0.84566257092E+02 -0.22173923145E+01  0.12800574433E+03  0.90688453817E+02 0.  0.
         24    2    1    2    0    0 -0.22464497576E+02  0.66811151110E+02  0.17105460152E+03  0.19992019335E+03  0.75762942417E+02 0.  0.
        -13    1    4    4    0    0 -0.35013710341E+02  0.26720800046E-01  0.49000763659E+02  0.60224874138E+02  0.00000000000E+00 0.  1.
         14    1    4    4    0    0  0.12549212765E+02  0.66784430310E+02  0.12205383786E+03  0.13969531921E+03  0.00000000000E+00 0. -1.
        -11    1    3    3    0    0  0.19063091899E+02  0.89656730791E+01 -0.23182077111E+02  0.31324007817E+02  0.00000000000E+00 0.  1.
         11    1    3    3    0    0  0.12634009818E+02 -0.93531930171E+02  0.20964684797E+02  0.96681736508E+02  0.00000000000E+00 0. -1.
         21    1    1    2  502  501 -0.92326041411E+01  0.17755105982E+02 -0.78220061051E+02  0.80739474351E+02  0.00000000000E+00 0.  1.
<scales pt_clust_5="13000.00000" pt_clust_6="13000.00000" pt_clust_7="13000.00000" pt_clust_8="13000.00000" pt_clust_9="20.01212"></scales>
<clustering>
<clus scale="   20.012">  2  9  1 -1</clus>
<clus scale="   75.763">  5  6 -1 -1</clus>
<clus scale="   90.688">  7  8 -1 -1</clus>
<clus scale="  105.959">  1  5  2 -1</clus>
<clus scale="  105.959">  1  5  2 -1</clus>
</clustering>
</event>
<event>
 9    2  0.2869112E-005  0.9831979E+02  0.7546771E-02  0.1287693E+00
         -1   -1    0    0    0  501 -0.00000000000E+00  0.00000000000E+00  0.45272388322E+03  0.45272388322E+03  0.00000000000E+00 0.  1.
          2   -1    0    0  502    0  0.00000000000E+00 -0.00000000000E+00 -0.58741085275E+02  0.58741085275E+02  0.00000000000E+00 0. -1.
         23    2    1    2    0    0  0.15617791720E+02  0.23825590731E+02  0.10257936340E+03  0.14025396503E+03  0.91307583039E+02 0.  0.
         24    2    1    2    0    0  0.12558661603E+02  0.21534337954E+02  0.31767203032E+02  0.10614043103E+03  0.98158994592E+02 0.  0.
        -13    1    4    4    0    0  0.51471112657E+02  0.28506999192E+02  0.64369101558E+01  0.59189173448E+02  0.00000000000E+00 0.  1.
         14    1    4    4    0    0 -0.38912451054E+02 -0.69726612381E+01  0.25330292876E+02  0.46951257586E+02  0.00000000000E+00 0. -1.
        -11    1    3    3    0    0  0.42158991552E+02  0.39705601787E+02  0.89655181734E+02  0.10673315789E+03  0.00000000000E+00 0.  1.
         11    1    3    3    0    0 -0.26541199832E+02 -0.15880011056E+02  0.12924181664E+02  0.33520807141E+02  0.00000000000E+00 0. -1.
         21    1    1    2  502  501 -0.28176453323E+02 -0.45359928685E+02  0.25963623151E+03  0.26507057242E+03  0.00000000000E+00 0. -1.
<scales pt_clust_5="13000.00000" pt_clust_6="13000.00000" pt_clust_7="13000.00000" pt_clust_8="13000.00000" pt_clust_9="53.39884"></scales>
<clustering>
<clus scale="   53.399">  1  9  2 -1</clus>
<clus scale="   91.308">  7  8 -1 -1</clus>
<clus scale="   91.480">  1  7  2 -1</clus>
<clus scale="   98.159">  5  6 -1 -1</clus>
<clus scale="   98.320">  2  5  1 -1</clus>
</clustering>
</event>
<event>
 9    2  0.2869112E-005  0.1044670E+03  0.7546771E-02  0.1278793E+00
         -1   -1    0    0    0  501 -0.00000000000E+00  0.00000000000E+00  0.43024612575E+02  0.43024612575E+02  0.00000000000E+00 0.  1.
          2   -1    0    0  502    0  0.00000000000E+00 -0.00000000000E+00 -0.34373903650E+03  0.34373903650E+03  0.00000000000E+00 0. -1.
         24    2    1    2    0    0 -0.44505636676E+02  0.28267342906E+02 -0.15620307954E+03  0.18286088205E+03  0.79113246397E+02 0.  0.
         23    2    1    2    0    0  0.30005250471E+02 -0.13967166300E+02 -0.15193836541E+03  0.18222520046E+03  0.95001894775E+02 0.  0.
        -11    1    3    3    0    0  0.94482913768E+01  0.30912943911E+02 -0.99175710149E+02  0.10431060250E+03  0.00000000000E+00 0.  1.
         12    1    3    3    0    0 -0.53953928053E+02 -0.26456010052E+01 -0.57027369386E+02  0.78550279542E+02  0.00000000000E+00 0. -1.
        -13    1    4    4    0    0  0.40674437624E+02  0.29965283451E+02 -0.51814248706E+02  0.72367426770E+02  0.00000000000E+00 0.  1.
         13    1    4    4    0    0 -0.10669187153E+02 -0.43932449751E+02 -0.10012411670E+03  0.10985777369E+03  0.00000000000E+00 0. -1.
         21    1    1    2  502  501  0.14500386205E+02 -0.14300176606E+02  0.74270210178E+01  0.21677566567E+02  0.00000000000E+00 0.  1.
<scales pt_clust_5="13000.00000" pt_clust_6="13000.00000" pt_clust_7="13000.00000" pt_clust_8="13000.00000" pt_clust_9="20.36557"></scales>
<clustering>
<clus scale="   20.366">  1  9  2 -1</clus>
<clus scale="   79.113">  5  6 -1 -1</clus>
<clus scale="   90.260">  1  5  2 -1</clus>
<clus scale="   95.002">  7  8 -1 -1</clus>
<clus scale="  104.467">  2  5  1 -1</clus>
</clustering>
</event>
<event>
 9    2  0.2869112E-005  0.9733464E+02  0.7546771E-02  0.1293277E+00
          4   -1    0    0  502    0  0.00000000000E+00  0.00000000000E+00  0.40500666104E+02  0.40500666104E+02  0.00000000000E+00 0. -1.
         -3   -1    0    0    0  501 -0.00000000000E+00 -0.00000000000E+00 -0.38016830677E+03  0.38016830677E+03  0.00000000000E+00 0.  1.
         23    2    1    2    0    0  0.39047584360E+02  0.47402651264E+02 -0.19943089052E+03  0.22836392674E+03  0.92766792291E+02 0.  0.
         24    2    1    2    0    0 -0.87268337122E+01 -0.14915907033E+02 -0.62302670841E+02  0.10259185208E+03  0.79654399811E+02 0.  0.
        -11    1    4    4    0    0 -0.25350853981E+02  0.22026650483E+01  0.93194515317E+01  0.27099256590E+02  0.00000000000E+00 0.  1.
         12    1    4    4    0    0  0.16624020269E+02 -0.17118572081E+02 -0.71622122372E+02  0.75492595486E+02  0.00000000000E+00 0. -1.
        -11    1    3    3    0    0  0.59266564486E+02  0.37421216727E+02 -0.19236093836E+03  0.20473300597E+03  0.00000000000E+00 0.  1.
         11    1    3    3    0    0 -0.20218980125E+02  0.99814345370E+01 -0.70699521540E+01  0.23630920765E+02  0.00000000000E+00 0. -1.
         21    1    1    2  502  501 -0.30320750648E+02 -0.32486744231E+02 -0.77934079309E+02  0.89713194059E+02  0.00000000000E+00 0. -1.
<scales pt_clust_5="13000.00000" pt_clust_6="13000.00000" pt_clust_7="13000.00000" pt_clust_8="13000.00000" pt_clust_9="44.43801"></scales>
<clustering>
<clus scale="   44.438">  2  9  1 -1</clus>
<clus scale="   79.654">  5  6 -1 -1</clus>
<clus scale="   84.930">  1  5  2 -1</clus>
<clus scale="   92.767">  7  8 -1 -1</clus>
<clus scale="   84.930">  1  5  2 -1</clus>
</clustering>
</event>
<event>
 9    2  0.2869112E-005  0.9571800E+02  0.7546771E-02  0.1295044E+00
         -1   -1    0    0    0  501 -0.00000000000E+00  0.00000000000E+00  0.10384723859E+03  0.10384723859E+03  0.00000000000E+00 0.  1.
          2   -1    0    0  502    0  0.00000000000E+00 -0.00000000000E+00 -0.25172642399E+03  0.25172642399E+03  0.00000000000E+00 0. -1.
         23    2    1    2    0    0 -0.11688221784E+02  0.14549367705E+02  0.41964482189E+02  0.10224241829E+03  0.91346569196E+02 0.  0.
         24    2    1    2    0    0  0.74724978596E+01  0.33293772182E+02 -0.18502916582E+03  0.20506202231E+03  0.81549538945E+02 0.  0.
        -11    1    4    4    0    0  0.15700169498E+02 -0.17214286257E+02 -0.15514690012E+02  0.27991651965E+02  0.00000000000E+00 0.  1.
         12    1    4    4    0    0 -0.82276716385E+01  0.50508058438E+02 -0.16951447580E+03  0.17707037035E+03  0.00000000000E+00 0. -1.
        -11    1    3    3    0    0 -0.17817360666E+02  0.51563317268E+02  0.32674699475E+02  0.63591430355E+02  0.00000000000E+00 0. -1.
         11    1    3    3    0    0  0.61291388822E+01 -0.37013949563E+02  0.92897827141E+01  0.38650987938E+02  0.00000000000E+00 0.  1.
         21    1    1    2  502  501  0.42157239240E+01 -0.47843139887E+02 -0.48145017709E+01  0.48269221972E+02  0.00000000000E+00 0.  1.
<scales pt_clust_5="13000.00000" pt_clust_6="13000.00000" pt_clust_7="13000.00000" pt_clust_8="13000.00000" pt_clust_9="48.02852"></scales>
<clustering>
<clus scale="   48.029">  1  9  2 -1</clus>
<clus scale="   81.550">  5  6 -1 -1</clus>
<clus scale="   86.418">  2  5  1 -1</clus>
<clus scale="   91.347">  7  8 -1 -1</clus>
<clus scale="   86.418">  2  5  1 -1</clus>
</clustering>
</event>
<event>
 9    2  0.2869112E-005  0.9166310E+02  0.7546771E-02  0.1304941E+00
         -1   -1    0    0    0  501 -0.00000000000E+00  0.00000000000E+00  0.93191915458E+02  0.93191915458E+02  0.00000000000E+00 0.  1.
          2   -1    0    0  502    0  0.00000000000E+00 -0.00000000000E+00 -0.16440136512E+03  0.16440136512E+03  0.00000000000E+00 0. -1.
         24    2    1    2    0    0  0.17091938137E+02 -0.20665271288E+02  0.76858927323E+01  0.84424065400E+02  0.79681629532E+02 0.  0.
         23    2    1    2    0    0 -0.18880704898E+02  0.42522920109E+00 -0.10549620801E+03  0.13969586694E+03  0.89603702483E+02 0.  0.
        -11    1    3    3    0    0 -0.21102554634E+02  0.12453562076E+02 -0.15302486350E+02  0.28889013638E+02  0.00000000000E+00 0.  1.
         12    1    3    3    0    0  0.38194492771E+02 -0.33118833364E+02  0.22988379083E+02  0.55535051762E+02  0.00000000000E+00 0. -1.
        -11    1    4    4    0    0 -0.42639327087E+02 -0.19238380485E+02 -0.24034499640E+02  0.52591678725E+02  0.00000000000E+00 0.  1.
         11    1    4    4    0    0  0.23758622190E+02  0.19663609686E+02 -0.81461708370E+02  0.87104188216E+02  0.00000000000E+00 0. -1.
         21    1    1    2  502  501  0.17887667603E+01  0.20240042087E+02  0.26600865620E+02  0.33473348233E+02  0.00000000000E+00 0. -1.
<scales pt_clust_5="13000.00000" pt_clust_6="13000.00000" pt_clust_7="13000.00000" pt_clust_8="13000.00000" pt_clust_9="20.31893"></scales>
<clustering>
<clus scale="   20.319">  1  9  2 -1</clus>
<clus scale="   79.682">  5  6 -1 -1</clus>
<clus scale="   81.991">  1  5  2 -1</clus>
<clus scale="   89.604">  7  8 -1 -1</clus>
<clus scale="   91.663">  2  5  1 -1</clus>
</clustering>
</event>
<event>
 9    2  0.2869112E-005  0.2021312E+03  0.7546771E-02  0.1183215E+00
          2   -1    0    0  502    0  0.00000000000E+00  0.00000000000E+00  0.73031301239E+03  0.73031301239E+03  0.00000000000E+00 0. -1.
         -1   -1    0    0    0  501 -0.00000000000E+00 -0.00000000000E+00 -0.25751975270E+03  0.25751975270E+03  0.00000000000E+00 0.  1.
         23    2    1    2    0    0 -0.13421166425E+03 -0.60355614926E+02  0.52139339474E+03  0.55004079857E+03  0.95069642562E+02 0.  0.
         24    2    1    2    0    0 -0.29046967127E+02 -0.16482034887E+02  0.14668385610E+03  0.17190995821E+03  0.83195530641E+02 0.  0.
        -13    1    4    4    0    0  0.61577037631E+01  0.21675283609E+02  0.98616816296E+02  0.10115834959E+03  0.00000000000E+00 0.  1.
         14    1    4    4    0    0 -0.35204670890E+02 -0.38157318495E+02  0.48067039804E+02  0.70751608623E+02  0.00000000000E+00 0. -1.
        -13    1    3    3    0    0  0.11272453427E+01 -0.36062526820E+02  0.80795896081E+02  0.88485893487E+02  0.00000000000E+00 0.  1.
         13    1    3    3    0    0 -0.13533890959E+03 -0.24293088106E+02  0.44059749866E+03  0.46155490508E+03  0.00000000000E+00 0. -1.
         21    1    1    2  502  501  0.16325863137E+03  0.76837649812E+02 -0.19528399115E+03  0.26588200832E+03  0.00000000000E+00 0.  1.
<scales pt_clust_5="13000.00000" pt_clust_6="13000.00000" pt_clust_7="13000.00000" pt_clust_8="13000.00000" pt_clust_9="178.37822"></scales>
<clustering>
<clus scale="   83.196">  5  6 -1 -1</clus>
<clus scale="   89.649">  1  5  2 -1</clus>
<clus scale="   95.070">  7  8 -1 -1</clus>
<clus scale="  178.378">  2  9  1 -1</clus>
<clus scale="   89.649">  1  5  2 -1</clus>
</clustering>
</event>
<event>
 9    2  0.2869112E-005  0.9037293E+02  0.7546771E-02  0.1311282E+00
          2   -1    0    0  502    0  0.00000000000E+00  0.00000000000E+00  0.97297850194E+02  0.97297850194E+02  0.00000000000E+00 0. -1.
         -1   -1    0    0    0  501 -0.00000000000E+00 -0.00000000000E+00 -0.13604901194E+03  0.13604901194E+03  0.00000000000E+00 0.  1.
         24    2    1    2    0    0 -0.18836634052E+02  0.18316001866E+02 -0.41120019696E+02  0.90133316860E+02  0.75781686980E+02 0.  0.
         23    2    1    2    0    0  0.32339921352E+01  0.71703365134E+01  0.36865034335E+02  0.97573846942E+02  0.89998624543E+02 0.  0.
        -11    1    3    3    0    0  0.10700880772E+02  0.40987144906E+02 -0.27404558691E+02  0.50452598881E+02  0.00000000000E+00 0.  1.
         12    1    3    3    0    0 -0.29537514824E+02 -0.22671143040E+02 -0.13715461006E+02  0.39680717979E+02  0.00000000000E+00 0. -1.
        -13    1    4    4    0    0  0.15717669638E+01  0.39897557689E+02 -0.92649375961E+01  0.40989323361E+02  0.00000000000E+00 0.  1.
         13    1    4    4    0    0  0.16622251714E+01 -0.32727221176E+02  0.46129971931E+02  0.56584523580E+02  0.00000000000E+00 0. -1.
         21    1    1    2  502  501  0.15602641917E+02 -0.25486338379E+02 -0.34496176387E+02  0.45639698334E+02  0.00000000000E+00 0. -1.
<scales pt_clust_5="13000.00000" pt_clust_6="13000.00000" pt_clust_7="13000.00000" pt_clust_8="13000.00000" pt_clust_9="29.88304"></scales>
<clustering>
<clus scale="   29.883">  2  9  1 -1</clus>
<clus scale="   75.782">  5  6 -1 -1</clus>
<clus scale="   76.226">  2  5  1 -1</clus>
<clus scale="   89.999">  7  8 -1 -1</clus>
<clus scale="   90.373">  1  5  2 -1</clus>
</clustering>
</event>
<event>
 9    2  0.2869112E-005  0.1038872E+03  0.7546771E-02  0.1276163E+00
          2   -1    0    0  502    0  0.00000000000E+00  0.00000000000E+00  0.48586490193E+02  0.48586490193E+02  0.00000000000E+00 0. -1.
         -1   -1    0    0    0  501 -0.00000000000E+00 -0.00000000000E+00 -0.78035241092E+03  0.78035241092E+03  0.00000000000E+00 0.  1.
         24    2    1    2    0    0  0.60691507521E+02  0.42851079281E+02 -0.23943387504E+03  0.26235950038E+03  0.77357952653E+02 0.  0.
         23    2    1    2    0    0 -0.56789407222E+02  0.13306074677E+02 -0.41413086464E+02  0.11216025489E+03  0.86387444982E+02 0.  0.
        -11    1    3    3    0    0  0.27337685253E+02  0.58180462446E+02 -0.19139096955E+03  0.20189803979E+03  0.00000000000E+00 0.  1.
         12    1    3    3    0    0  0.33353822268E+02 -0.15329383165E+02 -0.48042905495E+02  0.60461460589E+02  0.00000000000E+00 0. -1.
        -11    1    4    4    0    0  0.98670325517E+01 -0.17598384733E+02  0.99685014629E+01  0.22504055146E+02  0.00000000000E+00 0. -1.
         11    1    4    4    0    0 -0.66656439774E+02  0.30904459410E+02 -0.51381587927E+02  0.89656199745E+02  0.00000000000E+00 0.  1.
         21    1    1    2  502  501 -0.39021002989E+01 -0.56157153958E+02 -0.45091895922E+03  0.45441914584E+03  0.00000000000E+00 0. -1.
<scales pt_clust_5="13000.00000" pt_clust_6="13000.00000" pt_clust_7="13000.00000" pt_clust_8="13000.00000" pt_clust_9="56.29256"></scales>
<clustering>
<clus scale="   56.293">  2  9  1 -1</clus>
<clus scale="   77.358">  5  6 -1 -1</clus>
<clus scale="   86.387">  7  8 -1 -1</clus>
<clus scale="   96.509">  2  5  1 -1</clus>
<clus scale="  103.887">  1  5  2 -1</clus>
</clustering>
</event>
<event>
 9    2  0.2869112E-005  0.1011287E+03  0.7546771E-02  0.1283505E+00
         -1   -1    0    0    0  501 -0.00000000000E+00  0.00000000000E+00  0.20822384082E+03  0.20822384082E+03  0.00000000000E+00 0.  1.
          2   -1    0    0  502    0  0.00000000000E+00 -0.00000000000E+00 -0.73044233078E+03  0.73044233078E+03  0.00000000000E+00 0. -1.
         23    2    1    2    0    0 -0.63976711083E+02 -0.12027056089E+02  0.17260414541E+03  0.20568129476E+03  0.90966666214E+02 0.  0.
         24    2    1    2    0    0  0.40956741124E+02  0.15734280712E+02 -0.70256846899E+03  0.70841537401E+03  0.79529027937E+02 0.  0.
        -11    1    4    4    0    0  0.26513074385E+02  0.16891730566E+02 -0.84200871310E+02  0.89878030710E+02  0.00000000000E+00 0.  1.
         12    1    4    4    0    0  0.14443666739E+02 -0.11574498545E+01 -0.61836759768E+03  0.61853734330E+03  0.00000000000E+00 0. -1.
        -11    1    3    3    0    0 -0.29303859946E+01  0.26368868694E+02  0.11010167869E+02  0.28725044730E+02  0.00000000000E+00 0. -1.
         11    1    3    3    0    0 -0.61046325089E+02 -0.38395924782E+02  0.16159397755E+03  0.17695625003E+03  0.00000000000E+00 0.  1.
         21    1    1    2  502  501  0.23019969960E+02 -0.37072246233E+01  0.77458336122E+01  0.24569502838E+02  0.00000000000E+00 0.  1.
<scales pt_clust_5="13000.00000" pt_clust_6="13000.00000" pt_clust_7="13000.00000" pt_clust_8="13000.00000" pt_clust_9="23.31657"></scales>
<clustering>
<clus scale="   23.317">  1  9  2 -1</clus>
<clus scale="   79.529">  5  6 -1 -1</clus>
<clus scale="   90.967">  7  8 -1 -1</clus>
<clus scale="   90.978">  2  5  1 -1</clus>
<clus scale="   90.978">  2  5  1 -1</clus>
</clustering>
</event>
<event>
 9    2  0.2869112E-005  0.1228154E+03  0.7546771E-02  0.1240899E+00
         -1   -1    0    0    0  501 -0.00000000000E+00  0.00000000000E+00  0.55978022544E+02  0.55978022544E+02  0.00000000000E+00 0.  1.
          2   -1    0    0  502    0  0.00000000000E+00 -0.00000000000E+00 -0.65476479924E+03  0.65476479924E+03  0.00000000000E+00 0. -1.
         24    2    1    2    0    0 -0.46104819435E+02 -0.92705843896E+02 -0.76951860039E+02  0.15206876530E+03  0.80518896843E+02 0.  0.
         23    2    1    2    0    0  0.56672885774E+02  0.59412581531E+02 -0.50614706586E+03  0.52038262131E+03  0.88721753029E+02 0.  0.
        -13    1    3    3    0    0 -0.20990924559E+02 -0.44107478414E+01  0.11716840222E+02  0.24440907412E+02  0.00000000000E+00 0.  1.
         14    1    3    3    0    0 -0.25113894876E+02 -0.88295096055E+02 -0.88668700260E+02  0.12762785789E+03  0.00000000000E+00 0. -1.
        -13    1    4    4    0    0 -0.77465847867E+01  0.47987689986E+02 -0.13435265324E+03  0.14287569212E+03  0.00000000000E+00 0.  1.
         13    1    4    4    0    0  0.64419470561E+02  0.11424891545E+02 -0.37179441262E+03  0.37750692919E+03  0.00000000000E+00 0. -1.
         21    1    1    2  502  501 -0.10568066339E+02  0.33293262365E+02 -0.15687850803E+02  0.38291435177E+02  0.00000000000E+00 0.  1.
<scales pt_clust_5="13000.00000" pt_clust_6="13000.00000" pt_clust_7="13000.00000" pt_clust_8="13000.00000" pt_clust_9="34.93029"></scales>
<clustering>
<clus scale="   34.930">  1  9  2 -1</clus>
<clus scale="   80.519">  5  6 -1 -1</clus>
<clus scale="   88.722">  7  8 -1 -1</clus>
<clus scale="  117.027">  1  5  2 -1</clus>
<clus scale="  122.815">  2  5  1 -1</clus>
</clustering>
</event>
<event>
 9    2  0.2869112E-005  0.2464005E+03  0.7546771E-02  0.1119471E+00
         -1   -1    0    0    0  501 -0.00000000000E+00  0.00000000000E+00  0.69958560549E+02  0.69958560549E+02  0.00000000000E+00 0.  1.
          2   -1    0    0  502    0  0.00000000000E+00 -0.00000000000E+00 -0.30865679969E+04  0.30865679969E+04  0.00000000000E+00 0. -1.
         23    2    1    2    0    0  0.11591519294E+03 -0.20152564640E+03 -0.10988857014E+04  0.11269391434E+04  0.91614027316E+02 0.  0.
         24    2    1    2    0    0  0.12928793735E+03  0.16411582713E+03 -0.16482183876E+04  0.16633126512E+04  0.79597405504E+02 0.  0.
        -13    1    4    4    0    0  0.51103101300E+02  0.14755429699E+02 -0.31205332087E+03  0.31655414187E+03  0.00000000000E+00 0.  1.
         14    1    4    4    0    0  0.78184836046E+02  0.14936039744E+03 -0.13361650667E+04  0.13467585093E+04  0.00000000000E+00 0. -1.
        -11    1    3    3    0    0  0.77002426038E+01 -0.75631611521E+02 -0.22706897306E+03  0.23945720479E+03  0.00000000000E+00 0.  1.
         11    1    3    3    0    0  0.10821495034E+03 -0.12589403488E+03 -0.87181672834E+03  0.88748193858E+03  0.00000000000E+00 0. -1.
         21    1    1    2  502  501 -0.24520313029E+03  0.37409819263E+02 -0.26950534739E+03  0.36627476292E+03  0.00000000000E+00 0.  1.
<scales pt_clust_5="13000.00000" pt_clust_6="13000.00000" pt_clust_7="13000.00000" pt_clust_8="13000.00000" pt_clust_9="228.73577"></scales>
<clustering>
<clus scale="   79.597">  5  6 -1 -1</clus>
<clus scale="   91.614">  7  8 -1 -1</clus>
<clus scale="  223.574">  2  5  1 -1</clus>
<clus scale="  228.736">  1  9  2 -1</clus>
<clus scale="  223.574">  2  5  1 -1</clus>
</clustering>
</event>
<event>
 9    2  0.2869112E-005  0.9516923E+02  0.7546771E-02  0.1295085E+00
         -1   -1    0    0    0  501 -0.00000000000E+00  0.00000000000E+00  0.13718144553E+03  0.13718144553E+03  0.00000000000E+00 0.  1.
          2   -1    0    0  502    0  0.00000000000E+00 -0.00000000000E+00 -0.54564063263E+03  0.54564063263E+03  0.00000000000E+00 0. -1.
         23    2    1    2    0    0 -0.49174483883E+01 -0.47631477161E+02 -0.13023150463E+03  0.16473045103E+03  0.88785909825E+02 0.  0.
         24    2    1    2    0    0  0.14674744011E+02  0.27553574624E+02 -0.39234442338E+03  0.40181197482E+03  0.80896037981E+02 0.  0.
        -11    1    4    4    0    0 -0.27801400240E+02 -0.74269177535E+01 -0.89602562809E+02  0.94110021914E+02  0.00000000000E+00 0.  1.
         12    1    4    4    0    0  0.42476144251E+02  0.34980492377E+02 -0.30274186057E+03  0.30770195290E+03  0.00000000000E+00 0. -1.
        -13    1    3    3    0    0  0.22705537721E+02 -0.26133508448E+02 -0.53426801527E+01  0.35029215495E+02  0.00000000000E+00 0. -1.
         13    1    3    3    0    0 -0.27622986109E+02 -0.21497968713E+02 -0.12488882447E+03  0.12970123553E+03  0.00000000000E+00 0.  1.
         21    1    1    2  502  501 -0.97572956229E+01  0.20077902537E+02  0.11411674091E+03  0.11627965232E+03  0.00000000000E+00 0.  1.
<scales pt_clust_5="13000.00000" pt_clust_6="13000.00000" pt_clust_7="13000.00000" pt_clust_8="13000.00000" pt_clust_9="22.32324"></scales>
<clustering>
<clus scale="   22.323">  1  9  2 -1</clus>
<clus scale="   80.896">  5  6 -1 -1</clus>
<clus scale="   87.854">  2  5  1 -1</clus>
<clus scale="   88.786">  7  8 -1 -1</clus>
<clus scale="   87.854">  2  5  1 -1</clus>
</clustering>
</event>
<event>
 9    2  0.2869112E-005  0.1156488E+03  0.7546771E-02  0.1254405E+00
         -1   -1    0    0    0  501 -0.00000000000E+00  0.00000000000E+00  0.30510556842E+02  0.30510556842E+02  0.00000000000E+00 0.  1.
          2   -1    0    0  502    0  0.00000000000E+00 -0.00000000000E+00 -0.91298287672E+03  0.91298287672E+03  0.00000000000E+00 0. -1.
         23    2    1    2    0    0  0.29334299080E+02  0.59074879959E+02 -0.11262314323E+03  0.15954582339E+03  0.91763581149E+02 0.  0.
         24    2    1    2    0    0 -0.10178277022E+02 -0.70885064579E+02 -0.73223792732E+03  0.74011794307E+03  0.80460535389E+02 0.  0.
        -13    1    4    4    0    0  0.24253545549E+02 -0.56160534822E+02 -0.29481011185E+03  0.30109008982E+03  0.00000000000E+00 0.  1.
         14    1    4    4    0    0 -0.34431822571E+02 -0.14724529757E+02 -0.43742781547E+03  0.43902785325E+03  0.00000000000E+00 0. -1.
        -13    1    3    3    0    0  0.58839848857E+02  0.16378477521E+02 -0.58990749999E+02  0.84913431946E+02  0.00000000000E+00 0.  1.
         13    1    3    3    0    0 -0.29505549777E+02  0.42696402438E+02 -0.53632393236E+02  0.74632391446E+02  0.00000000000E+00 0. -1.
         21    1    1    2  502  501 -0.19156022058E+02  0.11810184620E+02 -0.37611249326E+02  0.43829667096E+02  0.00000000000E+00 0. -1.
<scales pt_clust_5="13000.00000" pt_clust_6="13000.00000" pt_clust_7="13000.00000" pt_clust_8="13000.00000" pt_clust_9="22.50408"></scales>
<clustering>
<clus scale="   22.504">  1  9  2 -1</clus>
<clus scale="   80.461">  5  6 -1 -1</clus>
<clus scale="   91.764">  7  8 -1 -1</clus>
<clus scale="  106.902">  2  5  1 -1</clus>
<clus scale="  106.902">  2  5  1 -1</clus>
</clustering>
</event>
<event>
 9    2  0.2869112E-005  0.9687442E+02  0.7546771E-02  0.1289066E+00
          2   -1    0    0  502    0  0.00000000000E+00  0.00000000000E+00  0.33306062231E+03  0.33306062231E+03  0.00000000000E+00 0. -1.
         -1   -1    0    0    0  501 -0.00000000000E+00 -0.00000000000E+00 -0.39783216930E+02  0.39783216930E+02  0.00000000000E+00 0.  1.
         24    2    1    2    0    0 -0.38474902825E+02 -0.13817095585E+02  0.93355111451E+02  0.13464982633E+03  0.88000958062E+02 0.  0.
         23    2    1    2    0    0  0.26233387793E+02 -0.20257516093E+01  0.19561511683E+03  0.21771469963E+03  0.91881021987E+02 0.  0.
        -13    1    3    3    0    0  0.21138184690E+01 -0.24327500394E+02 -0.74027665398E+01  0.25516591786E+02  0.00000000000E+00 0.  1.
         14    1    3    3    0    0 -0.40588721294E+02  0.10510404809E+02  0.10075787799E+03  0.10913323455E+03  0.00000000000E+00 0. -1.
        -11    1    4    4    0    0 -0.16252696463E+02  0.34584572356E+02  0.97188487058E+02  0.10443105287E+03  0.00000000000E+00 0. -1.
         11    1    4    4    0    0  0.42486084256E+02 -0.36610323965E+02  0.98426629768E+02  0.11328364676E+03  0.00000000000E+00 0.  1.
         21    1    1    2  502  501  0.12241515031E+02  0.15842847194E+02  0.43071771019E+01  0.20479313271E+02  0.00000000000E+00 0.  1.
<scales pt_clust_5="13000.00000" pt_clust_6="13000.00000" pt_clust_7="13000.00000" pt_clust_8="13000.00000" pt_clust_9="20.02125"></scales>
<clustering>
<clus scale="   20.021">  2  9  1 -1</clus>
<clus scale="   88.001">  5  6 -1 -1</clus>
<clus scale="   91.881">  7  8 -1 -1</clus>
<clus scale="   93.202">  2  5  1 -1</clus>
<clus scale="   96.874">  1  5  2 -1</clus>
</clustering>
</event>
<event>
 9    2  0.2869112E-005  0.1924617E+03  0.7546771E-02  0.1157147E+00
          2   -1    0    0  502    0  0.00000000000E+00  0.00000000000E+00  0.25155353678E+03  0.25155353678E+03  0.00000000000E+00 0. -1.
         -1   -1    0    0    0  501 -0.00000000000E+00 -0.00000000000E+00 -0.25194333630E+03  0.25194333630E+03  0.00000000000E+00 0.  1.
         23    2    1    2    0    0 -0.14952211723E+03 -0.12087036217E+03 -0.28505033571E+02  0.21409604346E+03  0.89766758290E+02 0.  0.
         24    2    1    2    0    0  0.16253226737E+03  0.32087735743E+02  0.60421910729E+02  0.19403133702E+03  0.80938196964E+02 0.  0.
        -13    1    4    4    0    0  0.11427433896E+03  0.39149934070E+02  0.76140429140E+02  0.14278902910E+03  0.00000000000E+00 0.  1.
         14    1    4    4    0    0  0.48257928410E+02 -0.70621983264E+01 -0.15718518411E+02  0.51242307917E+02  0.00000000000E+00 0. -1.
        -11    1    3    3    0    0 -0.72041953214E+02 -0.87749427829E+02 -0.54468947569E+02  0.12592406981E+03  0.00000000000E+00 0.  1.
         11    1    3    3    0    0 -0.77480164020E+02 -0.33120934337E+02  0.25963913998E+02  0.88171973654E+02  0.00000000000E+00 0. -1.
         21    1    1    2  502  501 -0.13010150133E+02  0.88782626422E+02 -0.32306676681E+02  0.95369492602E+02  0.00000000000E+00 0.  1.
<scales pt_clust_5="13000.00000" pt_clust_6="13000.00000" pt_clust_7="13000.00000" pt_clust_8="13000.00000" pt_clust_9="89.73081"></scales>
<clustering>
<clus scale="   80.938">  5  6 -1 -1</clus>
<clus scale="   89.731">  2  9  1 -1</clus>
<clus scale="   89.767">  7  8 -1 -1</clus>
<clus scale="  188.506">  1  5  2 -1</clus>
<clus scale="  188.506">  1  5  2 -1</clus>
</clustering>
</event>
<event>
 9    2  0.2869112E-005  0.9415562E+02  0.7546771E-02  0.1300032E+00
         -1   -1    0    0    0  501 -0.00000000000E+00  0.00000000000E+00  0.41987394471E+02  0.41987394471E+02  0.00000000000E+00 0.  1.
          2   -1    0    0  502    0  0.00000000000E+00 -0.00000000000E+00 -0.65075237268E+03  0.65075237268E+03  0.00000000000E+00 0. -1.
         23    2    1    2    0    0  0.26615128457E+02  0.13731338034E+02 -0.50580938635E+02  0.10933204686E+03  0.92185413219E+02 0.  0.
         24    2    1    2    0    0 -0.12685343566E+02  0.15930097662E+02 -0.53914779975E+03  0.54551025202E+03  0.80538184287E+02 0.  0.
        -13    1    4    4    0    0 -0.43953399081E+01  0.23560448102E+02 -0.42949703370E+02  0.49184253042E+02  0.00000000000E+00 0.  1.
         14    1    4    4    0    0 -0.82900036583E+01 -0.76303504405E+01 -0.49619809638E+03  0.49632599898E+03  0.00000000000E+00 0. -1.
        -11    1    3    3    0    0  0.14744509493E+02 -0.39558327317E+02 -0.19418200864E+02  0.46468573736E+02  0.00000000000E+00 0.  1.
         11    1    3    3    0    0  0.11870618964E+02  0.53289665351E+02 -0.31162737771E+02  0.62863473124E+02  0.00000000000E+00 0. -1.
         21    1    1    2  502  501 -0.13929784891E+02 -0.29661435696E+02 -0.19036239817E+02  0.37897468267E+02  0.00000000000E+00 0.  1.
<scales pt_clust_5="13000.00000" pt_clust_6="13000.00000" pt_clust_7="13000.00000" pt_clust_8="13000.00000" pt_clust_9="32.76949"></scales>
<clustering>
<clus scale="   32.769">  1  9  2 -1</clus>
<clus scale="   80.538">  5  6 -1 -1</clus>
<clus scale="   82.786">  2  5  1 -1</clus>
<clus scale="   92.185">  7  8 -1 -1</clus>
<clus scale="   82.786">  2  5  1 -1</clus>
</clustering>
</event>
<event>
 9    2  0.2869112E-005  0.9412279E+02  0.7546771E-02  0.1299607E+00
         -1   -1    0    0    0  501 -0.00000000000E+00  0.00000000000E+00  0.10601626357E+03  0.10601626357E+03  0.00000000000E+00 0.  1.
          2   -1    0    0  502    0  0.00000000000E+00 -0.00000000000E+00 -0.23772755129E+03  0.23772755129E+03  0.00000000000E+00 0. -1.
         23    2    1    2    0    0  0.23523965734E+02 -0.15762842908E+01  0.68821362774E+02  0.11658370322E+03  0.91101691793E+02 0.  0.
         24    2    1    2    0    0 -0.21867214714E+02  0.21631186907E+02 -0.17237376983E+03  0.19254990356E+03  0.80104091703E+02 0.  0.
        -11    1    4    4    0    0  0.20078073218E+02 -0.70831735694E+00 -0.12064011803E+03  0.12230154871E+03  0.00000000000E+00 0.  1.
         12    1    4    4    0    0 -0.41945287932E+02  0.22339504264E+02 -0.51733651801E+02  0.70248354850E+02  0.00000000000E+00 0. -1.
        -11    1    3    3    0    0 -0.27624664247E+02 -0.16737029934E+02  0.50942942026E+02  0.60319429606E+02  0.00000000000E+00 0.  1.
         11    1    3    3    0    0  0.51148629981E+02  0.15160745643E+02  0.17878420747E+02  0.56264273618E+02  0.00000000000E+00 0. -1.
         21    1    1    2  502  501 -0.16567510199E+01 -0.20054902616E+02 -0.28158880661E+02  0.34610208074E+02  0.00000000000E+00 0.  1.
<scales pt_clust_5="13000.00000" pt_clust_6="13000.00000" pt_clust_7="13000.00000" pt_clust_8="13000.00000" pt_clust_9="20.12322"></scales>
<clustering>
<clus scale="   20.123">  2  9  1 -1</clus>
<clus scale="   80.104">  5  6 -1 -1</clus>
<clus scale="   83.524">  2  5  1 -1</clus>
<clus scale="   91.102">  7  8 -1 -1</clus>
<clus scale="   20.123">  2  5  1 -1</clus>
</clustering>
</event>
<event>
 9    2  0.2869112E-005  0.1633574E+03  0.7546771E-02  0.1211930E+00
         -1   -1    0    0    0  501 -0.00000000000E+00  0.00000000000E+00  0.53163220915E+03  0.53163220915E+03  0.00000000000E+00 0.  1.
          2   -1    0    0  502    0  0.00000000000E+00 -0.00000000000E+00 -0.23669815944E+03  0.23669815944E+03  0.00000000000E+00 0. -1.
         23    2    1    2    0    0 -0.10308288909E+03  0.11255309706E+03  0.38560132972E+03  0.42452386737E+03  0.90762584824E+02 0.  0.
         24    2    1    2    0    0  0.26351306723E+02 -0.30550572605E+02 -0.17914558580E+03  0.20083601356E+03  0.81327944631E+02 0.  0.
        -11    1    4    4    0    0  0.12308436958E+02 -0.53441241357E+02 -0.72755228650E+02  0.91108655978E+02  0.00000000000E+00 0.  1.
         12    1    4    4    0    0  0.14042869764E+02  0.22890668752E+02 -0.10639035715E+03  0.10972735758E+03  0.00000000000E+00 0. -1.
        -13    1    3    3    0    0 -0.94473713113E+02  0.86202711578E+02  0.37253768572E+03  0.39387881034E+03  0.00000000000E+00 0.  1.
         13    1    3    3    0    0 -0.86091759780E+01  0.26350385478E+02  0.13063644003E+02  0.30645057032E+02  0.00000000000E+00 0. -1.
         21    1    1    2  502  501  0.76731582368E+02 -0.82002524451E+02  0.88478305785E+02  0.14297048767E+03  0.00000000000E+00 0. -1.
<scales pt_clust_5="13000.00000" pt_clust_6="13000.00000" pt_clust_7="13000.00000" pt_clust_8="13000.00000" pt_clust_9="135.82266"></scales>
<clustering>
<clus scale="   81.328">  5  6 -1 -1</clus>
<clus scale="   90.763">  7  8 -1 -1</clus>
<clus scale="   90.785">  2  5  1 -1</clus>
<clus scale="  135.823">  2  9  1 -1</clus>
<clus scale="   90.785">  2  5  1 -1</clus>
</clustering>
</event>
<event>
 9    2  0.2869112E-005  0.9783477E+02  0.7546771E-02  0.1288935E+00
         -1   -1    0    0    0  501 -0.00000000000E+00  0.00000000000E+00  0.93361347628E+02  0.93361347628E+02  0.00000000000E+00 0.  1.
          2   -1    0    0  502    0  0.00000000000E+00 -0.00000000000E+00 -0.29237615779E+03  0.29237615779E+03  0.00000000000E+00 0. -1.
         23    2    1    2    0    0  0.25535972880E+02 -0.31249543059E+02  0.49202054758E+02  0.10909301203E+03  0.88610514211E+02 0.  0.
         24    2    1    2    0    0 -0.46915107239E+02  0.25712683071E+02 -0.22312678898E+03  0.24321941126E+03  0.80671858143E+02 0.  0.
        -11    1    4    4    0    0 -0.40289009721E+02 -0.14849999590E+02 -0.17374136005E+03  0.17896867599E+03  0.00000000000E+00 0.  1.
         12    1    4    4    0    0 -0.66260975178E+01  0.40562682660E+02 -0.49385428930E+02  0.64250735276E+02  0.00000000000E+00 0. -1.
        -11    1    3    3    0    0  0.19967259758E+02  0.10867104571E+02 -0.18402710404E+02  0.29247994363E+02  0.00000000000E+00 0. -1.
         11    1    3    3    0    0  0.55687131223E+01 -0.42116647630E+02  0.67604765163E+02  0.79845017667E+02  0.00000000000E+00 0.  1.
         21    1    1    2  502  501  0.21379134358E+02  0.55368599882E+01 -0.25090075935E+02  0.33425082122E+02  0.00000000000E+00 0. -1.
<scales pt_clust_5="13000.00000" pt_clust_6="13000.00000" pt_clust_7="13000.00000" pt_clust_8="13000.00000" pt_clust_9="22.08448"></scales>
<clustering>
<clus scale="   22.084">  2  9  1 -1</clus>
<clus scale="   80.672">  5  6 -1 -1</clus>
<clus scale="   88.611">  7  8 -1 -1</clus>
<clus scale="   90.707">  2  5  1 -1</clus>
<clus scale="   22.084">  2  5  1 -1</clus>
</clustering>
</event>
<event>
 9    2  0.2869112E-005  0.9574146E+02  0.7546771E-02  0.1296387E+00
          2   -1    0    0  502    0  0.00000000000E+00  0.00000000000E+00  0.86562389658E+03  0.86562389658E+03  0.00000000000E+00 0. -1.
         -1   -1    0    0    0  501 -0.00000000000E+00 -0.00000000000E+00 -0.21643633293E+02  0.21643633293E+02  0.00000000000E+00 0.  1.
         23    2    1    2    0    0 -0.14845785486E+00 -0.33722261870E+02  0.15874809268E+03  0.18663291825E+03  0.92161142888E+02 0.  0.
         24    2    1    2    0    0  0.21776004235E+02  0.15455259911E+02  0.64987021321E+03  0.65533668503E+03  0.80136242171E+02 0.  0.
        -13    1    4    4    0    0  0.48256088410E+01  0.29458628921E+02  0.85917826292E+02  0.90955869483E+02  0.00000000000E+00 0.  1.
         14    1    4    4    0    0  0.16950395394E+02 -0.14003369010E+02  0.56395238692E+03  0.56438081555E+03  0.00000000000E+00 0. -1.
        -11    1    3    3    0    0  0.17640614908E+01 -0.64762616764E+02  0.12466107597E+03  0.14049089759E+03  0.00000000000E+00 0.  1.
         11    1    3    3    0    0 -0.19125193456E+01  0.31040354895E+02  0.34087016710E+02  0.46142020658E+02  0.00000000000E+00 0. -1.
         21    1    1    2  502  501 -0.21627546381E+02  0.18267001959E+02  0.35361957399E+02  0.45297926598E+02  0.00000000000E+00 0. -1.
<scales pt_clust_5="13000.00000" pt_clust_6="13000.00000" pt_clust_7="13000.00000" pt_clust_8="13000.00000" pt_clust_9="28.30961"></scales>
<clustering>
<clus scale="   28.310">  2  9  1 -1</clus>
<clus scale="   80.136">  5  6 -1 -1</clus>
<clus scale="   84.229">  1  5  2 -1</clus>
<clus scale="   92.161">  7  8 -1 -1</clus>
<clus scale="   84.229">  1  5  2 -1</clus>
</clustering>
</event>
<event>
 9    2  0.2869112E-005  0.9739339E+02  0.7546771E-02  0.1293268E+00
          2   -1    0    0  502    0  0.00000000000E+00  0.00000000000E+00  0.85356725352E+03  0.85356725352E+03  0.00000000000E+00 0. -1.
         -1   -1    0    0    0  501 -0.00000000000E+00 -0.00000000000E+00 -0.78871992468E+02  0.78871992468E+02  0.00000000000E+00 0.  1.
         23    2    1    2    0    0 -0.84671218962E+01  0.25581355921E+02 -0.35554372219E+02  0.10329464305E+03  0.93164220470E+02 0.  0.
         24    2    1    2    0    0 -0.11171983650E+02 -0.65682189130E+02  0.72942460540E+03  0.73680578975E+03  0.79897144185E+02 0.  0.
        -11    1    4    4    0    0  0.77047730360E+01 -0.65064835456E+02  0.30485198312E+03  0.31181329021E+03  0.00000000000E+00 0.  1.
         12    1    4    4    0    0 -0.18876756686E+02 -0.61735367443E+00  0.42457262228E+03  0.42499249954E+03  0.00000000000E+00 0. -1.
        -13    1    3    3    0    0 -0.43065326095E+02 -0.11402131338E+02 -0.26537195756E+02  0.51854157686E+02  0.00000000000E+00 0. -1.
         13    1    3    3    0    0  0.34598204199E+02  0.36983487259E+02 -0.90171764634E+01  0.51440485369E+02  0.00000000000E+00 0.  1.
         21    1    1    2  502  501  0.19639105546E+02  0.40100833210E+02  0.80825027867E+02  0.92338813185E+02  0.00000000000E+00 0.  1.
<scales pt_clust_5="13000.00000" pt_clust_6="13000.00000" pt_clust_7="13000.00000" pt_clust_8="13000.00000" pt_clust_9="44.65167"></scales>
<clustering>
<clus scale="   44.652">  1  9  2 -1</clus>
<clus scale="   79.897">  5  6 -1 -1</clus>
<clus scale="   84.791">  1  5  2 -1</clus>
<clus scale="   93.164">  7  8 -1 -1</clus>
<clus scale="   44.652">  1  5  2 -1</clus>
</clustering>
</event>
<event>
 9    2  0.2869112E-005  0.1492401E+03  0.7546771E-02  0.1201881E+00
          2   -1    0    0  502    0  0.00000000000E+00  0.00000000000E+00  0.11317491408E+03  0.11317491408E+03  0.00000000000E+00 0. -1.
         -1   -1    0    0    0  501 -0.00000000000E+00 -0.00000000000E+00 -0.12124467813E+04  0.12124467813E+04  0.00000000000E+00 0.  1.
         24    2    1    2    0    0 -0.26402722812E+02  0.18078742428E+03 -0.96716993047E+03  0.98794917462E+03  0.85115807484E+02 0.  0.
         23    2    1    2    0    0  0.17267755478E+01 -0.11727740159E+03  0.40624032579E+02  0.15199353477E+03  0.87719735030E+02 0.  0.
        -11    1    3    3    0    0 -0.12613926427E+02  0.18146325008E+03 -0.80997023910E+03  0.83014445159E+03  0.00000000000E+00 0.  1.
         12    1    3    3    0    0 -0.13788796386E+02 -0.67582580136E+00 -0.15719969136E+03  0.15780472303E+03  0.00000000000E+00 0. -1.
        -13    1    4    4    0    0  0.11859010390E+02 -0.31774767812E+02  0.55083030813E+02  0.64687033326E+02  0.00000000000E+00 0.  1.
         13    1    4    4    0    0 -0.10132234842E+02 -0.85502633775E+02 -0.14458998234E+02  0.87306501449E+02  0.00000000000E+00 0. -1.
         21    1    1    2  502  501  0.24675947264E+02 -0.63510022697E+02 -0.17272596929E+03  0.18567898595E+03  0.00000000000E+00 0. -1.
<scales pt_clust_5="13000.00000" pt_clust_6="13000.00000" pt_clust_7="13000.00000" pt_clust_8="13000.00000" pt_clust_9="68.13535"></scales>
<clustering>
<clus scale="   68.135">  2  9  1 -1</clus>
<clus scale="   85.116">  5  6 -1 -1</clus>
<clus scale="   87.720">  7  8 -1 -1</clus>
<clus scale="  147.725">  2  5  1 -1</clus>
<clus scale="  149.240">  1  5  2 -1</clus>
</clustering>
</event>
<event>
 9    2  0.2869112E-005  0.3470244E+03  0.7546771E-02  0.1105112E+00
          2   -1    0    0  502    0  0.00000000000E+00  0.00000000000E+00  0.17952993739E+04  0.17952993739E+04  0.00000000000E+00 0. -1.
         -1   -1    0    0    0  501 -0.00000000000E+00 -0.00000000000E+00 -0.12236861736E+03  0.12236861736E+03  0.00000000000E+00 0.  1.
         24    2    1    2    0    0  0.14349338926E+01  0.74535865542E+02  0.60345245870E+02  0.13004664866E+03  0.87823276195E+02 0.  0.
         23    2    1    2    0    0  0.26737364881E+03  0.18157178102E+03  0.11306542891E+04  0.11792572385E+04  0.88382880031E+02 0.  0.
        -11    1    3    3    0    0  0.60434950802E+01  0.94292009457E+02  0.45261431180E+02  0.10476690333E+03  0.00000000000E+00 0.  1.
         12    1    3    3    0    0 -0.46085611877E+01 -0.19756143915E+02  0.15083814690E+02  0.25279745335E+02  0.00000000000E+00 0. -1.
        -11    1    4    4    0    0  0.99989521662E+02  0.97996362935E+02  0.61435771053E+03  0.63010839391E+03  0.00000000000E+00 0. -1.
         11    1    4    4    0    0  0.16738412714E+03  0.83575418084E+02  0.51629657854E+03  0.54914884462E+03  0.00000000000E+00 0.  1.
         21    1    1    2  502  501 -0.26880858270E+03 -0.25610764656E+03  0.48193122158E+03  0.60836410405E+03  0.00000000000E+00 0.  1.
<scales pt_clust_5="13000.00000" pt_clust_6="13000.00000" pt_clust_7="13000.00000" pt_clust_8="13000.00000" pt_clust_9="335.58073"></scales>
<clustering>
<clus scale="   87.823">  5  6 -1 -1</clus>
<clus scale="   88.383">  7  8 -1 -1</clus>
<clus scale="  115.198">  2  5  1 -1</clus>
<clus scale="  335.581">  2  9  1 -1</clus>
<clus scale="  347.024">  1  5  2 -1</clus>
</clustering>
</event>
<event>
 9    2  0.2869112E-005  0.1001645E+03  0.7546771E-02  0.1287110E+00
         -1   -1    0    0    0  501 -0.00000000000E+00  0.00000000000E+00  0.62370160155E+02  0.62370160155E+02  0.00000000000E+00 0.  1.
          2   -1    0    0  502    0  0.00000000000E+00 -0.00000000000E+00 -0.36414671419E+03  0.36414671419E+03  0.00000000000E+00 0. -1.
         23    2    1    2    0    0  0.13091656795E+01  0.54004069340E+02 -0.12698860879E+02  0.10933312888E+03  0.94203601752E+02 0.  0.
         24    2    1    2    0    0 -0.32726334456E+01 -0.31180512903E+02 -0.27912053880E+03  0.29220545776E+03  0.80578035761E+02 0.  0.
        -11    1    4    4    0    0  0.25850178968E+01  0.22283219935E+02 -0.30659481113E+02  0.37989840620E+02  0.00000000000E+00 0.  1.
         12    1    4    4    0    0 -0.58576513424E+01 -0.53463732839E+02 -0.24846105769E+03  0.25421561714E+03  0.00000000000E+00 0. -1.
        -13    1    3    3    0    0  0.24235610520E+02  0.63777063625E+02  0.17247198104E+02  0.70372896092E+02  0.00000000000E+00 0.  1.
         13    1    3    3    0    0 -0.22926444841E+02 -0.97729942853E+01 -0.29946058982E+02  0.38960232788E+02  0.00000000000E+00 0. -1.
         21    1    1    2  502  501  0.19634677661E+01 -0.22823556437E+02 -0.99571543585E+01  0.24978287711E+02  0.00000000000E+00 0.  1.
<scales pt_clust_5="13000.00000" pt_clust_6="13000.00000" pt_clust_7="13000.00000" pt_clust_8="13000.00000" pt_clust_9="22.90786"></scales>
<clustering>
<clus scale="   22.908">  1  9  2 -1</clus>
<clus scale="   80.578">  5  6 -1 -1</clus>
<clus scale="   87.472">  2  5  1 -1</clus>
<clus scale="   94.204">  7  8 -1 -1</clus>
<clus scale="   87.472">  2  5  1 -1</clus>
</clustering>
</event>
<event>
 9    2  0.2869112E-005  0.9215776E+02  0.7546771E-02  0.1309570E+00
          2   -1    0    0  502    0  0.00000000000E+00  0.00000000000E+00  0.35390244641E+03  0.35390244641E+03  0.00000000000E+00 0. -1.
         -1   -1    0    0    0  501 -0.00000000000E+00 -0.00000000000E+00 -0.26795290639E+03  0.26795290639E+03  0.00000000000E+00 0.  1.
         23    2    1    2    0    0  0.63235369650E+01  0.42273222469E+01 -0.24117418877E+03  0.25791493084E+03  0.91089323447E+02 0.  0.
         24    2    1    2    0    0  0.14302215085E+02  0.86335641589E+00  0.33358060253E+03  0.34173619094E+03  0.72816942185E+02 0.  0.
        -11    1    4    4    0    0  0.51419109720E+01  0.36750020441E+02  0.17425762442E+03  0.17816487566E+03  0.00000000000E+00 0.  1.
         12    1    4    4    0    0  0.91603041128E+01 -0.35886664025E+02  0.15932297811E+03  0.16357131527E+03  0.00000000000E+00 0. -1.
        -11    1    3    3    0    0 -0.34718192871E+02 -0.16860271794E+02 -0.15954475127E+03  0.16414673113E+03  0.00000000000E+00 0.  1.
         11    1    3    3    0    0  0.41041729836E+02  0.21087594041E+02 -0.81629437498E+02  0.93768199709E+02  0.00000000000E+00 0. -1.
         21    1    1    2  502  501 -0.20625752050E+02 -0.50906786628E+01 -0.64568737467E+01  0.22204231026E+02  0.00000000000E+00 0.  1.
<scales pt_clust_5="13000.00000" pt_clust_6="13000.00000" pt_clust_7="13000.00000" pt_clust_8="13000.00000" pt_clust_9="21.24469"></scales>
<clustering>
<clus scale="   21.245">  2  9  1 -1</clus>
<clus scale="   72.817">  5  6 -1 -1</clus>
<clus scale="   74.149">  1  5  2 -1</clus>
<clus scale="   91.089">  7  8 -1 -1</clus>
<clus scale="   74.149">  1  5  2 -1</clus>
</clustering>
</event>
<event>
 9    2  0.2869112E-005  0.1407307E+03  0.7546771E-02  0.1215605E+00
          2   -1    0    0  502    0  0.00000000000E+00  0.00000000000E+00  0.28041736643E+03  0.28041736643E+03  0.00000000000E+00 0. -1.
         -1   -1    0    0    0  501 -0.00000000000E+00 -0.00000000000E+00 -0.11062721294E+03  0.11062721294E+03  0.00000000000E+00 0.  1.
         24    2    1    2    0    0  0.13475842991E+02 -0.90831865073E+02 -0.25940273353E+02  0.11909824472E+03  0.71270386948E+02 0.  0.
         23    2    1    2    0    0 -0.15945507832E+02  0.11526715204E+03  0.19967275766E+03  0.24707216199E+03  0.87376584485E+02 0.  0.
        -11    1    3    3    0    0  0.16677580533E+02 -0.85017977956E+02 -0.45912675955E+02  0.98051884640E+02  0.00000000000E+00 0.  1.
         12    1    3    3    0    0 -0.32017375424E+01 -0.58138871168E+01  0.19972402602E+02  0.21046360075E+02  0.00000000000E+00 0. -1.
        -11    1    4    4    0    0 -0.26620601302E+02  0.80346853209E+02  0.62753591679E+02  0.10536738823E+03  0.00000000000E+00 0.  1.
         11    1    4    4    0    0  0.10675093471E+02  0.34920298834E+02  0.13691916598E+03  0.14170477375E+03  0.00000000000E+00 0. -1.
         21    1    1    2  502  501  0.24696648404E+01 -0.24435286970E+02 -0.39423308169E+01  0.24874172670E+02  0.00000000000E+00 0.  1.
<scales pt_clust_5="13000.00000" pt_clust_6="13000.00000" pt_clust_7="13000.00000" pt_clust_8="13000.00000" pt_clust_9="24.55977"></scales>
<clustering>
<clus scale="   24.560">  2  9  1 -1</clus>
<clus scale="   71.270">  5  6 -1 -1</clus>
<clus scale="   87.377">  7  8 -1 -1</clus>
<clus scale="  131.339">  2  5  1 -1</clus>
<clus scale="  140.731">  1  5  2 -1</clus>
</clustering>
</event>
<event>
 9    2  0.2869112E-005  0.1261958E+03  0.7546771E-02  0.1236618E+00
          2   -1    0    0  502    0  0.00000000000E+00  0.00000000000E+00  0.90502842321E+03  0.90502842321E+03  0.00000000000E+00 0. -1.
         -1   -1    0    0    0  501 -0.00000000000E+00 -0.00000000000E+00 -0.40132110204E+02  0.40132110204E+02  0.00000000000E+00 0.  1.
         23    2    1    2    0    0  0.35862954188E+02 -0.58444502805E+02  0.18667733589E+03  0.21797023529E+03  0.89222667208E+02 0.  0.
         24    2    1    2    0    0 -0.41212436475E+02  0.87408865924E+02  0.68577076865E+03  0.69678337710E+03  0.76725176427E+02 0.  0.
        -13    1    4    4    0    0  0.56222743247E+00  0.77773291435E+02  0.36762800073E+03  0.37576501684E+03  0.00000000000E+00 0.  1.
         14    1    4    4    0    0 -0.41774663907E+02  0.96355744886E+01  0.31814276792E+03  0.32101836025E+03  0.00000000000E+00 0. -1.
        -13    1    3    3    0    0  0.52654709949E+02 -0.10597904660E+01  0.83547437257E+02  0.98761409001E+02  0.00000000000E+00 0.  1.
         13    1    3    3    0    0 -0.16791755761E+02 -0.57384712339E+02  0.10312989864E+03  0.11920882629E+03  0.00000000000E+00 0. -1.
         21    1    1    2  502  501  0.53494822871E+01 -0.28964363119E+02 -0.75517915323E+01  0.30406921037E+02  0.00000000000E+00 0.  1.
<scales pt_clust_5="13000.00000" pt_clust_6="13000.00000" pt_clust_7="13000.00000" pt_clust_8="13000.00000" pt_clust_9="29.45422"></scales>
<clustering>
<clus scale="   29.454">  2  9  1 -1</clus>
<clus scale="   76.725">  5  6 -1 -1</clus>
<clus scale="   89.223">  7  8 -1 -1</clus>
<clus scale="  117.692">  1  5  2 -1</clus>
<clus scale="  117.692">  1  5  2 -1</clus>
</clustering>
</event>
<event>
 9    2  0.2869112E-005  0.1275053E+03  0.7546771E-02  0.1245023E+00
          2   -1    0    0  502    0  0.00000000000E+00  0.00000000000E+00  0.19269503982E+03  0.19269503982E+03  0.00000000000E+00 0. -1.
         -1   -1    0    0    0  501 -0.00000000000E+00 -0.00000000000E+00 -0.16066482695E+03  0.16066482695E+03  0.00000000000E+00 0.  1.
         24    2    1    2    0    0  0.40095747363E+02 -0.34908524489E+02 -0.14070632331E+02  0.97242720192E+02  0.80199064193E+02 0.  0.
         23    2    1    2    0    0  0.68332136156E+02  0.51205757512E+02  0.72482544656E+02  0.14334215026E+03  0.89453576376E+02 0.  0.
        -13    1    3    3    0    0 -0.15128844162E+02 -0.16829174429E+02 -0.29443270592E+02  0.37135013408E+02  0.00000000000E+00 0.  1.
         14    1    3    3    0    0  0.55224591525E+02 -0.18079350060E+02  0.15372638261E+02  0.60107706784E+02  0.00000000000E+00 0. -1.
        -13    1    4    4    0    0  0.56821934146E+02  0.69331024117E+02  0.80442492419E+02  0.12044300599E+03  0.00000000000E+00 0.  1.
         13    1    4    4    0    0  0.11510202010E+02 -0.18125266604E+02 -0.79599477631E+01  0.22899144267E+02  0.00000000000E+00 0. -1.
         21    1    1    2  502  501 -0.10842788352E+03 -0.16297233023E+02 -0.26381699454E+02  0.11277499632E+03  0.00000000000E+00 0. -1.
<scales pt_clust_5="13000.00000" pt_clust_6="13000.00000" pt_clust_7="13000.00000" pt_clust_8="13000.00000" pt_clust_9="90.86072"></scales>
<clustering>
<clus scale="   80.199">  5  6 -1 -1</clus>
<clus scale="   89.454">  7  8 -1 -1</clus>
<clus scale="   96.219">  2  5  1 -1</clus>
<clus scale="   90.861">  2  9  1 -1</clus>
<clus scale="  127.505">  1  5  2 -1</clus>
</clustering>
</event>
<event>
 9    2  0.2869112E-005  0.1254973E+03  0.7546771E-02  0.1238023E+00
          2   -1    0    0  502    0  0.00000000000E+00  0.00000000000E+00  0.24327120647E+03  0.24327120647E+03  0.00000000000E+00 0. -1.
         -1   -1    0    0    0  501 -0.00000000000E+00 -0.00000000000E+00 -0.90217999779E+02  0.90217999779E+02  0.00000000000E+00 0.  1.
         24    2    1    2    0    0 -0.46266143270E+02 -0.51465087504E+02 -0.19490149353E+01  0.10514092370E+03  0.79130297190E+02 0.  0.
         23    2    1    2    0    0  0.77149748465E+02  0.52709156897E+02  0.14568105783E+03  0.19606471284E+03  0.92130679472E+02 0.  0.
        -11    1    3    3    0    0 -0.11947799147E+02 -0.65270895710E+02 -0.10482229158E+02  0.67178246921E+02  0.00000000000E+00 0.  1.
         12    1    3    3    0    0 -0.34318344124E+02  0.13805808206E+02  0.85332142226E+01  0.37962676784E+02  0.00000000000E+00 0. -1.
        -11    1    4    4    0    0  0.20989364566E+02 -0.26172563522E+02  0.28245195621E+02  0.43855986842E+02  0.00000000000E+00 0.  1.
         11    1    4    4    0    0  0.56160383899E+02  0.78881720419E+02  0.11743586221E+03  0.15220872599E+03  0.00000000000E+00 0. -1.
         21    1    1    2  502  501 -0.30883605195E+02 -0.12440693924E+01  0.93211637937E+01  0.32283569706E+02  0.00000000000E+00 0.  1.
<scales pt_clust_5="13000.00000" pt_clust_6="13000.00000" pt_clust_7="13000.00000" pt_clust_8="13000.00000" pt_clust_9="30.90865"></scales>
<clustering>
<clus scale="   30.909">  2  9  1 -1</clus>
<clus scale="   79.130">  5  6 -1 -1</clus>
<clus scale="   92.131">  7  8 -1 -1</clus>
<clus scale="  116.289">  2  5  1 -1</clus>
<clus scale="  125.497">  1  5  2 -1</clus>
</clustering>
</event>
<event>
 9    2  0.2869112E-005  0.1040051E+03  0.7546771E-02  0.1278141E+00
         -3   -1    0    0    0  501 -0.00000000000E+00  0.00000000000E+00  0.27857457550E+02  0.27857457550E+02  0.00000000000E+00 0.  1.
          4   -1    0    0  502    0  0.00000000000E+00 -0.00000000000E+00 -0.58116983677E+03  0.58116983677E+03  0.00000000000E+00 0. -1.
         23    2    1    2    0    0  0.29561965621E+02  0.40513771644E+02 -0.17460136938E+03  0.20421228538E+03  0.93283137845E+02 0.  0.
         24    2    1    2    0    0 -0.40382261167E+02 -0.21526849768E+02 -0.36983649830E+03  0.38122817038E+03  0.80385011941E+02 0.  0.
        -11    1    4    4    0    0 -0.50656624972E+02 -0.40198159343E+02 -0.20339928294E+03  0.21343208280E+03  0.00000000000E+00 0.  1.
         12    1    4    4    0    0  0.10274363805E+02  0.18671309575E+02 -0.16643721536E+03  0.16779608758E+03  0.00000000000E+00 0. -1.
        -13    1    3    3    0    0  0.29507684565E+02 -0.21395860509E+02 -0.31053864305E+02  0.47883491764E+02  0.00000000000E+00 0. -1.
         13    1    3    3    0    0  0.54281056626E-01  0.61909632152E+02 -0.14354750508E+03  0.15632879362E+03  0.00000000000E+00 0.  1.
         21    1    1    2  502  501  0.10820295546E+02 -0.18986921876E+02 -0.88745115440E+01  0.23586838558E+02  0.00000000000E+00 0.  1.
<scales pt_clust_5="13000.00000" pt_clust_6="13000.00000" pt_clust_7="13000.00000" pt_clust_8="13000.00000" pt_clust_9="21.85365"></scales>
<clustering>
<clus scale="   21.854">  1  9  2 -1</clus>
<clus scale="   80.385">  5  6 -1 -1</clus>
<clus scale="   92.612">  2  5  1 -1</clus>
<clus scale="   93.283">  7  8 -1 -1</clus>
<clus scale="   92.612">  2  5  1 -1</clus>
</clustering>
</event>
<event>
 9    2  0.2869112E-005  0.1160704E+03  0.7546771E-02  0.1253073E+00
          2   -1    0    0  502    0  0.00000000000E+00  0.00000000000E+00  0.27596314030E+03  0.27596314030E+03  0.00000000000E+00 0. -1.
         -1   -1    0    0    0  501 -0.00000000000E+00 -0.00000000000E+00 -0.11597827383E+03  0.11597827383E+03  0.00000000000E+00 0.  1.
         24    2    1    2    0    0 -0.45708753421E+01  0.57089516644E+02  0.50689214682E+02  0.11099237878E+03  0.80435103339E+02 0.  0.
         23    2    1    2    0    0  0.55671502617E+01 -0.82892394519E+02  0.17306542327E+03  0.21214958169E+03  0.90297630364E+02 0.  0.
        -13    1    3    3    0    0 -0.42276088399E+02  0.24258584876E+02  0.24494266462E+02  0.54550120806E+02  0.00000000000E+00 0.  1.
         14    1    3    3    0    0  0.37705213057E+02  0.32830931768E+02  0.26194948220E+02  0.56442257969E+02  0.00000000000E+00 0. -1.
        -13    1    4    4    0    0 -0.28331951854E+02 -0.49710266475E+02  0.14761728920E+03  0.15831826856E+03  0.00000000000E+00 0.  1.
         13    1    4    4    0    0  0.33899102116E+02 -0.33182128044E+02  0.25448134065E+02  0.53831313129E+02  0.00000000000E+00 0. -1.
         21    1    1    2  502  501 -0.99627491961E+00  0.25802877875E+02 -0.63769771475E+02  0.68799453663E+02  0.00000000000E+00 0.  1.
<scales pt_clust_5="13000.00000" pt_clust_6="13000.00000" pt_clust_7="13000.00000" pt_clust_8="13000.00000" pt_clust_9="25.82210"></scales>
<clustering>
<clus scale="   25.822">  2  9  1 -1</clus>
<clus scale="   80.435">  5  6 -1 -1</clus>
<clus scale="   90.298">  7  8 -1 -1</clus>
<clus scale="  108.575">  2  5  1 -1</clus>
<clus scale="  116.070">  1  5  2 -1</clus>
</clustering>
</event>
<event>
 9    2  0.2869112E-005  0.9533339E+02  0.7546771E-02  0.1296920E+00
         -1   -1    0    0    0  501 -0.00000000000E+00  0.00000000000E+00  0.55298170571E+03  0.55298170571E+03  0.00000000000E+00 0.  1.
          2   -1    0    0  502    0  0.00000000000E+00 -0.00000000000E+00 -0.40697102089E+02  0.40697102089E+02  0.00000000000E+00 0. -1.
         23    2    1    2    0    0  0.15706076105E+02  0.20313870583E+02  0.32286580802E+03  0.33669572413E+03  0.91991013103E+02 0.  0.
         24    2    1    2    0    0  0.91644357496E+01 -0.25064288296E+02  0.22170474945E+02  0.87828983543E+02  0.80685779172E+02 0.  0.
        -11    1    4    4    0    0 -0.14589726994E+02  0.25322359955E+02  0.61354128267E+01  0.29861770510E+02  0.00000000000E+00 0.  1.
         12    1    4    4    0    0  0.23754162744E+02 -0.50386648251E+02  0.16035062118E+02  0.57967213033E+02  0.00000000000E+00 0. -1.
        -13    1    3    3    0    0  0.21788915434E+01  0.46952479717E+02  0.28300242554E+03  0.28687916582E+03  0.00000000000E+00 0.  1.
         13    1    3    3    0    0  0.13527184562E+02 -0.26638609134E+02  0.39863382479E+02  0.49816558306E+02  0.00000000000E+00 0. -1.
         21    1    1    2  502  501 -0.24870511855E+02  0.47504177132E+01  0.16724832066E+03  0.16915410013E+03  0.00000000000E+00 0. -1.
<scales pt_clust_5="13000.00000" pt_clust_6="13000.00000" pt_clust_7="13000.00000" pt_clust_8="13000.00000" pt_clust_9="25.32013"></scales>
<clustering>
<clus scale="   25.320">  1  9  2 -1</clus>
<clus scale="   80.686">  5  6 -1 -1</clus>
<clus scale="   84.477">  2  5  1 -1</clus>
<clus scale="   91.991">  7  8 -1 -1</clus>
<clus scale="   84.477">  2  5  1 -1</clus>
</clustering>
</event>
<event>
 9    2  0.2869112E-005  0.1323427E+03  0.7546771E-02  0.1227127E+00
         -1   -1    0    0    0  501 -0.00000000000E+00  0.00000000000E+00  0.16130167448E+03  0.16130167448E+03  0.00000000000E+00 0.  1.
          2   -1    0    0  502    0  0.00000000000E+00 -0.00000000000E+00 -0.16112829122E+03  0.16112829122E+03  0.00000000000E+00 0. -1.
         23    2    1    2    0    0  0.65860323579E+02  0.65711633320E+02  0.61699660875E+02  0.14654730716E+03  0.94940318662E+02 0.  0.
         24    2    1    2    0    0 -0.79226982332E+02 -0.47912358504E+02 -0.79226481597E+02  0.14744361898E+03  0.83007689790E+02 0.  0.
        -11    1    4    4    0    0 -0.19999159091E+02 -0.13092282684E+02  0.16910088726E+02  0.29280118355E+02  0.00000000000E+00 0.  1.
         12    1    4    4    0    0 -0.59227823242E+02 -0.34820075821E+02 -0.96136570323E+02  0.11816350062E+03  0.00000000000E+00 0. -1.
        -13    1    3    3    0    0  0.31855013310E+01  0.45636624423E+02 -0.12442984466E+02  0.47409669582E+02  0.00000000000E+00 0. -1.
         13    1    3    3    0    0  0.62674822248E+02  0.20075008897E+02  0.74142645341E+02  0.99137637576E+02  0.00000000000E+00 0.  1.
         21    1    1    2  502  501  0.13366658753E+02 -0.17799274815E+02  0.17700203987E+02  0.28439039565E+02  0.00000000000E+00 0.  1.
<scales pt_clust_5="13000.00000" pt_clust_6="13000.00000" pt_clust_7="13000.00000" pt_clust_8="13000.00000" pt_clust_9="22.25942"></scales>
<clustering>
<clus scale="   22.259">  1  9  2 -1</clus>
<clus scale="   83.008">  5  6 -1 -1</clus>
<clus scale="   94.940">  7  8 -1 -1</clus>
<clus scale="  124.061">  2  5  1 -1</clus>
<clus scale="  124.061">  2  5  1 -1</clus>
</clustering>
</event>
<event>
 9    2  0.2869112E-005  0.1068200E+03  0.7546771E-02  0.1269834E+00
          4   -1    0    0  502    0  0.00000000000E+00  0.00000000000E+00  0.45665346897E+02  0.45665346897E+02  0.00000000000E+00 0. -1.
         -3   -1    0    0    0  501 -0.00000000000E+00 -0.00000000000E+00 -0.39887911265E+03  0.39887911265E+03  0.00000000000E+00 0.  1.
         23    2    1    2    0    0  0.41639247078E+02 -0.13448055356E+02 -0.14507700031E+03  0.17581184338E+03  0.89150385092E+02 0.  0.
         24    2    1    2    0    0 -0.59839968108E+02  0.32934619322E+02 -0.67871324450E+02  0.12595521475E+03  0.81195372442E+02 0.  0.
        -13    1    4    4    0    0 -0.20520753871E+02  0.74983583565E+01 -0.75420423852E+02  0.78521124874E+02  0.00000000000E+00 0.  1.
         14    1    4    4    0    0 -0.39319214237E+02  0.25436260966E+02  0.75490994024E+01  0.47434089871E+02  0.00000000000E+00 0. -1.
        -13    1    3    3    0    0  0.35499331814E+02  0.29982210850E+02 -0.37750535703E+02  0.59868509857E+02  0.00000000000E+00 0.  1.
         13    1    3    3    0    0  0.61399152639E+01 -0.43430266206E+02 -0.10732646461E+03  0.11594333352E+03  0.00000000000E+00 0. -1.
         21    1    1    2  502  501  0.18200721030E+02 -0.19486563966E+02 -0.14026544099E+03  0.14277740143E+03  0.00000000000E+00 0.  1.
<scales pt_clust_5="13000.00000" pt_clust_6="13000.00000" pt_clust_7="13000.00000" pt_clust_8="13000.00000" pt_clust_9="26.66444"></scales>
<clustering>
<clus scale="   26.664">  2  9  1 -1</clus>
<clus scale="   81.195">  5  6 -1 -1</clus>
<clus scale="   89.150">  7  8 -1 -1</clus>
<clus scale="  100.277">  1  5  2 -1</clus>
<clus scale="  100.277">  1  5  2 -1</clus>
</clustering>
</event>
<event>
 9    2  0.2869112E-005  0.1044431E+03  0.7546771E-02  0.1279700E+00
         -1   -1    0    0    0  501 -0.00000000000E+00  0.00000000000E+00  0.18460386264E+02  0.18460386264E+02  0.00000000000E+00 0.  1.
          2   -1    0    0  502    0  0.00000000000E+00 -0.00000000000E+00 -0.14753827714E+04  0.14753827714E+04  0.00000000000E+00 0. -1.
         23    2    1    2    0    0  0.14984357849E+02  0.91891179178E+01 -0.15946589078E+03  0.18856315037E+03  0.99084410915E+02 0.  0.
         24    2    1    2    0    0 -0.18353306602E+02 -0.29702785666E+02 -0.12531220057E+04  0.12563136182E+04  0.82401739449E+02 0.  0.
        -11    1    4    4    0    0  0.18004273415E+02  0.91904106064E+01 -0.10327565591E+03  0.10523534868E+03  0.00000000000E+00 0.  1.
         12    1    4    4    0    0 -0.36357580017E+02 -0.38893196272E+02 -0.11498463498E+04  0.11510782695E+04  0.00000000000E+00 0. -1.
        -11    1    3    3    0    0 -0.37444073977E+02  0.25336196400E+02 -0.82039332216E+02  0.93671946464E+02  0.00000000000E+00 0. -1.
         11    1    3    3    0    0  0.52428431826E+02 -0.16147078482E+02 -0.77426558565E+02  0.94891203905E+02  0.00000000000E+00 0.  1.
         21    1    1    2  502  501  0.33689487528E+01  0.20513667748E+02 -0.44334488611E+02  0.48966389090E+02  0.00000000000E+00 0. -1.
<scales pt_clust_5="13000.00000" pt_clust_6="13000.00000" pt_clust_7="13000.00000" pt_clust_8="13000.00000" pt_clust_9="20.78847"></scales>
<clustering>
<clus scale="   20.788">  1  9  2 -1</clus>
<clus scale="   82.402">  5  6 -1 -1</clus>
<clus scale="   88.773">  2  5  1 -1</clus>
<clus scale="   99.084">  7  8 -1 -1</clus>
<clus scale="   88.773">  2  5  1 -1</clus>
</clustering>
</event>
<event>
 9    2  0.2869112E-005  0.9714623E+02  0.7546771E-02  0.1293846E+00
         -1   -1    0    0    0  501 -0.00000000000E+00  0.00000000000E+00  0.44814583526E+03  0.44814583526E+03  0.00000000000E+00 0.  1.
          2   -1    0    0  502    0  0.00000000000E+00 -0.00000000000E+00 -0.24747187672E+03  0.24747187672E+03  0.00000000000E+00 0. -1.
         23    2    1    2    0    0  0.22052517715E+02  0.15375440956E+02  0.15020688778E+03  0.17914045886E+03  0.93842832125E+02 0.  0.
         24    2    1    2    0    0  0.12283589230E+02 -0.23052012961E+02 -0.22412468197E+03  0.23964060695E+03  0.80706044154E+02 0.  0.
        -13    1    4    4    0    0 -0.14595767079E+02 -0.37755376163E+02 -0.58086365840E+02  0.70799228402E+02  0.00000000000E+00 0.  1.
         14    1    4    4    0    0  0.26879356309E+02  0.14703363202E+02 -0.16603831613E+03  0.16884137854E+03  0.00000000000E+00 0. -1.
        -11    1    3    3    0    0  0.30785707264E+02  0.49475380816E+02  0.11719337367E+03  0.13088109073E+03  0.00000000000E+00 0.  1.
         11    1    3    3    0    0 -0.87331895497E+01 -0.34099939860E+02  0.33013514106E+02  0.48259368124E+02  0.00000000000E+00 0. -1.
         21    1    1    2  502  501 -0.34336106944E+02  0.76765720053E+01  0.27459175274E+03  0.27683664618E+03  0.00000000000E+00 0.  1.
<scales pt_clust_5="13000.00000" pt_clust_6="13000.00000" pt_clust_7="13000.00000" pt_clust_8="13000.00000" pt_clust_9="35.18377"></scales>
<clustering>
<clus scale="   35.184">  1  9  2 -1</clus>
<clus scale="   80.706">  5  6 -1 -1</clus>
<clus scale="   84.524">  2  5  1 -1</clus>
<clus scale="   93.843">  7  8 -1 -1</clus>
<clus scale="   84.524">  2  5  1 -1</clus>
</clustering>
</event>
<event>
 9    2  0.2869112E-005  0.9585798E+02  0.7546771E-02  0.1294792E+00
          2   -1    0    0  502    0  0.00000000000E+00  0.00000000000E+00  0.84686528761E+02  0.84686528761E+02  0.00000000000E+00 0. -1.
         -1   -1    0    0    0  501 -0.00000000000E+00 -0.00000000000E+00 -0.27326138743E+03  0.27326138743E+03  0.00000000000E+00 0.  1.
         23    2    1    2    0    0 -0.20811602768E+02 -0.17004732683E+01 -0.17436025748E+03  0.19747434772E+03  0.90324992122E+02 0.  0.
         24    2    1    2    0    0  0.28064566350E+02 -0.19836295792E+02  0.44150025332E+02  0.97840769301E+02  0.80265141160E+02 0.  0.
        -11    1    4    4    0    0  0.49296969044E+02  0.10032709636E+02  0.29892160228E+02  0.58518267769E+02  0.00000000000E+00 0.  1.
         12    1    4    4    0    0 -0.21232402694E+02 -0.29869005428E+02  0.14257865103E+02  0.39322501532E+02  0.00000000000E+00 0. -1.
        -13    1    3    3    0    0  0.24077894489E+02 -0.19428371772E+02 -0.22848176819E+02  0.38460964843E+02  0.00000000000E+00 0. -1.
         13    1    3    3    0    0 -0.44889497257E+02  0.17727898504E+02 -0.15151208066E+03  0.15901338288E+03  0.00000000000E+00 0.  1.
         21    1    1    2  502  501 -0.72529635825E+01  0.21536769060E+02 -0.58364626522E+02  0.62632799166E+02  0.00000000000E+00 0.  1.
<scales pt_clust_5="13000.00000" pt_clust_6="13000.00000" pt_clust_7="13000.00000" pt_clust_8="13000.00000" pt_clust_9="22.72527"></scales>
<clustering>
<clus scale="   22.725">  2  9  1 -1</clus>
<clus scale="   80.265">  5  6 -1 -1</clus>
<clus scale="   86.444">  1  5  2 -1</clus>
<clus scale="   90.325">  7  8 -1 -1</clus>
<clus scale="   86.444">  1  5  2 -1</clus>
</clustering>
</event>
<event>
 9    2  0.2869112E-005  0.7760556E+02  0.7546771E-02  0.1337375E+00
         -1   -1    0    0    0  501 -0.00000000000E+00  0.00000000000E+00  0.91054467387E+02  0.91054467387E+02  0.00000000000E+00 0.  1.
          2   -1    0    0  502    0  0.00000000000E+00 -0.00000000000E+00 -0.37174295888E+03  0.37174295888E+03  0.00000000000E+00 0. -1.
         23    2    1    2    0    0  0.11361211347E+02  0.31170759850E+02 -0.33922804464E+01  0.80776969211E+02  0.73571175031E+02 0.  0.
         24    2    1    2    0    0 -0.17511725869E+02  0.11164951798E+02 -0.31525413760E+03  0.32482827666E+03  0.75477952755E+02 0.  0.
        -13    1    4    4    0    0  0.20782325594E+02 -0.12128852722E+02 -0.46449075409E+02  0.52311860336E+02  0.00000000000E+00 0.  1.
         14    1    4    4    0    0 -0.38294051462E+02  0.23293804520E+02 -0.26880506219E+03  0.27251641633E+03  0.00000000000E+00 0. -1.
        -13    1    3    3    0    0 -0.21116502820E+02  0.43956586613E+01  0.22652732087E+02  0.31278982999E+02  0.00000000000E+00 0. -1.
         13    1    3    3    0    0  0.32477714167E+02  0.26775101189E+02 -0.26045012534E+02  0.49497986213E+02  0.00000000000E+00 0.  1.
         21    1    1    2  502  501  0.61505145214E+01 -0.42335711648E+02  0.37957926557E+02  0.57192180393E+02  0.00000000000E+00 0.  1.
<scales pt_clust_5="13000.00000" pt_clust_6="13000.00000" pt_clust_7="13000.00000" pt_clust_8="13000.00000" pt_clust_9="42.78015"></scales>
<clustering>
<clus scale="   42.780">  1  9  2 -1</clus>
<clus scale="   73.571">  7  8 -1 -1</clus>
<clus scale="   75.478">  5  6 -1 -1</clus>
<clus scale="   75.752">  1  7  2 -1</clus>
<clus scale="   77.606">  2  5  1 -1</clus>
</clustering>
</event>
<event>
 9    2  0.2869112E-005  0.1069236E+03  0.7546771E-02  0.1271710E+00
         -1   -1    0    0    0  501 -0.00000000000E+00  0.00000000000E+00  0.20739993585E+02  0.20739993585E+02  0.00000000000E+00 0.  1.
          2   -1    0    0  502    0  0.00000000000E+00 -0.00000000000E+00 -0.77412250354E+03  0.77412250354E+03  0.00000000000E+00 0. -1.
         24    2    1    2    0    0 -0.44288147142E+02  0.27359194799E+02 -0.16667288624E+03  0.19213289414E+03  0.80157547907E+02 0.  0.
         23    2    1    2    0    0  0.55513338531E+02 -0.59400904372E+01 -0.53275747903E+03  0.54360586097E+03  0.92519107168E+02 0.  0.
        -13    1    3    3    0    0 -0.36960841928E+02  0.12834374938E+02 -0.18871955694E+02  0.43439333878E+02  0.00000000000E+00 0.  1.
         14    1    3    3    0    0 -0.73273052145E+01  0.14524819861E+02 -0.14780093055E+03  0.14869356026E+03  0.00000000000E+00 0. -1.
        -11    1    4    4    0    0 -0.21986120480E+02 -0.19418123758E+02 -0.13658771396E+03  0.13970202801E+03  0.00000000000E+00 0.  1.
         11    1    4    4    0    0  0.77499459011E+02  0.13478033321E+02 -0.39616976507E+03  0.40390383296E+03  0.00000000000E+00 0. -1.
         21    1    1    2  502  501 -0.11225191388E+02 -0.21419104362E+02 -0.53952144687E+02  0.59123742013E+02  0.00000000000E+00 0.  1.
<scales pt_clust_5="13000.00000" pt_clust_6="13000.00000" pt_clust_7="13000.00000" pt_clust_8="13000.00000" pt_clust_9="24.18229"></scales>
<clustering>
<clus scale="   24.182">  1  9  2 -1</clus>
<clus scale="   80.158">  5  6 -1 -1</clus>
<clus scale="   92.519">  7  8 -1 -1</clus>
<clus scale="   96.427">  1  5  2 -1</clus>
<clus scale="  106.924">  2  5  1 -1</clus>
</clustering>
</event>
<event>
 9    2  0.2869112E-005  0.1119695E+03  0.7546771E-02  0.1260380E+00
          2   -1    0    0  502    0  0.00000000000E+00  0.00000000000E+00  0.36411301860E+03  0.36411301860E+03  0.00000000000E+00 0. -1.
         -1   -1    0    0    0  501 -0.00000000000E+00 -0.00000000000E+00 -0.36593946919E+03  0.36593946919E+03  0.00000000000E+00 0.  1.
         23    2    1    2    0    0 -0.21273686152E+02 -0.19056636147E+02 -0.32822111702E+03  0.34164037358E+03  0.90406405162E+02 0.  0.
         24    2    1    2    0    0  0.35127804348E+02  0.57055073169E+02  0.33134097522E+03  0.34766553425E+03  0.81211069647E+02 0.  0.
        -11    1    4    4    0    0 -0.16633111659E+01  0.42663976330E+02  0.61027217683E+02  0.74480217364E+02  0.00000000000E+00 0.  1.
         12    1    4    4    0    0  0.36791115514E+02  0.14391096839E+02  0.27031375754E+03  0.27318531689E+03  0.00000000000E+00 0. -1.
        -11    1    3    3    0    0 -0.23626649209E+02 -0.51178659978E+02 -0.26208666037E+03  0.26808000920E+03  0.00000000000E+00 0.  1.
         11    1    3    3    0    0  0.23529630574E+01  0.32122023832E+02 -0.66134456656E+02  0.73560364378E+02  0.00000000000E+00 0. -1.
         21    1    1    2  502  501 -0.13854118196E+02 -0.37998437022E+02 -0.49463087872E+01  0.40746579951E+02  0.00000000000E+00 0.  1.
<scales pt_clust_5="13000.00000" pt_clust_6="13000.00000" pt_clust_7="13000.00000" pt_clust_8="13000.00000" pt_clust_9="40.44524"></scales>
<clustering>
<clus scale="   40.445">  2  9  1 -1</clus>
<clus scale="   81.211">  5  6 -1 -1</clus>
<clus scale="   90.406">  7  8 -1 -1</clus>
<clus scale="  104.686">  1  5  2 -1</clus>
<clus scale="  104.686">  1  5  2 -1</clus>
</clustering>
</event>
<event>
 9    2  0.2869112E-005  0.9682966E+02  0.7546771E-02  0.1293621E+00
          2   -1    0    0  502    0  0.00000000000E+00  0.00000000000E+00  0.55955486654E+03  0.55955486654E+03  0.00000000000E+00 0. -1.
         -1   -1    0    0    0  501 -0.00000000000E+00 -0.00000000000E+00 -0.37444815478E+03  0.37444815478E+03  0.00000000000E+00 0.  1.
         23    2    1    2    0    0 -0.19332558156E+02  0.22404679693E+02 -0.32744703034E+03  0.34120233151E+03  0.91223658516E+02 0.  0.
         24    2    1    2    0    0  0.32574251054E+02 -0.10896811828E+01  0.54504307631E+03  0.55174915598E+03  0.79327844140E+02 0.  0.
        -11    1    4    4    0    0  0.21428850829E+02  0.24879032096E+02  0.89546774286E+02  0.95377076234E+02  0.00000000000E+00 0.  1.
         12    1    4    4    0    0  0.11145400225E+02 -0.25968713278E+02  0.45549630202E+03  0.45637207975E+03  0.00000000000E+00 0. -1.
        -13    1    3    3    0    0  0.29700983703E+02  0.32589750612E+02 -0.18588022586E+03  0.19103847425E+03  0.00000000000E+00 0.  1.
         13    1    3    3    0    0 -0.49033541860E+02 -0.10185070919E+02 -0.14156680448E+03  0.15016385726E+03  0.00000000000E+00 0. -1.
         21    1    1    2  502  501 -0.13241692897E+02 -0.21314998510E+02 -0.32489334210E+02  0.41051533829E+02  0.00000000000E+00 0. -1.
<scales pt_clust_5="13000.00000" pt_clust_6="13000.00000" pt_clust_7="13000.00000" pt_clust_8="13000.00000" pt_clust_9="25.09326"></scales>
<clustering>
<clus scale="   25.093">  2  9  1 -1</clus>
<clus scale="   79.328">  5  6 -1 -1</clus>
<clus scale="   85.715">  1  5  2 -1</clus>
<clus scale="   91.224">  7  8 -1 -1</clus>
<clus scale="   85.715">  1  5  2 -1</clus>
</clustering>
</event>
<event>
 9    2  0.2869112E-005  0.1021768E+03  0.7546771E-02  0.1279134E+00
          4   -1    0    0  502    0  0.00000000000E+00  0.00000000000E+00  0.69517731904E+02  0.69517731904E+02  0.00000000000E+00 0. -1.
         -3   -1    0    0    0  501 -0.00000000000E+00 -0.00000000000E+00 -0.18838151926E+03  0.18838151926E+03  0.00000000000E+00 0.  1.
         23    2    1    2    0    0  0.18067887235E+02  0.48829561084E+02 -0.45139089552E+02  0.11259621119E+03  0.89048272207E+02 0.  0.
         24    2    1    2    0    0  0.25620324364E+01 -0.50276961034E+02 -0.36408008804E+02  0.10263895871E+03  0.81699913828E+02 0.  0.
        -13    1    4    4    0    0  0.13307016571E+02 -0.19436092089E+02 -0.58597721101E+02  0.63154819958E+02  0.00000000000E+00 0.  1.
         14    1    4    4    0    0 -0.10744984135E+02 -0.30840868944E+02  0.22189712297E+02  0.39484138754E+02  0.00000000000E+00 0. -1.
        -13    1    3    3    0    0 -0.22598245990E+02  0.23634509946E+02 -0.54778481437E+02  0.63796181788E+02  0.00000000000E+00 0.  1.
         13    1    3    3    0    0  0.40666133225E+02  0.25195051138E+02  0.96393918847E+01  0.48800029398E+02  0.00000000000E+00 0. -1.
         21    1    1    2  502  501 -0.20629919671E+02  0.14473999493E+01 -0.37316689002E+02  0.42664081266E+02  0.00000000000E+00 0.  1.
<scales pt_clust_5="13000.00000" pt_clust_6="13000.00000" pt_clust_7="13000.00000" pt_clust_8="13000.00000" pt_clust_9="20.68063"></scales>
<clustering>
<clus scale="   20.681">  2  9  1 -1</clus>
<clus scale="   81.700">  5  6 -1 -1</clus>
<clus scale="   89.048">  7  8 -1 -1</clus>
<clus scale="   95.840">  1  5  2 -1</clus>
<clus scale="   95.840">  1  5  2 -1</clus>
</clustering>
</event>
<event>
 9    2  0.2869112E-005  0.2862861E+03  0.7546771E-02  0.1092802E+00
         -1   -1    0    0    0  501 -0.00000000000E+00  0.00000000000E+00  0.41975492502E+03  0.41975492502E+03  0.00000000000E+00 0.  1.
          2   -1    0    0  502    0  0.00000000000E+00 -0.00000000000E+00 -0.41433174098E+03  0.41433174098E+03  0.00000000000E+00 0. -1.
         23    2    1    2    0    0  0.13834785030E+03  0.23492454573E+03  0.28495526817E+03  0.40488109712E+03  0.91648939329E+02 0.  0.
         24    2    1    2    0    0 -0.10239954471E+03 -0.24487186326E+03 -0.27713162364E+03  0.39182921257E+03  0.79248336442E+02 0.  0.
        -13    1    4    4    0    0  0.31059203742E+01 -0.70944539550E+02 -0.96281064826E+02  0.11963618966E+03  0.00000000000E+00 0.  1.
         14    1    4    4    0    0 -0.10550546508E+03 -0.17392732370E+03 -0.18085055882E+03  0.27219302290E+03  0.00000000000E+00 0. -1.
        -11    1    3    3    0    0  0.77598251270E+02  0.10509402235E+03  0.19804459425E+03  0.23725071854E+03  0.00000000000E+00 0.  1.
         11    1    3    3    0    0  0.60749599034E+02  0.12983052338E+03  0.86910673914E+02  0.16763037859E+03  0.00000000000E+00 0. -1.
         21    1    1    2  502  501 -0.35948305594E+02  0.99473175203E+01 -0.24004604836E+01  0.37376356316E+02  0.00000000000E+00 0. -1.
<scales pt_clust_5="13000.00000" pt_clust_6="13000.00000" pt_clust_7="13000.00000" pt_clust_8="13000.00000" pt_clust_9="37.29919"></scales>
<clustering>
<clus scale="   37.299">  2  9  1 -1</clus>
<clus scale="   79.248">  5  6 -1 -1</clus>
<clus scale="   91.649">  7  8 -1 -1</clus>
<clus scale="  282.561">  2  5  1 -1</clus>
<clus scale="   37.299">  2  5  1 -1</clus>
</clustering>
</event>
<event>
 9    2  0.2869112E-005  0.1089698E+03  0.7546771E-02  0.1266330E+00
          2   -1    0    0  502    0  0.00000000000E+00  0.00000000000E+00  0.16511313693E+04  0.16511313693E+04  0.00000000000E+00 0. -1.
         -1   -1    0    0    0  501 -0.00000000000E+00 -0.00000000000E+00 -0.20486343627E+02  0.20486343627E+02  0.00000000000E+00 0.  1.
         23    2    1    2    0    0 -0.18244128592E+02 -0.35310132033E+02  0.23102263393E+03  0.25205435980E+03  0.92629850760E+02 0.  0.
         24    2    1    2    0    0  0.52221823419E+02  0.32665493494E+02  0.13714301240E+04  0.13753334784E+04  0.83231234864E+02 0.  0.
        -11    1    4    4    0    0  0.19926371192E+02 -0.73532856477E+01  0.76814632488E+02  0.79697044129E+02  0.00000000000E+00 0.  1.
         12    1    4    4    0    0  0.32295452227E+02  0.40018779142E+02  0.12946154915E+04  0.12956364342E+04  0.00000000000E+00 0. -1.
        -11    1    3    3    0    0 -0.51963945361E+02 -0.44559400252E+00  0.10932201869E+03  0.12104442962E+03  0.00000000000E+00 0.  1.
         11    1    3    3    0    0  0.33719816769E+02 -0.34864538031E+02  0.12170061524E+03  0.13100993017E+03  0.00000000000E+00 0. -1.
         21    1    1    2  502  501 -0.33977694827E+02  0.26446385394E+01  0.28192267730E+02  0.44229874728E+02  0.00000000000E+00 0.  1.
<scales pt_clust_5="13000.00000" pt_clust_6="13000.00000" pt_clust_7="13000.00000" pt_clust_8="13000.00000" pt_clust_9="34.08046"></scales>
<clustering>
<clus scale="   34.080">  2  9  1 -1</clus>
<clus scale="   83.231">  5  6 -1 -1</clus>
<clus scale="   92.630">  7  8 -1 -1</clus>
<clus scale="  101.102">  1  5  2 -1</clus>
<clus scale="  101.102">  1  5  2 -1</clus>
</clustering>
</event>
<event>
 9    2  0.2869112E-005  0.1089221E+03  0.7546771E-02  0.1266979E+00
          2   -1    0    0  502    0  0.00000000000E+00  0.00000000000E+00  0.42590970717E+03  0.42590970717E+03  0.00000000000E+00 0. -1.
         -1   -1    0    0    0  501 -0.00000000000E+00 -0.00000000000E+00 -0.62934659348E+02  0.62934659348E+02  0.00000000000E+00 0.  1.
         23    2    1    2    0    0  0.33788485587E+02 -0.50727981071E+02  0.14694339620E+02  0.11146654877E+03  0.92162237692E+02 0.  0.
         24    2    1    2    0    0 -0.57939998976E+02  0.13497535804E+02  0.24888884318E+03  0.26852863545E+03  0.81380248491E+02 0.  0.
        -11    1    4    4    0    0  0.20854686187E+02 -0.49270744878E-01  0.50975450605E+02  0.55076464374E+02  0.00000000000E+00 0.  1.
         12    1    4    4    0    0 -0.78794685163E+02  0.13546806549E+02  0.19791339257E+03  0.21345217108E+03  0.00000000000E+00 0. -1.
        -13    1    3    3    0    0 -0.29965408515E+02 -0.12196669270E+02 -0.84919659938E+01  0.33448436962E+02  0.00000000000E+00 0. -1.
         13    1    3    3    0    0  0.63753894103E+02 -0.38531311801E+02  0.23186305614E+02  0.78018111810E+02  0.00000000000E+00 0.  1.
         21    1    1    2  502  501  0.24151513388E+02  0.37230445266E+02  0.99391865025E+02  0.10884918230E+03  0.00000000000E+00 0.  1.
<scales pt_clust_5="13000.00000" pt_clust_6="13000.00000" pt_clust_7="13000.00000" pt_clust_8="13000.00000" pt_clust_9="44.37794"></scales>
<clustering>
<clus scale="   44.378">  1  9  2 -1</clus>
<clus scale="   81.380">  5  6 -1 -1</clus>
<clus scale="   92.162">  7  8 -1 -1</clus>
<clus scale="   99.964">  1  5  2 -1</clus>
<clus scale="   44.378">  1  5  2 -1</clus>
</clustering>
</event>
<event>
 9    2  0.2869112E-005  0.1753535E+03  0.7546771E-02  0.1173592E+00
          2   -1    0    0  502    0  0.00000000000E+00  0.00000000000E+00  0.21172462850E+04  0.21172462850E+04  0.00000000000E+00 0. -1.
         -1   -1    0    0    0  501 -0.00000000000E+00 -0.00000000000E+00 -0.19880966522E+03  0.19880966522E+03  0.00000000000E+00 0.  1.
         23    2    1    2    0    0  0.43472472557E+02  0.10125789396E+03 -0.90413709314E+02  0.16916955540E+03  0.91108082426E+02 0.  0.
         24    2    1    2    0    0 -0.14625223848E+03 -0.41705056766E+02  0.20202026684E+04  0.20275587102E+04  0.81525904273E+02 0.  0.
        -13    1    4    4    0    0 -0.50661493504E+02 -0.12998674097E+02  0.30479939056E+03  0.30925429817E+03  0.00000000000E+00 0.  1.
         14    1    4    4    0    0 -0.95590744981E+02 -0.28706382669E+02  0.17154032778E+04  0.17183044121E+04  0.00000000000E+00 0. -1.
        -11    1    3    3    0    0 -0.24967428417E+02  0.47048960528E+02 -0.19602998285E+02  0.56756098442E+02  0.00000000000E+00 0.  1.
         11    1    3    3    0    0  0.68439900975E+02  0.54208933435E+02 -0.70810711029E+02  0.11241345696E+03  0.00000000000E+00 0. -1.
         21    1    1    2  502  501  0.10277976593E+03 -0.59552837197E+02 -0.11352339284E+02  0.11932768459E+03  0.00000000000E+00 0.  1.
<scales pt_clust_5="13000.00000" pt_clust_6="13000.00000" pt_clust_7="13000.00000" pt_clust_8="13000.00000" pt_clust_9="118.78645"></scales>
<clustering>
<clus scale="   81.526">  5  6 -1 -1</clus>
<clus scale="   91.108">  7  8 -1 -1</clus>
<clus scale="  118.786">  2  9  1 -1</clus>
<clus scale="  170.572">  1  5  2 -1</clus>
<clus scale="  170.572">  1  5  2 -1</clus>
</clustering>
</event>
<event>
 9    2  0.2869112E-005  0.1013243E+03  0.7546771E-02  0.1279762E+00
         -1   -1    0    0    0  501 -0.00000000000E+00  0.00000000000E+00  0.16615806424E+03  0.16615806424E+03  0.00000000000E+00 0.  1.
          2   -1    0    0  502    0  0.00000000000E+00 -0.00000000000E+00 -0.55445808225E+03  0.55445808225E+03  0.00000000000E+00 0. -1.
         23    2    1    2    0    0  0.37179647890E+02 -0.11372701156E+02  0.24885207498E+02  0.98707085607E+02  0.87247639784E+02 0.  0.
         24    2    1    2    0    0 -0.35981330700E+02 -0.40496216548E+02 -0.50603841151E+03  0.51554395975E+03  0.82317074725E+02 0.  0.
        -11    1    4    4    0    0 -0.19443402997E+01  0.24311205225E+02 -0.97844328644E+02  0.10083812675E+03  0.00000000000E+00 0.  1.
         12    1    4    4    0    0 -0.34036990400E+02 -0.64807421773E+02 -0.40819408287E+03  0.41470583300E+03  0.00000000000E+00 0. -1.
        -13    1    3    3    0    0  0.70208515106E+00 -0.45492263930E+02  0.13796239290E+02  0.47543403534E+02  0.00000000000E+00 0. -1.
         13    1    3    3    0    0  0.36477562739E+02  0.34119562774E+02  0.11088968209E+02  0.51163682072E+02  0.00000000000E+00 0.  1.
         21    1    1    2  502  501 -0.11983171903E+01  0.51868917704E+02  0.92853186001E+02  0.10636510113E+03  0.00000000000E+00 0.  1.
<scales pt_clust_5="13000.00000" pt_clust_6="13000.00000" pt_clust_7="13000.00000" pt_clust_8="13000.00000" pt_clust_9="51.88276"></scales>
<clustering>
<clus scale="   51.883">  1  9  2 -1</clus>
<clus scale="   82.317">  5  6 -1 -1</clus>
<clus scale="   87.248">  7  8 -1 -1</clus>
<clus scale="   97.111">  2  5  1 -1</clus>
<clus scale="   97.111">  2  5  1 -1</clus>
</clustering>
</event>
<event>
 9    2  0.2869112E-005  0.1265874E+03  0.7546771E-02  0.1235488E+00
         -1   -1    0    0    0  501 -0.00000000000E+00  0.00000000000E+00  0.16312580934E+03  0.16312580934E+03  0.00000000000E+00 0.  1.
          2   -1    0    0  502    0  0.00000000000E+00 -0.00000000000E+00 -0.12911179076E+03  0.12911179076E+03  0.00000000000E+00 0. -1.
         24    2    1    2    0    0 -0.83312173628E+02  0.16155680872E+02  0.99740927247E+01  0.11809004035E+03  0.81509820294E+02 0.  0.
         23    2    1    2    0    0  0.82194016753E+02 -0.37532937454E+02 -0.14937301495E+02  0.12967890084E+03  0.91809131159E+02 0.  0.
        -11    1    3    3    0    0 -0.53003409843E+02  0.15550839371E+02  0.45373726999E+02  0.71484020326E+02  0.00000000000E+00 0.  1.
         12    1    3    3    0    0 -0.30308763785E+02  0.60484150055E+00 -0.35399634274E+02  0.46606020021E+02  0.00000000000E+00 0. -1.
        -13    1    4    4    0    0  0.97698743391E+02 -0.14405709298E+02 -0.15096038723E+01  0.98766633153E+02  0.00000000000E+00 0.  1.
         13    1    4    4    0    0 -0.15504726638E+02 -0.23127228156E+02 -0.13427697622E+02  0.30912267690E+02  0.00000000000E+00 0. -1.
         21    1    1    2  502  501  0.11181568746E+01  0.21377256582E+02  0.38977227353E+02  0.44468658917E+02  0.00000000000E+00 0. -1.
<scales pt_clust_5="13000.00000" pt_clust_6="13000.00000" pt_clust_7="13000.00000" pt_clust_8="13000.00000" pt_clust_9="21.40648"></scales>
<clustering>
<clus scale="   21.406">  1  9  2 -1</clus>
<clus scale="   81.510">  5  6 -1 -1</clus>
<clus scale="   91.809">  7  8 -1 -1</clus>
<clus scale="  119.329">  1  5  2 -1</clus>
<clus scale="  126.587">  2  5  1 -1</clus>
</clustering>
</event>
<event>
 9    2  0.2869112E-005  0.1026438E+03  0.7546771E-02  0.1280139E+00
         -1   -1    0    0    0  501 -0.00000000000E+00  0.00000000000E+00  0.15603774861E+03  0.15603774861E+03  0.00000000000E+00 0.  1.
          2   -1    0    0  502    0  0.00000000000E+00 -0.00000000000E+00 -0.12377475622E+03  0.12377475622E+03  0.00000000000E+00 0. -1.
         23    2    1    2    0    0  0.25720892620E+02 -0.40220310171E+02  0.93077824095E+02  0.13836662549E+03  0.90568228662E+02 0.  0.
         24    2    1    2    0    0 -0.51367539731E+02  0.24269800395E+02 -0.48148203161E+02  0.10869511220E+03  0.79175315596E+02 0.  0.
        -11    1    4    4    0    0 -0.73836671635E+01 -0.27555691525E+02 -0.21337493824E+02  0.35624757106E+02  0.00000000000E+00 0.  1.
         12    1    4    4    0    0 -0.43983872567E+02  0.51825491919E+02 -0.26810709337E+02  0.73070355096E+02  0.00000000000E+00 0. -1.
        -11    1    3    3    0    0  0.30901859016E+02 -0.63639065516E+02  0.42861168382E+02  0.82715991836E+02  0.00000000000E+00 0.  1.
         11    1    3    3    0    0 -0.51809663964E+01  0.23418755345E+02  0.50216655713E+02  0.55650633650E+02  0.00000000000E+00 0. -1.
         21    1    1    2  502  501  0.25646647111E+02  0.15950509776E+02 -0.12666628544E+02  0.32750767149E+02  0.00000000000E+00 0. -1.
<scales pt_clust_5="13000.00000" pt_clust_6="13000.00000" pt_clust_7="13000.00000" pt_clust_8="13000.00000" pt_clust_9="30.20214"></scales>
<clustering>
<clus scale="   30.202">  2  9  1 -1</clus>
<clus scale="   79.175">  5  6 -1 -1</clus>
<clus scale="   90.568">  7  8 -1 -1</clus>
<clus scale="   92.746">  2  5  1 -1</clus>
<clus scale="   30.202">  2  5  1 -1</clus>
</clustering>
</event>
<event>
 9    2  0.2869112E-005  0.9046878E+02  0.7546771E-02  0.1302382E+00
          4   -1    0    0  502    0  0.00000000000E+00  0.00000000000E+00  0.36917064593E+03  0.36917064593E+03  0.00000000000E+00 0. -1.
         -3   -1    0    0    0  501 -0.00000000000E+00 -0.00000000000E+00 -0.33374514317E+03  0.33374514317E+03  0.00000000000E+00 0.  1.
         23    2    1    2    0    0 -0.92374964960E+01  0.17612393608E+02 -0.22285478521E+03  0.24040382336E+03  0.87944387210E+02 0.  0.
         24    2    1    2    0    0 -0.12876898644E+02 -0.17244575701E+02  0.35355990268E+03  0.36469894646E+03  0.86818931439E+02 0.  0.
        -11    1    4    4    0    0  0.11411260974E+02 -0.17275274673E+02  0.15741620675E+02  0.26008664201E+02  0.00000000000E+00 0.  1.
         12    1    4    4    0    0 -0.24288159618E+02  0.30698971886E-01  0.33781828200E+03  0.33869028226E+03  0.00000000000E+00 0. -1.
        -11    1    3    3    0    0 -0.26665582273E+00  0.50152381634E+02 -0.87020456364E+02  0.10043850016E+03  0.00000000000E+00 0.  1.
         11    1    3    3    0    0 -0.89708406732E+01 -0.32539988026E+02 -0.13583432885E+03  0.13996532320E+03  0.00000000000E+00 0. -1.
         21    1    1    2  502  501  0.22114395140E+02 -0.36781790662E+00 -0.95279614705E+02  0.97813019280E+02  0.00000000000E+00 0. -1.
<scales pt_clust_5="13000.00000" pt_clust_6="13000.00000" pt_clust_7="13000.00000" pt_clust_8="13000.00000" pt_clust_9="22.11745"></scales>
<clustering>
<clus scale="   22.117">  2  9  1 -1</clus>
<clus scale="   86.819">  5  6 -1 -1</clus>
<clus scale="   87.944">  7  8 -1 -1</clus>
<clus scale="   89.375">  1  5  2 -1</clus>
<clus scale="   89.375">  1  5  2 -1</clus>
</clustering>
</event>
<event>
 9    2  0.2869112E-005  0.1242320E+03  0.7546771E-02  0.1238766E+00
          2   -1    0    0  502    0  0.00000000000E+00  0.00000000000E+00  0.84693459497E+03  0.84693459497E+03  0.00000000000E+00 0. -1.
         -1   -1    0    0    0  501 -0.00000000000E+00 -0.00000000000E+00 -0.16049339807E+03  0.16049339807E+03  0.00000000000E+00 0.  1.
         23    2    1    2    0    0 -0.23960296425E+02 -0.49477151080E+02 -0.10689687802E+03  0.14950987082E+03  0.88905425360E+02 0.  0.
         24    2    1    2    0    0  0.94902810247E+01  0.87447563205E+02  0.80648480033E+03  0.81521016122E+03  0.80079535763E+02 0.  0.
        -11    1    4    4    0    0  0.18976269413E+02  0.62576435429E+02  0.26066924491E+03  0.26874591032E+03  0.00000000000E+00 0.  1.
         12    1    4    4    0    0 -0.94859883888E+01  0.24871127775E+02  0.54581555543E+03  0.54646425091E+03  0.00000000000E+00 0. -1.
        -13    1    3    3    0    0 -0.45969012064E+02 -0.41937468363E+02 -0.10965780487E+03  0.12608225685E+03  0.00000000000E+00 0.  1.
         13    1    3    3    0    0  0.22008715639E+02 -0.75396827171E+01  0.27609268462E+01  0.23427613976E+02  0.00000000000E+00 0. -1.
         21    1    1    2  502  501  0.14470015400E+02 -0.37970412124E+02 -0.13146725414E+02  0.42707960987E+02  0.00000000000E+00 0. -1.
<scales pt_clust_5="13000.00000" pt_clust_6="13000.00000" pt_clust_7="13000.00000" pt_clust_8="13000.00000" pt_clust_9="40.63414"></scales>
<clustering>
<clus scale="   40.634">  2  9  1 -1</clus>
<clus scale="   80.080">  5  6 -1 -1</clus>
<clus scale="   88.905">  7  8 -1 -1</clus>
<clus scale="  118.077">  1  5  2 -1</clus>
<clus scale="  118.077">  1  5  2 -1</clus>
</clustering>
</event>
<event>
 9    2  0.2869112E-005  0.1036319E+03  0.7546771E-02  0.1277197E+00
          2   -1    0    0  502    0  0.00000000000E+00  0.00000000000E+00  0.42003901896E+03  0.42003901896E+03  0.00000000000E+00 0. -1.
         -1   -1    0    0    0  501 -0.00000000000E+00 -0.00000000000E+00 -0.23711848716E+03  0.23711848716E+03  0.00000000000E+00 0.  1.
         23    2    1    2    0    0  0.55983737987E+02 -0.55816242395E+02  0.18771443460E+02  0.12140333930E+03  0.90204056833E+02 0.  0.
         24    2    1    2    0    0 -0.19235853265E+02  0.44119595527E+02  0.34155622432E+03  0.35420386945E+03  0.80518134592E+02 0.  0.
        -11    1    4    4    0    0  0.29825195265E+02  0.33478919447E+01  0.10793281220E+03  0.11202786529E+03  0.00000000000E+00 0.  1.
         12    1    4    4    0    0 -0.49061048530E+02  0.40771703583E+02  0.23362341212E+03  0.24217600416E+03  0.00000000000E+00 0. -1.
        -13    1    3    3    0    0 -0.90559511005E+01 -0.44930607224E+02 -0.13782302561E+02  0.47861483259E+02  0.00000000000E+00 0.  1.
         13    1    3    3    0    0  0.65039689088E+02 -0.10885635171E+02  0.32553746021E+02  0.73541856039E+02  0.00000000000E+00 0. -1.
         21    1    1    2  502  501 -0.36747884723E+02  0.11696646868E+02 -0.17740713598E+03  0.18155029738E+03  0.00000000000E+00 0.  1.
<scales pt_clust_5="13000.00000" pt_clust_6="13000.00000" pt_clust_7="13000.00000" pt_clust_8="13000.00000" pt_clust_9="38.56447"></scales>
<clustering>
<clus scale="   38.564">  2  9  1 -1</clus>
<clus scale="   80.518">  5  6 -1 -1</clus>
<clus scale="   90.204">  7  8 -1 -1</clus>
<clus scale="   95.320">  1  5  2 -1</clus>
<clus scale="   95.320">  1  5  2 -1</clus>
</clustering>
</event>
<event>
 9    2  0.2869112E-005  0.9882311E+02  0.7546771E-02  0.1287631E+00
         -3   -1    0    0    0  501 -0.00000000000E+00  0.00000000000E+00  0.28291851084E+03  0.28291851084E+03  0.00000000000E+00 0.  1.
          4   -1    0    0  502    0  0.00000000000E+00 -0.00000000000E+00 -0.83395520893E+02  0.83395520893E+02  0.00000000000E+00 0. -1.
         23    2    1    2    0    0  0.54038811479E+02  0.16116456525E+02  0.83303500133E+02  0.13597086349E+03  0.91480431062E+02 0.  0.
         24    2    1    2    0    0 -0.28011150173E+02 -0.14587203486E+02 -0.21202178924E+02  0.90470037131E+02  0.82084616024E+02 0.  0.
        -13    1    4    4    0    0  0.28803248703E+02 -0.11614888615E+02 -0.77399214765E+01  0.32006861106E+02  0.00000000000E+00 0.  1.
         14    1    4    4    0    0 -0.56814398876E+02 -0.29723148709E+01 -0.13462257448E+02  0.58463176025E+02  0.00000000000E+00 0. -1.
        -11    1    3    3    0    0  0.32776930651E+00  0.44022686817E+02  0.50962618410E+02  0.67344583023E+02  0.00000000000E+00 0.  1.
         11    1    3    3    0    0  0.53711042172E+02 -0.27906230293E+02  0.32340881723E+02  0.68626280469E+02  0.00000000000E+00 0. -1.
         21    1    1    2  502  501 -0.26027661306E+02 -0.15292530386E+01  0.13742166874E+03  0.13987313111E+03  0.00000000000E+00 0. -1.
<scales pt_clust_5="13000.00000" pt_clust_6="13000.00000" pt_clust_7="13000.00000" pt_clust_8="13000.00000" pt_clust_9="26.07255"></scales>
<clustering>
<clus scale="   26.073">  1  9  2 -1</clus>
<clus scale="   82.085">  5  6 -1 -1</clus>
<clus scale="   90.195">  2  5  1 -1</clus>
<clus scale="   91.480">  7  8 -1 -1</clus>
<clus scale="   90.195">  2  5  1 -1</clus>
</clustering>
</event>
<event>
 9    2  0.2869112E-005  0.1038574E+03  0.7546771E-02  0.1277210E+00
         -1   -1    0    0    0  501 -0.00000000000E+00  0.00000000000E+00  0.38994974071E+03  0.38994974071E+03  0.00000000000E+00 0.  1.
          2   -1    0    0  502    0  0.00000000000E+00 -0.00000000000E+00 -0.53679006667E+02  0.53679006667E+02  0.00000000000E+00 0. -1.
         24    2    1    2    0    0 -0.43345562761E+02  0.67405765399E+02  0.11482302740E+03  0.16110669205E+03  0.79678501383E+02 0.  0.
         23    2    1    2    0    0  0.22125170845E+02 -0.25023944599E+02  0.58306686243E+02  0.11263528037E+03  0.90395330272E+02 0.  0.
        -13    1    3    3    0    0  0.19149589959E+02  0.35039138676E+02  0.59165551929E+02  0.71379342739E+02  0.00000000000E+00 0.  1.
         14    1    3    3    0    0 -0.62495152720E+02  0.32366626724E+02  0.55657475466E+02  0.89727349310E+02  0.00000000000E+00 0. -1.
        -11    1    4    4    0    0  0.19384120324E+01 -0.38305591344E+02  0.74329309743E+02  0.83641628729E+02  0.00000000000E+00 0.  1.
         11    1    4    4    0    0  0.20186758813E+02  0.13281646745E+02 -0.16022623500E+02  0.28993651641E+02  0.00000000000E+00 0. -1.
         21    1    1    2  502  501  0.21220391916E+02 -0.42381820800E+02  0.16314102041E+03  0.16988677496E+03  0.00000000000E+00 0. -1.
<scales pt_clust_5="13000.00000" pt_clust_6="13000.00000" pt_clust_7="13000.00000" pt_clust_8="13000.00000" pt_clust_9="47.39751"></scales>
<clustering>
<clus scale="   47.398">  1  9  2 -1</clus>
<clus scale="   79.679">  5  6 -1 -1</clus>
<clus scale="   90.395">  7  8 -1 -1</clus>
<clus scale="   94.677">  1  5  2 -1</clus>
<clus scale="  103.857">  2  5  1 -1</clus>
</clustering>
</event>
<event>
 9    2  0.2869112E-005  0.1112996E+03  0.7546771E-02  0.1262497E+00
          2   -1    0    0  502    0  0.00000000000E+00  0.00000000000E+00  0.46282511720E+03  0.46282511720E+03  0.00000000000E+00 0. -1.
         -1   -1    0    0    0  501 -0.00000000000E+00 -0.00000000000E+00 -0.16441844227E+03  0.16441844227E+03  0.00000000000E+00 0.  1.
         23    2    1    2    0    0 -0.43862775809E+02  0.24593948156E+02 -0.82062243457E+02  0.13284463031E+03  0.91567890731E+02 0.  0.
         24    2    1    2    0    0  0.42270103484E+02 -0.48266882291E+02  0.42858914229E+03  0.44074727156E+03  0.80330883966E+02 0.  0.
        -13    1    4    4    0    0  0.42476473612E+02 -0.34864266365E+02  0.12131262546E+03  0.13317853046E+03  0.00000000000E+00 0.  1.
         14    1    4    4    0    0 -0.20637012811E+00 -0.13402615926E+02  0.30727651683E+03  0.30756874110E+03  0.00000000000E+00 0. -1.
        -13    1    3    3    0    0 -0.13016245352E+02 -0.24630926191E+02  0.48781693619E+01  0.28282533558E+02  0.00000000000E+00 0. -1.
         13    1    3    3    0    0 -0.30846530457E+02  0.49224874347E+02 -0.86940412819E+02  0.10456209675E+03  0.00000000000E+00 0.  1.
         21    1    1    2  502  501  0.15926723251E+01  0.23672934135E+02 -0.48120223906E+02  0.53651657611E+02  0.00000000000E+00 0. -1.
<scales pt_clust_5="13000.00000" pt_clust_6="13000.00000" pt_clust_7="13000.00000" pt_clust_8="13000.00000" pt_clust_9="23.72645"></scales>
<clustering>
<clus scale="   23.726">  2  9  1 -1</clus>
<clus scale="   80.331">  5  6 -1 -1</clus>
<clus scale="   91.568">  7  8 -1 -1</clus>
<clus scale="  102.254">  1  5  2 -1</clus>
<clus scale="  102.254">  1  5  2 -1</clus>
</clustering>
</event>
<event>
 9    2  0.2869112E-005  0.1271010E+03  0.7546771E-02  0.1234759E+00
          2   -1    0    0  502    0  0.00000000000E+00  0.00000000000E+00  0.81392881795E+03  0.81392881795E+03  0.00000000000E+00 0. -1.
         -1   -1    0    0    0  501 -0.00000000000E+00 -0.00000000000E+00 -0.82104356745E+02  0.82104356745E+02  0.00000000000E+00 0.  1.
         23    2    1    2    0    0  0.74165581145E+02  0.55636276039E+02 -0.11058897777E+02  0.13031168627E+03  0.90900537510E+02 0.  0.
         24    2    1    2    0    0 -0.21457408495E+02 -0.46865581849E+02  0.66171940896E+03  0.66854812107E+03  0.80169887429E+02 0.  0.
        -11    1    4    4    0    0  0.22216846554E+02  0.85288439320E+01  0.12875720341E+03  0.13093795049E+03  0.00000000000E+00 0.  1.
         12    1    4    4    0    0 -0.43674255049E+02 -0.55394425781E+02  0.53296220556E+03  0.53761017058E+03  0.00000000000E+00 0. -1.
        -13    1    3    3    0    0  0.47715788369E+01  0.58526050786E+02 -0.15450312190E+02  0.60718849890E+02  0.00000000000E+00 0.  1.
         13    1    3    3    0    0  0.69394002308E+02 -0.28897747470E+01  0.43914144133E+01  0.69592836376E+02  0.00000000000E+00 0. -1.
         21    1    1    2  502  501 -0.52708172650E+02 -0.87706941907E+01  0.81163950017E+02  0.97173367354E+02  0.00000000000E+00 0. -1.
<scales pt_clust_5="13000.00000" pt_clust_6="13000.00000" pt_clust_7="13000.00000" pt_clust_8="13000.00000" pt_clust_9="53.43292"></scales>
<clustering>
<clus scale="   53.433">  1  9  2 -1</clus>
<clus scale="   80.170">  5  6 -1 -1</clus>
<clus scale="   90.901">  7  8 -1 -1</clus>
<clus scale="  119.662">  1  5  2 -1</clus>
<clus scale="   53.433">  1  5  2 -1</clus>
</clustering>
</event>
<event>
 9    2  0.2869112E-005  0.9074484E+02  0.7546771E-02  0.1306677E+00
          2   -1    0    0  502    0  0.00000000000E+00  0.00000000000E+00  0.42286213170E+03  0.42286213170E+03  0.00000000000E+00 0. -1.
         -1   -1    0    0    0  501 -0.00000000000E+00 -0.00000000000E+00 -0.18156956221E+03  0.18156956221E+03  0.00000000000E+00 0.  1.
         23    2    1    2    0    0  0.55155059887E+01  0.66067125530E+02 -0.28050434617E+01  0.11166455573E+03  0.89809903994E+02 0.  0.
         24    2    1    2    0    0  0.51903873919E+01 -0.79133241624E+01  0.35654811765E+03  0.36571755425E+03  0.80828265265E+02 0.  0.
        -11    1    4    4    0    0 -0.60617132044E+01 -0.43452288816E+02  0.20636297486E+03  0.21097517191E+03  0.00000000000E+00 0.  1.
         12    1    4    4    0    0  0.11252100596E+02  0.35538964654E+02  0.15018514279E+03  0.15474238234E+03  0.00000000000E+00 0. -1.
        -11    1    3    3    0    0  0.31198105009E+01 -0.21917897885E+02 -0.78833994271E+01  0.23500541521E+02  0.00000000000E+00 0.  1.
         11    1    3    3    0    0  0.23956954878E+01  0.87985023415E+02  0.50783559653E+01  0.88164014209E+02  0.00000000000E+00 0. -1.
         21    1    1    2  502  501 -0.10705893381E+02 -0.58153801368E+02 -0.11245050470E+03  0.12704958392E+03  0.00000000000E+00 0.  1.
<scales pt_clust_5="13000.00000" pt_clust_6="13000.00000" pt_clust_7="13000.00000" pt_clust_8="13000.00000" pt_clust_9="59.13105"></scales>
<clustering>
<clus scale="   59.131">  2  9  1 -1</clus>
<clus scale="   80.828">  5  6 -1 -1</clus>
<clus scale="   81.866">  1  5  2 -1</clus>
<clus scale="   89.810">  7  8 -1 -1</clus>
<clus scale="   81.866">  1  5  2 -1</clus>
</clustering>
</event>
<event>
 9    2  0.2869112E-005  0.9938440E+02  0.7546771E-02  0.1284511E+00
         -1   -1    0    0    0  501 -0.00000000000E+00  0.00000000000E+00  0.14216420705E+03  0.14216420705E+03  0.00000000000E+00 0.  1.
          2   -1    0    0  502    0  0.00000000000E+00 -0.00000000000E+00 -0.61057262547E+03  0.61057262547E+03  0.00000000000E+00 0. -1.
         23    2    1    2    0    0 -0.19404414970E+02 -0.24317855177E+02 -0.54678822538E+01  0.95385479514E+02  0.90003347521E+02 0.  0.
         24    2    1    2    0    0 -0.42468514136E+02  0.19449366490E+02 -0.54558510760E+03  0.55399717202E+03  0.84070829798E+02 0.  0.
        -11    1    4    4    0    0 -0.21355983327E+02 -0.87973138848E+01 -0.33450230954E+02  0.40649584332E+02  0.00000000000E+00 0.  1.
         12    1    4    4    0    0 -0.21112530808E+02  0.28246680375E+02 -0.51213487665E+03  0.51334758769E+03  0.00000000000E+00 0. -1.
        -13    1    3    3    0    0 -0.43557348549E+02 -0.72048446992E+00  0.24723083420E+02  0.50089844922E+02  0.00000000000E+00 0. -1.
         13    1    3    3    0    0  0.24152933579E+02 -0.23597370707E+02 -0.30190965674E+02  0.45295634592E+02  0.00000000000E+00 0.  1.
         21    1    1    2  502  501  0.61872929106E+02  0.48684886875E+01  0.82644571442E+02  0.10335418098E+03  0.00000000000E+00 0.  1.
<scales pt_clust_5="13000.00000" pt_clust_6="13000.00000" pt_clust_7="13000.00000" pt_clust_8="13000.00000" pt_clust_9="62.06417"></scales>
<clustering>
<clus scale="   62.064">  1  9  2 -1</clus>
<clus scale="   84.071">  5  6 -1 -1</clus>
<clus scale="   90.003">  7  8 -1 -1</clus>
<clus scale="   94.046">  2  5  1 -1</clus>
<clus scale="   94.046">  2  5  1 -1</clus>
</clustering>
</event>
<event>
 9    2  0.2869112E-005  0.9941501E+02  0.7546771E-02  0.1288039E+00
          2   -1    0    0  502    0  0.00000000000E+00  0.00000000000E+00  0.94598460838E+03  0.94598460838E+03  0.00000000000E+00 0. -1.
         -1   -1    0    0    0  501 -0.00000000000E+00 -0.00000000000E+00 -0.90407916910E+02  0.90407916910E+02  0.00000000000E+00 0.  1.
         23    2    1    2    0    0  0.67247515035E+01 -0.32123513953E+02 -0.94863070674E+01  0.98728844432E+02  0.92629651136E+02 0.  0.
         24    2    1    2    0    0 -0.36417354599E+02  0.67366293538E+01  0.88798797173E+03  0.89236799692E+03  0.80164818387E+02 0.  0.
        -11    1    4    4    0    0 -0.36340474682E+02 -0.14551017211E+02  0.18682832061E+03  0.19088526287E+03  0.00000000000E+00 0.  1.
         12    1    4    4    0    0 -0.76879916549E-01  0.21287646565E+02  0.70115965112E+03  0.70148273405E+03  0.00000000000E+00 0. -1.
        -11    1    3    3    0    0 -0.14271988820E+02 -0.59742778212E+02  0.38863204100E+01  0.61546670907E+02  0.00000000000E+00 0.  1.
         11    1    3    3    0    0  0.20996740323E+02  0.27619264259E+02 -0.13372627477E+02  0.37182173525E+02  0.00000000000E+00 0. -1.
         21    1    1    2  502  501  0.29692603095E+02  0.25386884599E+02 -0.22924973184E+02  0.45295683941E+02  0.00000000000E+00 0.  1.
<scales pt_clust_5="13000.00000" pt_clust_6="13000.00000" pt_clust_7="13000.00000" pt_clust_8="13000.00000" pt_clust_9="39.06590"></scales>
<clustering>
<clus scale="   39.066">  2  9  1 -1</clus>
<clus scale="   80.165">  5  6 -1 -1</clus>
<clus scale="   87.918">  1  5  2 -1</clus>
<clus scale="   92.630">  7  8 -1 -1</clus>
<clus scale="   87.918">  1  5  2 -1</clus>
</clustering>
</event>
<event>
 9    2  0.2869112E-005  0.1392496E+03  0.7546771E-02  0.1221020E+00
          2   -1    0    0  502    0  0.00000000000E+00  0.00000000000E+00  0.38781003567E+03  0.38781003567E+03  0.00000000000E+00 0. -1.
         -1   -1    0    0    0  501 -0.00000000000E+00 -0.00000000000E+00 -0.71883875438E+02  0.71883875438E+02  0.00000000000E+00 0.  1.
         23    2    1    2    0    0  0.49728094605E+02  0.46070687623E+02  0.10098840998E+03  0.16203972035E+03  0.10706456170E+03 0.  0.
         24    2    1    2    0    0 -0.75279529629E+02 -0.67440459968E+02  0.22749308727E+03  0.26205672611E+03  0.81886505113E+02 0.  0.
        -11    1    4    4    0    0  0.81951181068E+01 -0.39348105226E+02  0.52196233844E+02  0.65877766911E+02  0.00000000000E+00 0.  1.
         12    1    4    4    0    0 -0.83474647736E+02 -0.28092354741E+02  0.17529685343E+03  0.19617895919E+03  0.00000000000E+00 0. -1.
        -13    1    3    3    0    0  0.62267345958E+01  0.50016144583E+02 -0.17172874353E+01  0.50431498280E+02  0.00000000000E+00 0.  1.
         13    1    3    3    0    0  0.43501360009E+02 -0.39454569597E+01  0.10270569741E+03  0.11160822207E+03  0.00000000000E+00 0. -1.
         21    1    1    2  502  501  0.25551435024E+02  0.21369772345E+02 -0.12555337016E+02  0.35597464649E+02  0.00000000000E+00 0. -1.
<scales pt_clust_5="13000.00000" pt_clust_6="13000.00000" pt_clust_7="13000.00000" pt_clust_8="13000.00000" pt_clust_9="33.30980"></scales>
<clustering>
<clus scale="   33.310">  2  9  1 -1</clus>
<clus scale="   81.887">  5  6 -1 -1</clus>
<clus scale="  107.065">  7  8 -1 -1</clus>
<clus scale="  120.967">  1  5  2 -1</clus>
<clus scale="  120.967">  1  5  2 -1</clus>
</clustering>
</event>
<event>
 9    2  0.2869112E-005  0.9180713E+02  0.7546771E-02  0.1304103E+00
         -1   -1    0    0    0  501 -0.00000000000E+00  0.00000000000E+00  0.10381692320E+03  0.10381692320E+03  0.00000000000E+00 0.  1.
          2   -1    0    0  502    0  0.00000000000E+00 -0.00000000000E+00 -0.30116255622E+03  0.30116255622E+03  0.00000000000E+00 0. -1.
         23    2    1    2    0    0 -0.44524894719E+01  0.92963589409E+01  0.32243180393E+02  0.97601871233E+02  0.91543736183E+02 0.  0.
         24    2    1    2    0    0  0.18771071555E+02  0.72322772057E+02 -0.17913283802E+03  0.21035951817E+03  0.81114836755E+02 0.  0.
        -11    1    4    4    0    0  0.71419079941E+01  0.89179719706E+02 -0.15185559230E+03  0.17625024870E+03  0.00000000000E+00 0.  1.
         12    1    4    4    0    0  0.11629163560E+02 -0.16856947649E+02 -0.27277245728E+02  0.34109269469E+02  0.00000000000E+00 0. -1.
        -13    1    3    3    0    0 -0.31382521921E+02  0.25921320183E+02  0.47427746688E+02  0.62499349421E+02  0.00000000000E+00 0.  1.
         13    1    3    3    0    0  0.26930032449E+02 -0.16624961242E+02 -0.15184566294E+02  0.35102521812E+02  0.00000000000E+00 0. -1.
         21    1    1    2  502  501 -0.14318582083E+02 -0.81619130998E+02 -0.50455975381E+02  0.97018090011E+02  0.00000000000E+00 0. -1.
<scales pt_clust_5="13000.00000" pt_clust_6="13000.00000" pt_clust_7="13000.00000" pt_clust_8="13000.00000" pt_clust_9="82.86558"></scales>
<clustering>
<clus scale="   81.115">  5  6 -1 -1</clus>
<clus scale="   82.866">  2  9  1 -1</clus>
<clus scale="   82.866">  2  5  1 -1</clus>
<clus scale="   91.544">  7  8 -1 -1</clus>
<clus scale="   82.866">  2  5  1 -1</clus>
</clustering>
</event>
<event>
 9    2  0.2869112E-005  0.1132429E+03  0.7546771E-02  0.1256808E+00
         -1   -1    0    0    0  501 -0.00000000000E+00  0.00000000000E+00  0.25858336721E+02  0.25858336721E+02  0.00000000000E+00 0.  1.
          2   -1    0    0  502    0  0.00000000000E+00 -0.00000000000E+00 -0.77568959442E+03  0.77568959442E+03  0.00000000000E+00 0. -1.
         23    2    1    2    0    0  0.44927884975E+02 -0.23868981789E+02 -0.16424879696E+03  0.19234104041E+03  0.86192606316E+02 0.  0.
         24    2    1    2    0    0 -0.64233723408E+02  0.53823962069E+02 -0.53460004833E+03  0.54700381512E+03  0.79956062670E+02 0.  0.
        -11    1    4    4    0    0 -0.20818319573E+02 -0.18487071952E+02 -0.81608245364E+02  0.86226909782E+02  0.00000000000E+00 0.  1.
         12    1    4    4    0    0 -0.43415403835E+02  0.72311034022E+02 -0.45299180297E+03  0.46077690533E+03  0.00000000000E+00 0. -1.
        -11    1    3    3    0    0 -0.10402815346E+02  0.19931587179E+02 -0.76504899451E+02  0.79740117724E+02  0.00000000000E+00 0. -1.
         11    1    3    3    0    0  0.55330700321E+02 -0.43800568968E+02 -0.87743897509E+02  0.11260092269E+03  0.00000000000E+00 0.  1.
         21    1    1    2  502  501  0.19305838433E+02 -0.29954980281E+02 -0.50982412408E+02  0.62203075617E+02  0.00000000000E+00 0. -1.
<scales pt_clust_5="13000.00000" pt_clust_6="13000.00000" pt_clust_7="13000.00000" pt_clust_8="13000.00000" pt_clust_9="35.63729"></scales>
<clustering>
<clus scale="   35.637">  1  9  2 -1</clus>
<clus scale="   79.956">  5  6 -1 -1</clus>
<clus scale="   86.193">  7  8 -1 -1</clus>
<clus scale="  108.571">  2  5  1 -1</clus>
<clus scale="  108.571">  2  5  1 -1</clus>
</clustering>
</event>
<event>
 9    2  0.2869112E-005  0.1191152E+03  0.7546771E-02  0.1250323E+00
          2   -1    0    0  502    0  0.00000000000E+00  0.00000000000E+00  0.15899071337E+03  0.15899071337E+03  0.00000000000E+00 0. -1.
         -1   -1    0    0    0  501 -0.00000000000E+00 -0.00000000000E+00 -0.12458032277E+03  0.12458032277E+03  0.00000000000E+00 0.  1.
         23    2    1    2    0    0  0.41810311367E+01 -0.50601779745E+02 -0.20345339363E+02  0.11095770791E+03  0.96538380849E+02 0.  0.
         24    2    1    2    0    0  0.19171184349E+02  0.77438102741E+02  0.71103324007E+02  0.13346287445E+03  0.79952874281E+02 0.  0.
        -11    1    4    4    0    0  0.33424509776E+01  0.81586167282E+02  0.26332623585E+02  0.85795581093E+02  0.00000000000E+00 0.  1.
         12    1    4    4    0    0  0.15828733372E+02 -0.41480645405E+01  0.44770700422E+02  0.47667293356E+02  0.00000000000E+00 0. -1.
        -13    1    3    3    0    0 -0.12771393818E+02  0.25473713148E+02 -0.16485056457E+02  0.32920747986E+02  0.00000000000E+00 0.  1.
         13    1    3    3    0    0  0.16952424955E+02 -0.76075492893E+02 -0.38602829065E+01  0.78036959928E+02  0.00000000000E+00 0. -1.
         21    1    1    2  502  501 -0.23352215486E+02 -0.26836322996E+02 -0.16347594037E+02  0.39150453776E+02  0.00000000000E+00 0.  1.
<scales pt_clust_5="13000.00000" pt_clust_6="13000.00000" pt_clust_7="13000.00000" pt_clust_8="13000.00000" pt_clust_9="35.57407"></scales>
<clustering>
<clus scale="   35.574">  2  9  1 -1</clus>
<clus scale="   79.953">  5  6 -1 -1</clus>
<clus scale="   96.538">  7  8 -1 -1</clus>
<clus scale="  106.119">  1  5  2 -1</clus>
<clus scale="  106.119">  1  5  2 -1</clus>
</clustering>
</event>
<event>
 9    2  0.2869112E-005  0.1762815E+03  0.7546771E-02  0.1172799E+00
         -1   -1    0    0    0  501 -0.00000000000E+00  0.00000000000E+00  0.32357527031E+02  0.32357527031E+02  0.00000000000E+00 0.  1.
          2   -1    0    0  502    0  0.00000000000E+00 -0.00000000000E+00 -0.12840953116E+04  0.12840953116E+04  0.00000000000E+00 0. -1.
         23    2    1    2    0    0 -0.68219427972E+02  0.11769522389E+03 -0.29999665622E+03  0.34171798642E+03  0.90923772583E+02 0.  0.
         24    2    1    2    0    0  0.63818174178E+02 -0.14398390091E+03 -0.89178327968E+03  0.90911923523E+03  0.80101453645E+02 0.  0.
        -11    1    4    4    0    0  0.88166343444E+01 -0.24883536388E+02 -0.44510401087E+02  0.51750354871E+02  0.00000000000E+00 0.  1.
         12    1    4    4    0    0  0.55001539834E+02 -0.11910036452E+03 -0.84727287859E+03  0.85736888036E+03  0.00000000000E+00 0. -1.
        -13    1    3    3    0    0 -0.47657183009E+02  0.55364569631E+02 -0.65185008593E+02  0.97905709783E+02  0.00000000000E+00 0.  1.
         13    1    3    3    0    0 -0.20562244963E+02  0.62330654264E+02 -0.23481164763E+03  0.24381227664E+03  0.00000000000E+00 0. -1.
         21    1    1    2  502  501  0.44012537942E+01  0.26288677015E+02 -0.59957848679E+02  0.65615616986E+02  0.00000000000E+00 0. -1.
<scales pt_clust_5="13000.00000" pt_clust_6="13000.00000" pt_clust_7="13000.00000" pt_clust_8="13000.00000" pt_clust_9="26.65456"></scales>
<clustering>
<clus scale="   26.655">  1  9  2 -1</clus>
<clus scale="   80.101">  5  6 -1 -1</clus>
<clus scale="   90.924">  7  8 -1 -1</clus>
<clus scale="  170.951">  2  5  1 -1</clus>
<clus scale="  170.951">  2  5  1 -1</clus>
</clustering>
</event>
<event>
 9    2  0.2869112E-005  0.9787843E+02  0.7546771E-02  0.1292610E+00
         -1   -1    0    0    0  501 -0.00000000000E+00  0.00000000000E+00  0.29966045502E+02  0.29966045502E+02  0.00000000000E+00 0.  1.
          2   -1    0    0  502    0  0.00000000000E+00 -0.00000000000E+00 -0.68714672919E+03  0.68714672919E+03  0.00000000000E+00 0. -1.
         23    2    1    2    0    0  0.93546354316E+00  0.27915077738E+02 -0.13947881614E+03  0.17016676555E+03  0.93393047320E+02 0.  0.
         24    2    1    2    0    0 -0.67460985357E+02 -0.77403584277E+00 -0.32550093667E+03  0.34175468614E+03  0.79333612336E+02 0.  0.
        -11    1    4    4    0    0 -0.57691917644E+02 -0.34333703313E+02 -0.24416532146E+03  0.25322690368E+03  0.00000000000E+00 0.  1.
         12    1    4    4    0    0 -0.97690677131E+01  0.33559667471E+02 -0.81335615210E+02  0.88527782454E+02  0.00000000000E+00 0. -1.
        -11    1    3    3    0    0  0.57733585101E+01 -0.34435541959E+02 -0.51868008649E+02  0.62525423147E+02  0.00000000000E+00 0.  1.
         11    1    3    3    0    0 -0.48378949669E+01  0.62350619697E+02 -0.87610807493E+02  0.10764134240E+03  0.00000000000E+00 0. -1.
         21    1    1    2  502  501  0.66525521814E+02 -0.27141041895E+02 -0.19220093087E+03  0.20519132301E+03  0.00000000000E+00 0.  1.
<scales pt_clust_5="13000.00000" pt_clust_6="13000.00000" pt_clust_7="13000.00000" pt_clust_8="13000.00000" pt_clust_9="71.84902"></scales>
<clustering>
<clus scale="   71.849">  2  9  1 -1</clus>
<clus scale="   79.334">  5  6 -1 -1</clus>
<clus scale="   84.568">  2  5  1 -1</clus>
<clus scale="   93.393">  7  8 -1 -1</clus>
<clus scale="   71.849">  2  5  1 -1</clus>
</clustering>
</event>
<event>
 9    2  0.2869112E-005  0.1079182E+03  0.7546771E-02  0.1272141E+00
         -1   -1    0    0    0  501 -0.00000000000E+00  0.00000000000E+00  0.53744236248E+03  0.53744236248E+03  0.00000000000E+00 0.  1.
          2   -1    0    0  502    0  0.00000000000E+00 -0.00000000000E+00 -0.74167559849E+02  0.74167559849E+02  0.00000000000E+00 0. -1.
         23    2    1    2    0    0  0.10126005003E+02 -0.46765501196E+02  0.13407912014E+03  0.17247622852E+03  0.97371920329E+02 0.  0.
         24    2    1    2    0    0  0.70180123774E+02 -0.21306134336E+02  0.17733049957E+02  0.11036052983E+03  0.80534367515E+02 0.  0.
        -13    1    4    4    0    0  0.10493807116E+02  0.26685037293E+02  0.17844238707E+02  0.33773185491E+02  0.00000000000E+00 0.  1.
         14    1    4    4    0    0  0.59686316658E+02 -0.47991171630E+02 -0.11118875036E+00  0.76587344343E+02  0.00000000000E+00 0. -1.
        -11    1    3    3    0    0 -0.38429799951E+02 -0.24227606441E+02  0.97722171598E+02  0.10776571468E+03  0.00000000000E+00 0. -1.
         11    1    3    3    0    0  0.48555804954E+02 -0.22537894755E+02  0.36356948538E+02  0.64710513842E+02  0.00000000000E+00 0.  1.
         21    1    1    2  502  501 -0.80306128777E+02  0.68071635532E+02  0.31146263253E+03  0.32877316397E+03  0.00000000000E+00 0.  1.
<scales pt_clust_5="13000.00000" pt_clust_6="13000.00000" pt_clust_7="13000.00000" pt_clust_8="13000.00000" pt_clust_9="105.27498"></scales>
<clustering>
<clus scale="   80.534">  5  6 -1 -1</clus>
<clus scale="   97.372">  7  8 -1 -1</clus>
<clus scale="  105.275">  1  9  2 -1</clus>
<clus scale="   93.010">  2  5  1 -1</clus>
<clus scale="   93.010">  2  5  1 -1</clus>
</clustering>
</event>
<event>
 9    2  0.2869112E-005  0.1050658E+03  0.7546771E-02  0.1276667E+00
          2   -1    0    0  502    0  0.00000000000E+00  0.00000000000E+00  0.62352613877E+03  0.62352613877E+03  0.00000000000E+00 0. -1.
         -1   -1    0    0    0  501 -0.00000000000E+00 -0.00000000000E+00 -0.15449137184E+03  0.15449137184E+03  0.00000000000E+00 0.  1.
         23    2    1    2    0    0  0.19228656519E+02 -0.12910880370E+02 -0.11595290933E+03  0.15120819693E+03  0.94246536129E+02 0.  0.
         24    2    1    2    0    0 -0.21623860691E+02  0.41893819556E+02  0.59004438728E+03  0.59729121596E+03  0.79885757391E+02 0.  0.
        -11    1    4    4    0    0  0.18039875280E+02  0.24613952808E+02  0.83487007196E+02  0.88889617749E+02  0.00000000000E+00 0.  1.
         12    1    4    4    0    0 -0.39663735971E+02  0.17279866748E+02  0.50655738008E+03  0.50840159821E+03  0.00000000000E+00 0. -1.
        -11    1    3    3    0    0 -0.10896200297E+02 -0.48502320613E+02 -0.50676676344E+02  0.70988223044E+02  0.00000000000E+00 0.  1.
         11    1    3    3    0    0  0.30124856816E+02  0.35591440243E+02 -0.65276232989E+02  0.80219973884E+02  0.00000000000E+00 0. -1.
         21    1    1    2  502  501  0.23952041720E+01 -0.28982939185E+02 -0.50567110184E+01  0.29518097723E+02  0.00000000000E+00 0.  1.
<scales pt_clust_5="13000.00000" pt_clust_6="13000.00000" pt_clust_7="13000.00000" pt_clust_8="13000.00000" pt_clust_9="29.08174"></scales>
<clustering>
<clus scale="   29.082">  2  9  1 -1</clus>
<clus scale="   79.886">  5  6 -1 -1</clus>
<clus scale="   92.402">  1  5  2 -1</clus>
<clus scale="   94.247">  7  8 -1 -1</clus>
<clus scale="   92.402">  1  5  2 -1</clus>
</clustering>
</event>
<event>
 9    2  0.2869112E-005  0.9455062E+02  0.7546771E-02  0.1301386E+00
         -1   -1    0    0    0  501 -0.00000000000E+00  0.00000000000E+00  0.37245509771E+03  0.37245509771E+03  0.00000000000E+00 0.  1.
          2   -1    0    0  502    0  0.00000000000E+00 -0.00000000000E+00 -0.33370373840E+02  0.33370373840E+02  0.00000000000E+00 0. -1.
         23    2    1    2    0    0 -0.84544064031E+01  0.26838284131E+02  0.24763829155E+03  0.26539695232E+03  0.91208817407E+02 0.  0.
         24    2    1    2    0    0 -0.15303269850E+02 -0.20364437320E+02  0.57323583907E+02  0.98348753821E+02  0.75746839741E+02 0.  0.
        -11    1    4    4    0    0 -0.22038310070E+02 -0.42709346948E+02  0.15576692586E+02  0.50521369532E+02  0.00000000000E+00 0.  1.
         12    1    4    4    0    0  0.67350402202E+01  0.22344909627E+02  0.41746891321E+02  0.47827384289E+02  0.00000000000E+00 0. -1.
        -13    1    3    3    0    0 -0.36385385262E+02 -0.18763750848E+02  0.88403828534E+02  0.97422848993E+02  0.00000000000E+00 0.  1.
         13    1    3    3    0    0  0.27930978859E+02  0.45602034979E+02  0.15923446302E+03  0.16797410332E+03  0.00000000000E+00 0. -1.
         21    1    1    2  502  501  0.23757676253E+02 -0.64738468110E+01  0.34122848407E+02  0.42079765409E+02  0.00000000000E+00 0. -1.
<scales pt_clust_5="13000.00000" pt_clust_6="13000.00000" pt_clust_7="13000.00000" pt_clust_8="13000.00000" pt_clust_9="24.62393"></scales>
<clustering>
<clus scale="   24.624">  2  9  1 -1</clus>
<clus scale="   75.747">  5  6 -1 -1</clus>
<clus scale="   79.739">  2  5  1 -1</clus>
<clus scale="   91.209">  7  8 -1 -1</clus>
<clus scale="   24.624">  2  5  1 -1</clus>
</clustering>
</event>
<event>
 9    2  0.2869112E-005  0.1491041E+03  0.7546771E-02  0.1202103E+00
          2   -1    0    0  502    0  0.00000000000E+00  0.00000000000E+00  0.69661919409E+03  0.69661919409E+03  0.00000000000E+00 0. -1.
         -1   -1    0    0    0  501 -0.00000000000E+00 -0.00000000000E+00 -0.10395338579E+03  0.10395338579E+03  0.00000000000E+00 0.  1.
         24    2    1    2    0    0 -0.23794470571E+00  0.75312059534E+02 -0.88702851542E+01  0.11053399252E+03  0.80418397239E+02 0.  0.
         23    2    1    2    0    0  0.10457694956E+03 -0.89308970400E+02  0.54958314953E+03  0.57264331560E+03  0.83464352200E+02 0.  0.
        -11    1    3    3    0    0  0.31545529002E+02  0.71057663858E+02 -0.10360333071E+02  0.78432445418E+02  0.00000000000E+00 0.  1.
         12    1    3    3    0    0 -0.31783473707E+02  0.42543956763E+01  0.14900479172E+01  0.32101547101E+02  0.00000000000E+00 0. -1.
        -11    1    4    4    0    0  0.12174409637E+02 -0.55024985660E+02  0.27985254943E+03  0.28547051463E+03  0.00000000000E+00 0. -1.
         11    1    4    4    0    0  0.92402539924E+02 -0.34283984739E+02  0.26973060009E+03  0.28717280098E+03  0.00000000000E+00 0.  1.
         21    1    1    2  502  501 -0.10433900486E+03  0.13996910865E+02  0.51952943932E+02  0.11739527176E+03  0.00000000000E+00 0. -1.
<scales pt_clust_5="13000.00000" pt_clust_6="13000.00000" pt_clust_7="13000.00000" pt_clust_8="13000.00000" pt_clust_9="105.27365"></scales>
<clustering>
<clus scale="   80.418">  5  6 -1 -1</clus>
<clus scale="   83.464">  7  8 -1 -1</clus>
<clus scale="  105.274">  2  9  1 -1</clus>
<clus scale="  147.421">  2  5  1 -1</clus>
<clus scale="  149.104">  1  5  2 -1</clus>
</clustering>
</event>
<event>
 9    2  0.2869112E-005  0.1158820E+03  0.7546771E-02  0.1253704E+00
          4   -1    0    0  502    0  0.00000000000E+00  0.00000000000E+00  0.94581333820E+02  0.94581333820E+02  0.00000000000E+00 0. -1.
         -3   -1    0    0    0  501 -0.00000000000E+00 -0.00000000000E+00 -0.51552337625E+03  0.51552337625E+03  0.00000000000E+00 0.  1.
         24    2    1    2    0    0 -0.12338859803E+02  0.73283090327E+02 -0.43415289155E+03  0.44752121426E+03  0.79144457716E+02 0.  0.
         23    2    1    2    0    0  0.42610277455E+02 -0.52163265655E+02  0.37461941216E+02  0.11841879057E+03  0.89905344062E+02 0.  0.
        -13    1    3    3    0    0 -0.45949297209E+02  0.36027002473E+02 -0.23385319481E+03  0.24103236203E+03  0.00000000000E+00 0.  1.
         14    1    3    3    0    0  0.33610437406E+02  0.37256087854E+02 -0.20029969674E+03  0.20648885223E+03  0.00000000000E+00 0. -1.
        -11    1    4    4    0    0 -0.23679096299E+02 -0.82497642686E+01 -0.86201610904E+01  0.26515380239E+02  0.00000000000E+00 0.  1.
         11    1    4    4    0    0  0.66289373754E+02 -0.43913501386E+02  0.46082102307E+02  0.91903410327E+02  0.00000000000E+00 0. -1.
         21    1    1    2  502  501 -0.30271417653E+02 -0.21119824672E+02 -0.24251092096E+02  0.44164705237E+02  0.00000000000E+00 0.  1.
<scales pt_clust_5="13000.00000" pt_clust_6="13000.00000" pt_clust_7="13000.00000" pt_clust_8="13000.00000" pt_clust_9="36.91078"></scales>
<clustering>
<clus scale="   36.911">  1  9  2 -1</clus>
<clus scale="   79.144">  5  6 -1 -1</clus>
<clus scale="   89.905">  7  8 -1 -1</clus>
<clus scale="  107.747">  2  5  1 -1</clus>
<clus scale="   36.911">  1  5  2 -1</clus>
</clustering>
</event>
<event>
 9    2  0.2869112E-005  0.9897026E+02  0.7546771E-02  0.1287859E+00
         -3   -1    0    0    0  501 -0.00000000000E+00  0.00000000000E+00  0.28683481694E+03  0.28683481694E+03  0.00000000000E+00 0.  1.
          4   -1    0    0  502    0  0.00000000000E+00 -0.00000000000E+00 -0.80295472754E+02  0.80295472754E+02  0.00000000000E+00 0. -1.
         23    2    1    2    0    0 -0.40834727133E+02  0.41286867966E+02  0.16638199988E+03  0.19840532532E+03  0.91157132607E+02 0.  0.
         24    2    1    2    0    0  0.25583251720E+02 -0.24217157830E+02 -0.31501877972E+02  0.93498462102E+02  0.80676022446E+02 0.  0.
        -11    1    4    4    0    0  0.17863005031E+02  0.29094929509E+02 -0.11187902028E+02  0.35927301926E+02  0.00000000000E+00 0.  1.
         12    1    4    4    0    0  0.77202466885E+01 -0.53312087339E+02 -0.20313975944E+02  0.57571160176E+02  0.00000000000E+00 0. -1.
        -11    1    3    3    0    0 -0.13432556261E+02  0.55996477041E+02  0.44943620501E+02  0.73047710658E+02  0.00000000000E+00 0. -1.
         11    1    3    3    0    0 -0.27402170872E+02 -0.14709609074E+02  0.12143837938E+03  0.12535761467E+03  0.00000000000E+00 0.  1.
         21    1    1    2  502  501  0.15251475414E+02 -0.17069710136E+02  0.71659222278E+02  0.75226502271E+02  0.00000000000E+00 0. -1.
<scales pt_clust_5="13000.00000" pt_clust_6="13000.00000" pt_clust_7="13000.00000" pt_clust_8="13000.00000" pt_clust_9="22.89066"></scales>
<clustering>
<clus scale="   22.891">  1  9  2 -1</clus>
<clus scale="   80.676">  5  6 -1 -1</clus>
<clus scale="   89.410">  2  5  1 -1</clus>
<clus scale="   91.157">  7  8 -1 -1</clus>
<clus scale="   89.410">  2  5  1 -1</clus>
</clustering>
</event>
<event>
 9    2  0.2869112E-005  0.1053462E+03  0.7546771E-02  0.1273326E+00
         -1   -1    0    0    0  501 -0.00000000000E+00  0.00000000000E+00  0.29035405381E+02  0.29035405381E+02  0.00000000000E+00 0.  1.
          2   -1    0    0  502    0  0.00000000000E+00 -0.00000000000E+00 -0.12013934167E+04  0.12013934167E+04  0.00000000000E+00 0. -1.
         23    2    1    2    0    0  0.31405184361E+02 -0.34587257101E+01 -0.86575058198E+02  0.13037487314E+03  0.92217777338E+02 0.  0.
         24    2    1    2    0    0 -0.45624017618E+02  0.27508003044E+02 -0.10500069220E+04  0.10546615778E+04  0.83416222077E+02 0.  0.
        -11    1    4    4    0    0 -0.18830795336E+02 -0.17554325951E+02 -0.10174061508E+03  0.10494715799E+03  0.00000000000E+00 0.  1.
         12    1    4    4    0    0 -0.26793222282E+02  0.45062328995E+02 -0.94826630696E+03  0.94971441979E+03  0.00000000000E+00 0. -1.
        -11    1    3    3    0    0  0.41613112632E+02 -0.24873308822E+02 -0.90711968191E+01  0.49321590064E+02  0.00000000000E+00 0.  1.
         11    1    3    3    0    0 -0.10207928272E+02  0.21414583112E+02 -0.77503861379E+02  0.81053283081E+02  0.00000000000E+00 0. -1.
         21    1    1    2  502  501  0.14218833257E+02 -0.24049277334E+02 -0.35776031100E+02  0.45392371173E+02  0.00000000000E+00 0.  1.
<scales pt_clust_5="13000.00000" pt_clust_6="13000.00000" pt_clust_7="13000.00000" pt_clust_8="13000.00000" pt_clust_9="27.93820"></scales>
<clustering>
<clus scale="   27.938">  1  9  2 -1</clus>
<clus scale="   83.416">  5  6 -1 -1</clus>
<clus scale="   92.218">  7  8 -1 -1</clus>
<clus scale="   97.734">  2  5  1 -1</clus>
<clus scale="   97.734">  2  5  1 -1</clus>
</clustering>
</event>
<event>
 9    2  0.2869112E-005  0.2387407E+03  0.7546771E-02  0.1159959E+00
          2   -1    0    0  502    0  0.00000000000E+00  0.00000000000E+00  0.11168307914E+04  0.11168307914E+04  0.00000000000E+00 0. -1.
         -1   -1    0    0    0  501 -0.00000000000E+00 -0.00000000000E+00 -0.14760871754E+03  0.14760871754E+03  0.00000000000E+00 0.  1.
         23    2    1    2    0    0 -0.72499667843E+02 -0.23031750316E+03  0.54320772232E+02  0.26325497483E+03  0.89722245707E+02 0.  0.
         24    2    1    2    0    0 -0.85679155171E+01  0.55356691891E+02  0.72385794515E+03  0.72974245445E+03  0.73593155634E+02 0.  0.
        -13    1    4    4    0    0 -0.52644379039E+01  0.27769937415E+02  0.72835652096E+02  0.78127562017E+02  0.00000000000E+00 0.  1.
         14    1    4    4    0    0 -0.33034776132E+01  0.27586754476E+02  0.65102229305E+03  0.65161489243E+03  0.00000000000E+00 0. -1.
        -11    1    3    3    0    0 -0.11468558841E+02 -0.48729751723E+02 -0.24947667290E+02  0.55933019301E+02  0.00000000000E+00 0.  1.
         11    1    3    3    0    0 -0.61031109002E+02 -0.18158775144E+03  0.79268439522E+02  0.20732195553E+03  0.00000000000E+00 0. -1.
         21    1    1    2  502  501  0.81067583360E+02  0.17496081127E+03  0.19104335644E+03  0.27144207963E+03  0.00000000000E+00 0. -1.
<scales pt_clust_5="13000.00000" pt_clust_6="13000.00000" pt_clust_7="13000.00000" pt_clust_8="13000.00000" pt_clust_9="221.23978"></scales>
<clustering>
<clus scale="   73.593">  5  6 -1 -1</clus>
<clus scale="   89.722">  7  8 -1 -1</clus>
<clus scale="   92.486">  1  5  2 -1</clus>
<clus scale="  221.240">  1  9  2 -1</clus>
<clus scale="   92.486">  1  5  2 -1</clus>
</clustering>
</event>
<event>
 9    2  0.2869112E-005  0.1033979E+03  0.7546771E-02  0.1276177E+00
         -1   -1    0    0    0  501 -0.00000000000E+00  0.00000000000E+00  0.20490949498E+03  0.20490949498E+03  0.00000000000E+00 0.  1.
          2   -1    0    0  502    0  0.00000000000E+00 -0.00000000000E+00 -0.15547153096E+03  0.15547153096E+03  0.00000000000E+00 0. -1.
         23    2    1    2    0    0 -0.25683814262E+02 -0.22765715309E+02  0.10143620591E+02  0.96454934470E+02  0.89569666944E+02 0.  0.
         24    2    1    2    0    0  0.20554364101E+02  0.57515315240E+02 -0.85692587462E+02  0.13409705446E+03  0.83116226448E+02 0.  0.
        -13    1    4    4    0    0  0.41507703791E+02  0.37703374736E+02 -0.15448596503E+02  0.58164362581E+02  0.00000000000E+00 0.  1.
         14    1    4    4    0    0 -0.20953339689E+02  0.19811940503E+02 -0.70243990959E+02  0.75932691883E+02  0.00000000000E+00 0. -1.
        -11    1    3    3    0    0  0.13204942918E+02 -0.47785589961E+02  0.74642605757E+01  0.50135300052E+02  0.00000000000E+00 0.  1.
         11    1    3    3    0    0 -0.38888757180E+02  0.25019874651E+02  0.26793600150E+01  0.46319634419E+02  0.00000000000E+00 0. -1.
         21    1    1    2  502  501  0.51294501604E+01 -0.34749599930E+02  0.12498693089E+03  0.12982903700E+03  0.00000000000E+00 0. -1.
<scales pt_clust_5="13000.00000" pt_clust_6="13000.00000" pt_clust_7="13000.00000" pt_clust_8="13000.00000" pt_clust_9="35.12614"></scales>
<clustering>
<clus scale="   35.126">  1  9  2 -1</clus>
<clus scale="   83.116">  5  6 -1 -1</clus>
<clus scale="   89.570">  7  8 -1 -1</clus>
<clus scale="   97.861">  2  5  1 -1</clus>
<clus scale="   97.861">  2  5  1 -1</clus>
</clustering>
</event>
<event>
 9    2  0.2869112E-005  0.1905624E+03  0.7546771E-02  0.1159335E+00
          2   -1    0    0  502    0  0.00000000000E+00  0.00000000000E+00  0.57289279439E+03  0.57289279439E+03  0.00000000000E+00 0. -1.
         -1   -1    0    0    0  501 -0.00000000000E+00 -0.00000000000E+00 -0.92093786025E+02  0.92093786025E+02  0.00000000000E+00 0.  1.
         24    2    1    2    0    0  0.18499737246E+03  0.55343583868E+02  0.13165647233E+03  0.24737848920E+03  0.81090999008E+02 0.  0.
         23    2    1    2    0    0 -0.14503042537E+03 -0.53684261228E+02  0.32163596236E+03  0.36906201200E+03  0.94027933235E+02 0.  0.
        -13    1    3    3    0    0  0.99553720191E+02  0.39560748073E+02  0.25357825374E+02  0.11008639925E+03  0.00000000000E+00 0.  1.
         14    1    3    3    0    0  0.85443652273E+02  0.15782835795E+02  0.10629864695E+03  0.13729208995E+03  0.00000000000E+00 0. -1.
        -13    1    4    4    0    0 -0.11302343831E+03 -0.64290543668E+02  0.30479388371E+03  0.33137121655E+03  0.00000000000E+00 0.  1.
         13    1    4    4    0    0 -0.32006987064E+02  0.10606282440E+02  0.16842078654E+02  0.37690795448E+02  0.00000000000E+00 0. -1.
         21    1    1    2  502  501 -0.39966947092E+02 -0.16593226398E+01  0.27506573672E+02  0.48546079209E+02  0.00000000000E+00 0.  1.
<scales pt_clust_5="13000.00000" pt_clust_6="13000.00000" pt_clust_7="13000.00000" pt_clust_8="13000.00000" pt_clust_9="40.00138"></scales>
<clustering>
<clus scale="   40.001">  2  9  1 -1</clus>
<clus scale="   81.091">  5  6 -1 -1</clus>
<clus scale="   94.028">  7  8 -1 -1</clus>
<clus scale="  184.522">  2  5  1 -1</clus>
<clus scale="  190.562">  1  5  2 -1</clus>
</clustering>
</event>
<event>
 9    2  0.2869112E-005  0.9645230E+02  0.7546771E-02  0.1294668E+00
         -1   -1    0    0    0  501 -0.00000000000E+00  0.00000000000E+00  0.12732732356E+03  0.12732732356E+03  0.00000000000E+00 0.  1.
          2   -1    0    0  502    0  0.00000000000E+00 -0.00000000000E+00 -0.16649217541E+03  0.16649217541E+03  0.00000000000E+00 0. -1.
         23    2    1    2    0    0 -0.27986359451E+02  0.25334602156E+02  0.25083047530E+02  0.10285886827E+03  0.92334766614E+02 0.  0.
         24    2    1    2    0    0  0.27180436190E+02 -0.10471614720E+01 -0.11014551837E+03  0.13902681979E+03  0.80352652392E+02 0.  0.
        -13    1    4    4    0    0  0.34919768441E+02 -0.17425722148E+02 -0.14424304708E+02  0.41606569032E+02  0.00000000000E+00 0.  1.
         14    1    4    4    0    0 -0.77393322512E+01  0.16378560676E+02 -0.95721213663E+02  0.97420250762E+02  0.00000000000E+00 0. -1.
        -13    1    3    3    0    0  0.85246657306E+01  0.50090163090E+02 -0.24323832421E+01  0.50868564482E+02  0.00000000000E+00 0. -1.
         13    1    3    3    0    0 -0.36511025182E+02 -0.24755560934E+02  0.27515430772E+02  0.51990303784E+02  0.00000000000E+00 0.  1.
         21    1    1    2  502  501  0.80592326143E+00 -0.24287440684E+02  0.45897618986E+02  0.51933810912E+02  0.00000000000E+00 0.  1.
<scales pt_clust_5="13000.00000" pt_clust_6="13000.00000" pt_clust_7="13000.00000" pt_clust_8="13000.00000" pt_clust_9="24.30081"></scales>
<clustering>
<clus scale="   24.301">  1  9  2 -1</clus>
<clus scale="   80.353">  5  6 -1 -1</clus>
<clus scale="   85.052">  2  5  1 -1</clus>
<clus scale="   92.335">  7  8 -1 -1</clus>
<clus scale="   85.052">  2  5  1 -1</clus>
</clustering>
</event>
<event>
 9    2  0.2869112E-005  0.1266591E+03  0.7546771E-02  0.1235232E+00
         -1   -1    0    0    0  501 -0.00000000000E+00  0.00000000000E+00  0.18066013036E+03  0.18066013036E+03  0.00000000000E+00 0.  1.
          2   -1    0    0  502    0  0.00000000000E+00 -0.00000000000E+00 -0.52599051956E+03  0.52599051956E+03  0.00000000000E+00 0. -1.
         24    2    1    2    0    0 -0.54506912616E+02  0.60630376668E+02  0.89289109288E+02  0.14557143846E+03  0.81064496298E+02 0.  0.
         23    2    1    2    0    0  0.90483154376E+02 -0.66429125105E+00 -0.46679221640E+03  0.48410320774E+03  0.90957682175E+02 0.  0.
        -13    1    3    3    0    0 -0.25588590568E+02  0.53769153455E+02  0.97935735784E+02  0.11461808834E+03  0.00000000000E+00 0.  1.
         14    1    3    3    0    0 -0.28918322048E+02  0.68612232137E+01 -0.86466264962E+01  0.30953350123E+02  0.00000000000E+00 0. -1.
        -11    1    4    4    0    0  0.18096885696E+02  0.20910011328E+02 -0.29891404495E+02  0.40721270957E+02  0.00000000000E+00 0.  1.
         11    1    4    4    0    0  0.72386268680E+02 -0.21574302579E+02 -0.43690081190E+03  0.44338193678E+03  0.00000000000E+00 0. -1.
         21    1    1    2  502  501 -0.35976241760E+02 -0.59966085417E+02  0.32172717910E+02  0.76976003723E+02  0.00000000000E+00 0. -1.
<scales pt_clust_5="13000.00000" pt_clust_6="13000.00000" pt_clust_7="13000.00000" pt_clust_8="13000.00000" pt_clust_9="69.93012"></scales>
<clustering>
<clus scale="   69.930">  1  9  2 -1</clus>
<clus scale="   81.064">  5  6 -1 -1</clus>
<clus scale="   90.958">  7  8 -1 -1</clus>
<clus scale="  119.753">  1  5  2 -1</clus>
<clus scale="  126.659">  2  5  1 -1</clus>
</clustering>
</event>
<event>
 9    2  0.2869112E-005  0.1218468E+03  0.7546771E-02  0.1243534E+00
         -1   -1    0    0    0  501 -0.00000000000E+00  0.00000000000E+00  0.26362148040E+02  0.26362148040E+02  0.00000000000E+00 0.  1.
          2   -1    0    0  502    0  0.00000000000E+00 -0.00000000000E+00 -0.82905590326E+03  0.82905590326E+03  0.00000000000E+00 0. -1.
         23    2    1    2    0    0 -0.23443361530E+02  0.86971519276E+02 -0.40638015717E+03  0.42647107588E+03  0.92839162318E+02 0.  0.
         24    2    1    2    0    0  0.55662275407E+01 -0.71048183005E+02 -0.38912034898E+03  0.40394922773E+03  0.81740475849E+02 0.  0.
        -13    1    4    4    0    0  0.41716476968E+02 -0.21630720102E+02 -0.18197870379E+03  0.18794786813E+03  0.00000000000E+00 0.  1.
         14    1    4    4    0    0 -0.36150249428E+02 -0.49417462903E+02 -0.20714164519E+03  0.21600135960E+03  0.00000000000E+00 0. -1.
        -13    1    3    3    0    0  0.30137610871E+02  0.15645118983E+02 -0.61627851540E+02  0.70363608652E+02  0.00000000000E+00 0.  1.
         13    1    3    3    0    0 -0.53580972401E+02  0.71326400293E+02 -0.34475230563E+03  0.35610746723E+03  0.00000000000E+00 0. -1.
         21    1    1    2  502  501  0.17877133989E+02 -0.15923336271E+02 -0.71932490771E+01  0.24997747697E+02  0.00000000000E+00 0.  1.
<scales pt_clust_5="13000.00000" pt_clust_6="13000.00000" pt_clust_7="13000.00000" pt_clust_8="13000.00000" pt_clust_9="23.94044"></scales>
<clustering>
<clus scale="   23.940">  1  9  2 -1</clus>
<clus scale="   81.740">  5  6 -1 -1</clus>
<clus scale="   92.839">  7  8 -1 -1</clus>
<clus scale="  113.618">  2  5  1 -1</clus>
<clus scale="  113.618">  2  5  1 -1</clus>
</clustering>
</event>
<event>
 9    2  0.2869112E-005  0.1554594E+03  0.7546771E-02  0.1195775E+00
          2   -1    0    0  502    0  0.00000000000E+00  0.00000000000E+00  0.49169114819E+03  0.49169114819E+03  0.00000000000E+00 0. -1.
         -1   -1    0    0    0  501 -0.00000000000E+00 -0.00000000000E+00 -0.10217136412E+03  0.10217136412E+03  0.00000000000E+00 0.  1.
         24    2    1    2    0    0  0.30135167776E+02  0.10108610818E+03  0.17605567526E+02  0.13341433158E+03  0.79767777069E+02 0.  0.
         23    2    1    2    0    0 -0.74222536275E+02 -0.11047756690E+03  0.38170411320E+03  0.41432077419E+03  0.90826186823E+02 0.  0.
        -11    1    3    3    0    0 -0.15239801877E+02  0.77226149212E+02 -0.14300826364E+01  0.78728487981E+02  0.00000000000E+00 0.  1.
         12    1    3    3    0    0  0.45374969653E+02  0.23859958973E+02  0.19035650162E+02  0.54685843600E+02  0.00000000000E+00 0. -1.
        -11    1    4    4    0    0 -0.28646288300E+02 -0.18887120362E+02  0.22986612546E+02  0.41300332992E+02  0.00000000000E+00 0.  1.
         11    1    4    4    0    0 -0.45576247975E+02 -0.91590446540E+02  0.35871750065E+03  0.37302044120E+03  0.00000000000E+00 0. -1.
         21    1    1    2  502  501  0.44087368500E+02  0.93914587169E+01 -0.97898966494E+01  0.46127406544E+02  0.00000000000E+00 0.  1.
<scales pt_clust_5="13000.00000" pt_clust_6="13000.00000" pt_clust_7="13000.00000" pt_clust_8="13000.00000" pt_clust_9="45.07655"></scales>
<clustering>
<clus scale="   45.077">  2  9  1 -1</clus>
<clus scale="   79.768">  5  6 -1 -1</clus>
<clus scale="   90.826">  7  8 -1 -1</clus>
<clus scale="  149.269">  2  5  1 -1</clus>
<clus scale="  155.459">  1  5  2 -1</clus>
</clustering>
</event>
<event>
 9    2  0.2869112E-005  0.9327014E+02  0.7546771E-02  0.1300283E+00
         -1   -1    0    0    0  501 -0.00000000000E+00  0.00000000000E+00  0.93921843498E+02  0.93921843498E+02  0.00000000000E+00 0.  1.
          2   -1    0    0  502    0  0.00000000000E+00 -0.00000000000E+00 -0.14993992707E+03  0.14993992707E+03  0.00000000000E+00 0. -1.
         23    2    1    2    0    0  0.75459879013E+01  0.58485158076E+01  0.16177626625E+02  0.91538854921E+02  0.89590732146E+02 0.  0.
         24    2    1    2    0    0 -0.12767368079E+02 -0.28998648970E+02 -0.88214425901E+02  0.12369092778E+03  0.80707703150E+02 0.  0.
        -13    1    4    4    0    0  0.28685433553E+02  0.60552975835E+01 -0.47552996595E+02  0.55864194366E+02  0.00000000000E+00 0.  1.
         14    1    4    4    0    0 -0.41452801632E+02 -0.35053946553E+02 -0.40661429306E+02  0.67826733412E+02  0.00000000000E+00 0. -1.
        -13    1    3    3    0    0 -0.27914632547E+02  0.27055928754E+01  0.39891924323E+02  0.48763844898E+02  0.00000000000E+00 0.  1.
         13    1    3    3    0    0  0.35460620449E+02  0.31429229322E+01 -0.23714297698E+02  0.42775010023E+02  0.00000000000E+00 0. -1.
         21    1    1    2  502  501  0.52213801775E+01  0.23150133162E+02  0.16018715706E+02  0.28631987868E+02  0.00000000000E+00 0.  1.
<scales pt_clust_5="13000.00000" pt_clust_6="13000.00000" pt_clust_7="13000.00000" pt_clust_8="13000.00000" pt_clust_9="23.73166"></scales>
<clustering>
<clus scale="   23.732">  1  9  2 -1</clus>
<clus scale="   80.708">  5  6 -1 -1</clus>
<clus scale="   84.774">  2  5  1 -1</clus>
<clus scale="   89.591">  7  8 -1 -1</clus>
<clus scale="   84.774">  2  5  1 -1</clus>
</clustering>
</event>
<event>
 9    2  0.2869112E-005  0.1055307E+03  0.7546771E-02  0.1275221E+00
         -1   -1    0    0    0  501 -0.00000000000E+00  0.00000000000E+00  0.32060266983E+03  0.32060266983E+03  0.00000000000E+00 0.  1.
          2   -1    0    0  502    0  0.00000000000E+00 -0.00000000000E+00 -0.21114429941E+03  0.21114429941E+03  0.00000000000E+00 0. -1.
         23    2    1    2    0    0  0.37147958154E+02 -0.36837776953E+02 -0.24185760111E+02  0.10523871210E+03  0.88052500964E+02 0.  0.
         24    2    1    2    0    0 -0.15496933880E+02  0.60788394982E+02 -0.12938988677E+03  0.16150015686E+03  0.73519888078E+02 0.  0.
        -11    1    4    4    0    0 -0.35723095619E+01  0.65133336901E+02 -0.13314423335E+03  0.14826496500E+03  0.00000000000E+00 0.  1.
         12    1    4    4    0    0 -0.11924624318E+02 -0.43449419191E+01  0.37543465781E+01  0.13235191863E+02  0.00000000000E+00 0. -1.
        -11    1    3    3    0    0  0.30329998050E+02 -0.65481401314E+02 -0.23112084343E+02  0.75775267354E+02  0.00000000000E+00 0. -1.
         11    1    3    3    0    0  0.68179601038E+01  0.28643624362E+02 -0.10736757681E+01  0.29463444744E+02  0.00000000000E+00 0.  1.
         21    1    1    2  502  501 -0.21651024274E+02 -0.23950618030E+02  0.26303401730E+03  0.26500810028E+03  0.00000000000E+00 0.  1.
<scales pt_clust_5="13000.00000" pt_clust_6="13000.00000" pt_clust_7="13000.00000" pt_clust_8="13000.00000" pt_clust_9="32.28620"></scales>
<clustering>
<clus scale="   32.286">  1  9  2 -1</clus>
<clus scale="   73.520">  5  6 -1 -1</clus>
<clus scale="   88.053">  7  8 -1 -1</clus>
<clus scale="   93.748">  2  5  1 -1</clus>
<clus scale="   93.748">  2  5  1 -1</clus>
</clustering>
</event>
<event>
 9    2  0.2869112E-005  0.8874176E+02  0.7546771E-02  0.1311345E+00
         -1   -1    0    0    0  501 -0.00000000000E+00  0.00000000000E+00  0.73253629888E+02  0.73253629888E+02  0.00000000000E+00 0.  1.
          2   -1    0    0  502    0  0.00000000000E+00 -0.00000000000E+00 -0.18180698857E+03  0.18180698857E+03  0.00000000000E+00 0. -1.
         23    2    1    2    0    0  0.89532258948E+01 -0.62371381984E+01  0.17849220026E+02  0.90256637747E+02  0.87798655200E+02 0.  0.
         24    2    1    2    0    0 -0.24747477512E+02 -0.85780935282E+01 -0.10658848886E+03  0.13545184907E+03  0.79373018889E+02 0.  0.
        -11    1    4    4    0    0 -0.36790673777E+02  0.14412649128E+02 -0.10161307484E+03  0.10902520402E+03  0.00000000000E+00 0.  1.
         12    1    4    4    0    0  0.12043196264E+02 -0.22990742656E+02 -0.49754140148E+01  0.26426645053E+02  0.00000000000E+00 0. -1.
        -13    1    3    3    0    0  0.36106939781E+01 -0.39747236320E+02 -0.15371672166E+02  0.42768776125E+02  0.00000000000E+00 0. -1.
         13    1    3    3    0    0  0.53425319167E+01  0.33510098121E+02  0.33220892192E+02  0.47487861622E+02  0.00000000000E+00 0.  1.
         21    1    1    2  502  501  0.15794251618E+02  0.14815231727E+02 -0.19814089847E+02  0.29352131638E+02  0.00000000000E+00 0. -1.
<scales pt_clust_5="13000.00000" pt_clust_6="13000.00000" pt_clust_7="13000.00000" pt_clust_8="13000.00000" pt_clust_9="21.65524"></scales>
<clustering>
<clus scale="   21.655">  2  9  1 -1</clus>
<clus scale="   79.373">  5  6 -1 -1</clus>
<clus scale="   80.415">  2  5  1 -1</clus>
<clus scale="   87.799">  7  8 -1 -1</clus>
<clus scale="   21.655">  2  5  1 -1</clus>
</clustering>
</event>
<event>
 9    2  0.2869112E-005  0.1261044E+03  0.7546771E-02  0.1236423E+00
          2   -1    0    0  502    0  0.00000000000E+00  0.00000000000E+00  0.57392943613E+03  0.57392943613E+03  0.00000000000E+00 0. -1.
         -1   -1    0    0    0  501 -0.00000000000E+00 -0.00000000000E+00 -0.82715525840E+02  0.82715525840E+02  0.00000000000E+00 0.  1.
         24    2    1    2    0    0  0.56445057091E+02  0.11363006789E+03  0.52705947757E+02  0.15854168331E+03  0.79118339332E+02 0.  0.
         23    2    1    2    0    0 -0.32132405636E+02 -0.75457442883E+02  0.43605521791E+03  0.45277922018E+03  0.90213923466E+02 0.  0.
        -11    1    3    3    0    0 -0.52015947571E+01  0.59590417666E+02 -0.22283511827E+01  0.59858499936E+02  0.00000000000E+00 0.  1.
         12    1    3    3    0    0  0.61646651848E+02  0.54039650222E+02  0.54934298940E+02  0.98683183371E+02  0.00000000000E+00 0. -1.
        -11    1    4    4    0    0 -0.22163081567E+02 -0.95441158514E+02  0.38026569582E+03  0.39268590036E+03  0.00000000000E+00 0. -1.
         11    1    4    4    0    0 -0.99693240689E+01  0.19983715631E+02  0.55789522084E+02  0.60093319821E+02  0.00000000000E+00 0.  1.
         21    1    1    2  502  501 -0.24312651455E+02 -0.38172625004E+02  0.24527446199E+01  0.45324058475E+02  0.00000000000E+00 0. -1.
<scales pt_clust_5="13000.00000" pt_clust_6="13000.00000" pt_clust_7="13000.00000" pt_clust_8="13000.00000" pt_clust_9="45.25764"></scales>
<clustering>
<clus scale="   45.258">  2  9  1 -1</clus>
<clus scale="   79.118">  5  6 -1 -1</clus>
<clus scale="   90.214">  7  8 -1 -1</clus>
<clus scale="  118.421">  2  5  1 -1</clus>
<clus scale="  126.104">  1  5  2 -1</clus>
</clustering>
</event>
<event>
 9    2  0.2869112E-005  0.9523998E+02  0.7546771E-02  0.1290840E+00
         -1   -1    0    0    0  501 -0.00000000000E+00  0.00000000000E+00  0.34550542083E+02  0.34550542083E+02  0.00000000000E+00 0.  1.
          2   -1    0    0  502    0  0.00000000000E+00 -0.00000000000E+00 -0.40876415457E+03  0.40876415457E+03  0.00000000000E+00 0. -1.
         24    2    1    2    0    0  0.22989276873E+02  0.39830160456E+02 -0.12249008255E+03  0.15362946408E+03  0.80518590271E+02 0.  0.
         23    2    1    2    0    0 -0.52210689980E+02 -0.24484220403E+02 -0.22970554031E+03  0.25000928611E+03  0.80091040037E+02 0.  0.
        -11    1    3    3    0    0  0.27169202914E+02 -0.57068870097E+01 -0.58858816450E+01  0.28379178090E+02  0.00000000000E+00 0.  1.
         12    1    3    3    0    0 -0.41799260408E+01  0.45537047466E+02 -0.11660420090E+03  0.12525028599E+03  0.00000000000E+00 0. -1.
        -13    1    4    4    0    0 -0.48563237152E+02  0.15956675176E+02 -0.80345373126E+02  0.95228055047E+02  0.00000000000E+00 0. -1.
         13    1    4    4    0    0 -0.36474528278E+01 -0.40440895579E+02 -0.14936016719E+03  0.15478123106E+03  0.00000000000E+00 0.  1.
         21    1    1    2  502  501  0.29221413106E+02 -0.15345940053E+02 -0.22017989622E+02  0.39675946454E+02  0.00000000000E+00 0. -1.
<scales pt_clust_5="13000.00000" pt_clust_6="13000.00000" pt_clust_7="13000.00000" pt_clust_8="13000.00000" pt_clust_9="33.00589"></scales>
<clustering>
<clus scale="   33.006">  1  9  2 -1</clus>
<clus scale="   80.091">  7  8 -1 -1</clus>
<clus scale="   80.519">  5  6 -1 -1</clus>
<clus scale="   94.879">  2  7  1 -1</clus>
<clus scale="   94.879">  2  5  1 -1</clus>
</clustering>
</event>
<event>
 9    2  0.2869112E-005  0.9503691E+02  0.7546771E-02  0.1296884E+00
         -1   -1    0    0    0  501 -0.00000000000E+00  0.00000000000E+00  0.85544670391E+02  0.85544670391E+02  0.00000000000E+00 0.  1.
          2   -1    0    0  502    0  0.00000000000E+00 -0.00000000000E+00 -0.22595726937E+03  0.22595726937E+03  0.00000000000E+00 0. -1.
         24    2    1    2    0    0 -0.72528388813E+01 -0.44060546461E+02  0.10016632999E+01  0.92116713159E+02  0.80563950297E+02 0.  0.
         23    2    1    2    0    0 -0.17603150095E+01  0.23812845688E+02 -0.16322264757E+03  0.18829162599E+03  0.90785204796E+02 0.  0.
        -13    1    3    3    0    0 -0.34832065303E+02 -0.52605832820E+02  0.30945578301E+01  0.63168209632E+02  0.00000000000E+00 0.  1.
         14    1    3    3    0    0  0.27579226421E+02  0.85452863587E+01 -0.20928945302E+01  0.28948503527E+02  0.00000000000E+00 0. -1.
        -13    1    4    4    0    0  0.37239571434E+02  0.31378455121E+02 -0.12042102454E+03  0.12989463529E+03  0.00000000000E+00 0.  1.
         13    1    4    4    0    0 -0.38999886443E+02 -0.75656094329E+01 -0.42801623029E+02  0.58396990698E+02  0.00000000000E+00 0. -1.
         21    1    1    2  502  501  0.90131538908E+01  0.20247700773E+02  0.21808385293E+02  0.31093600608E+02  0.00000000000E+00 0. -1.
<scales pt_clust_5="13000.00000" pt_clust_6="13000.00000" pt_clust_7="13000.00000" pt_clust_8="13000.00000" pt_clust_9="22.16318"></scales>
<clustering>
<clus scale="   22.163">  1  9  2 -1</clus>
<clus scale="   80.564">  5  6 -1 -1</clus>
<clus scale="   85.327">  1  5  2 -1</clus>
<clus scale="   90.785">  7  8 -1 -1</clus>
<clus scale="   95.037">  2  5  1 -1</clus>
</clustering>
</event>
<event>
 9    2  0.2869112E-005  0.1284515E+03  0.7546771E-02  0.1232599E+00
         -1   -1    0    0    0  501 -0.00000000000E+00  0.00000000000E+00  0.20523977723E+03  0.20523977723E+03  0.00000000000E+00 0.  1.
          2   -1    0    0  502    0  0.00000000000E+00 -0.00000000000E+00 -0.55941778506E+03  0.55941778506E+03  0.00000000000E+00 0. -1.
         23    2    1    2    0    0 -0.15531943269E+02 -0.35978277568E+02  0.95650747487E+02  0.13794189641E+03  0.91341247925E+02 0.  0.
         24    2    1    2    0    0  0.86385063565E+02  0.37544055699E+02 -0.51542093852E+03  0.53014988097E+03  0.80797383029E+02 0.  0.
        -13    1    4    4    0    0  0.75215787272E+02 -0.16413449307E+01 -0.23406381005E+03  0.24585763328E+03  0.00000000000E+00 0.  1.
         14    1    4    4    0    0  0.11169276293E+02  0.39185400630E+02 -0.28135712848E+03  0.28429224770E+03  0.00000000000E+00 0. -1.
        -11    1    3    3    0    0 -0.96028431175E+01  0.28742952432E+02  0.13459142671E+02  0.33159017354E+02  0.00000000000E+00 0. -1.
         11    1    3    3    0    0 -0.59291001514E+01 -0.64721230001E+02  0.82191604816E+02  0.10478287906E+03  0.00000000000E+00 0.  1.
         21    1    1    2  502  501 -0.70853120296E+02 -0.15657781310E+01  0.65592183206E+02  0.96565784907E+02  0.00000000000E+00 0. -1.
<scales pt_clust_5="13000.00000" pt_clust_6="13000.00000" pt_clust_7="13000.00000" pt_clust_8="13000.00000" pt_clust_9="70.87042"></scales>
<clustering>
<clus scale="   70.870">  1  9  2 -1</clus>
<clus scale="   80.797">  5  6 -1 -1</clus>
<clus scale="   91.341">  7  8 -1 -1</clus>
<clus scale="  121.181">  2  5  1 -1</clus>
<clus scale="  121.181">  2  5  1 -1</clus>
</clustering>
</event>
<event>
 9    2  0.2869112E-005  0.9728210E+02  0.7546771E-02  0.1288440E+00
         -1   -1    0    0    0  501 -0.00000000000E+00  0.00000000000E+00  0.30709330386E+03  0.30709330386E+03  0.00000000000E+00 0.  1.
          2   -1    0    0  502    0  0.00000000000E+00 -0.00000000000E+00 -0.25703439706E+03  0.25703439706E+03  0.00000000000E+00 0. -1.
         23    2    1    2    0    0 -0.16997894278E+02  0.30009468447E+02  0.22023246355E+03  0.24093975919E+03  0.91433762641E+02 0.  0.
         24    2    1    2    0    0 -0.12244764739E+02 -0.13083199990E+02 -0.23263429347E+03  0.25217403252E+03  0.95665687637E+02 0.  0.
        -11    1    4    4    0    0 -0.80125109450E+01 -0.39106485687E+02 -0.35919752767E+02  0.53700523213E+02  0.00000000000E+00 0.  1.
         12    1    4    4    0    0 -0.42322537943E+01  0.26023285698E+02 -0.19671454071E+03  0.19847350931E+03  0.00000000000E+00 0. -1.
        -13    1    3    3    0    0 -0.53083022736E+02  0.30763447666E+02  0.14724225094E+03  0.15951325173E+03  0.00000000000E+00 0.  1.
         13    1    3    3    0    0  0.36085128458E+02 -0.75397921915E+00  0.72990212611E+02  0.81426507462E+02  0.00000000000E+00 0. -1.
         21    1    1    2  502  501  0.29242659018E+02 -0.16926268457E+02  0.62460736718E+02  0.71013909213E+02  0.00000000000E+00 0. -1.
<scales pt_clust_5="13000.00000" pt_clust_6="13000.00000" pt_clust_7="13000.00000" pt_clust_8="13000.00000" pt_clust_9="33.78804"></scales>
<clustering>
<clus scale="   33.788">  1  9  2 -1</clus>
<clus scale="   91.434">  7  8 -1 -1</clus>
<clus scale="   93.124">  1  7  2 -1</clus>
<clus scale="   95.666">  5  6 -1 -1</clus>
<clus scale="   97.282">  2  5  1 -1</clus>
</clustering>
</event>
<event>
 9    2  0.2869112E-005  0.3427243E+03  0.7546771E-02  0.1112613E+00
          2   -1    0    0  502    0  0.00000000000E+00  0.00000000000E+00  0.67226488881E+03  0.67226488881E+03  0.00000000000E+00 0. -1.
         -1   -1    0    0    0  501 -0.00000000000E+00 -0.00000000000E+00 -0.39352536241E+03  0.39352536241E+03  0.00000000000E+00 0.  1.
         24    2    1    2    0    0  0.52625467490E+02  0.22362841309E+02 -0.52548201251E+02  0.11186097401E+03  0.80511039935E+02 0.  0.
         23    2    1    2    0    0 -0.29753629862E+03 -0.16641731388E+03  0.50876847597E+03  0.61891819934E+03  0.89396890229E+02 0.  0.
        -11    1    3    3    0    0  0.41461412585E+02 -0.17873939522E+02 -0.53611237893E+02  0.70090593348E+02  0.00000000000E+00 0.  1.
         12    1    3    3    0    0  0.11164054906E+02  0.40236780831E+02  0.10630366417E+01  0.41770380660E+02  0.00000000000E+00 0. -1.
        -13    1    4    4    0    0 -0.26806393640E+02 -0.38931715020E+02  0.36054575670E+02  0.59449084106E+02  0.00000000000E+00 0.  1.
         13    1    4    4    0    0 -0.27072990498E+03 -0.12748559886E+03  0.47271390030E+03  0.55946911524E+03  0.00000000000E+00 0. -1.
         21    1    1    2  502  501  0.24491083113E+03  0.14405447257E+03 -0.17748074832E+03  0.33501107787E+03  0.00000000000E+00 0.  1.
<scales pt_clust_5="13000.00000" pt_clust_6="13000.00000" pt_clust_7="13000.00000" pt_clust_8="13000.00000" pt_clust_9="330.85969"></scales>
<clustering>
<clus scale="   80.511">  5  6 -1 -1</clus>
<clus scale="   89.397">  7  8 -1 -1</clus>
<clus scale="   98.750">  2  5  1 -1</clus>
<clus scale="  330.860">  2  9  1 -1</clus>
<clus scale="  342.724">  1  5  2 -1</clus>
</clustering>
</event>
<event>
 9    2  0.2869112E-005  0.1304060E+03  0.7546771E-02  0.1240393E+00
          2   -1    0    0  502    0  0.00000000000E+00  0.00000000000E+00  0.92746109320E+03  0.92746109320E+03  0.00000000000E+00 0. -1.
         -1   -1    0    0    0  501 -0.00000000000E+00 -0.00000000000E+00 -0.10130221898E+03  0.10130221898E+03  0.00000000000E+00 0.  1.
         23    2    1    2    0    0  0.81944922246E+01 -0.58545856652E+02 -0.48486358881E+02  0.13928324538E+03  0.11642219896E+03 0.  0.
         24    2    1    2    0    0 -0.29294605431E+02  0.51057959862E+02  0.85172062004E+03  0.85743601494E+03  0.79394054859E+02 0.  0.
        -11    1    4    4    0    0 -0.24928955541E+02 -0.60655779823E+01  0.90609753524E+02  0.94172031380E+02  0.00000000000E+00 0.  1.
         12    1    4    4    0    0 -0.43656498906E+01  0.57123537844E+02  0.76111086652E+03  0.76326398356E+03  0.00000000000E+00 0. -1.
        -11    1    3    3    0    0 -0.42546346680E+01  0.32390513782E+02  0.50034862335E+01  0.33049692491E+02  0.00000000000E+00 0. -1.
         11    1    3    3    0    0  0.12449126893E+02 -0.90936370434E+02 -0.53489845114E+02  0.10623355288E+03  0.00000000000E+00 0.  1.
         21    1    1    2  502  501  0.21100113207E+02  0.74878967903E+01  0.22924613058E+02  0.32044051859E+02  0.00000000000E+00 0.  1.
<scales pt_clust_5="13000.00000" pt_clust_6="13000.00000" pt_clust_7="13000.00000" pt_clust_8="13000.00000" pt_clust_9="22.38936"></scales>
<clustering>
<clus scale="   22.389">  2  9  1 -1</clus>
<clus scale="   79.394">  5  6 -1 -1</clus>
<clus scale="   98.767">  1  5  2 -1</clus>
<clus scale="  116.422">  7  8 -1 -1</clus>
<clus scale="   98.767">  1  5  2 -1</clus>
</clustering>
</event>
<event>
 9    2  0.2869112E-005  0.1024272E+03  0.7546771E-02  0.1286020E+00
         -1   -1    0    0    0  501 -0.00000000000E+00  0.00000000000E+00  0.10534680317E+03  0.10534680317E+03  0.00000000000E+00 0.  1.
          2   -1    0    0  502    0  0.00000000000E+00 -0.00000000000E+00 -0.34923025265E+03  0.34923025265E+03  0.00000000000E+00 0. -1.
         23    2    1    2    0    0  0.69729836748E+02 -0.36471149338E+02  0.37863009132E+02  0.12608218214E+03  0.90943467752E+02 0.  0.
         24    2    1    2    0    0 -0.45380857621E+02 -0.40305875143E+01 -0.26622694025E+03  0.27875435776E+03  0.68931417978E+02 0.  0.
        -13    1    4    4    0    0 -0.27468782093E+01 -0.27940328355E+02 -0.52785247367E+02  0.59787035618E+02  0.00000000000E+00 0.  1.
         14    1    4    4    0    0 -0.42633979412E+02  0.23909740841E+02 -0.21344169288E+03  0.21896732215E+03  0.00000000000E+00 0. -1.
        -13    1    3    3    0    0 -0.15356238207E+02 -0.30668407625E+02  0.17017361338E+02  0.38287803084E+02  0.00000000000E+00 0.  1.
         13    1    3    3    0    0  0.85086074955E+02 -0.58027417135E+01  0.20845647793E+02  0.87794379060E+02  0.00000000000E+00 0. -1.
         21    1    1    2  502  501 -0.24348979127E+02  0.40501736852E+02 -0.15519518365E+02  0.49740515909E+02  0.00000000000E+00 0. -1.
<scales pt_clust_5="13000.00000" pt_clust_6="13000.00000" pt_clust_7="13000.00000" pt_clust_8="13000.00000" pt_clust_9="47.25742"></scales>
<clustering>
<clus scale="   47.257">  1  9  2 -1</clus>
<clus scale="   68.931">  5  6 -1 -1</clus>
<clus scale="   83.499">  2  5  1 -1</clus>
<clus scale="   90.943">  7  8 -1 -1</clus>
<clus scale="   83.499">  2  5  1 -1</clus>
</clustering>
</event>
<event>
 9    2  0.2869112E-005  0.9133164E+02  0.7546771E-02  0.1305814E+00
         -1   -1    0    0    0  501 -0.00000000000E+00  0.00000000000E+00  0.19320517164E+03  0.19320517164E+03  0.00000000000E+00 0.  1.
          2   -1    0    0  502    0  0.00000000000E+00 -0.00000000000E+00 -0.15001326553E+03  0.15001326553E+03  0.00000000000E+00 0. -1.
         23    2    1    2    0    0 -0.13594781289E+02 -0.76696514500E+01  0.15798671945E+03  0.18228026595E+03  0.89569248073E+02 0.  0.
         24    2    1    2    0    0  0.37564093955E+02  0.76364320987E+01 -0.83909861699E+02  0.12184329571E+03  0.79596152984E+02 0.  0.
        -13    1    4    4    0    0  0.36427002140E+02 -0.38455983975E+01  0.51557656284E+00  0.36633057901E+02  0.00000000000E+00 0.  1.
         14    1    4    4    0    0  0.11370918142E+01  0.11482030496E+02 -0.84425438262E+02  0.85210237811E+02  0.00000000000E+00 0. -1.
        -11    1    3    3    0    0 -0.25514126377E+02 -0.44804162688E+02  0.81847240700E+02  0.96733419505E+02  0.00000000000E+00 0.  1.
         11    1    3    3    0    0  0.11919345088E+02  0.37134511238E+02  0.76139478755E+02  0.85546846448E+02  0.00000000000E+00 0. -1.
         21    1    1    2  502  501 -0.23969312666E+02  0.33219351341E-01 -0.30884951645E+02  0.39094875512E+02  0.00000000000E+00 0. -1.
<scales pt_clust_5="13000.00000" pt_clust_6="13000.00000" pt_clust_7="13000.00000" pt_clust_8="13000.00000" pt_clust_9="23.96934"></scales>
<clustering>
<clus scale="   23.969">  2  9  1 -1</clus>
<clus scale="   79.596">  5  6 -1 -1</clus>
<clus scale="   81.574">  2  5  1 -1</clus>
<clus scale="   89.569">  7  8 -1 -1</clus>
<clus scale="   23.969">  2  5  1 -1</clus>
</clustering>
</event>
<event>
 9    2  0.2869112E-005  0.3713723E+03  0.7546771E-02  0.1102792E+00
          2   -1    0    0  502    0  0.00000000000E+00  0.00000000000E+00  0.32753597681E+03  0.32753597681E+03  0.00000000000E+00 0. -1.
         -1   -1    0    0    0  501 -0.00000000000E+00 -0.00000000000E+00 -0.14909738288E+04  0.14909738288E+04  0.00000000000E+00 0.  1.
         23    2    1    2    0    0 -0.10086241673E+03  0.35672190433E+03  0.14025434917E+03  0.40574560562E+03  0.86801324191E+02 0.  0.
         24    2    1    2    0    0 -0.48092407068E+02 -0.28387555209E+02 -0.56847524838E+02  0.11483791888E+03  0.82688412879E+02 0.  0.
        -11    1    4    4    0    0  0.14949974834E+02 -0.33299437538E+02 -0.19143315163E+02  0.41216753915E+02  0.00000000000E+00 0.  1.
         12    1    4    4    0    0 -0.63042381901E+02  0.49118823293E+01 -0.37704209675E+02  0.73621164966E+02  0.00000000000E+00 0. -1.
        -13    1    3    3    0    0 -0.46417194170E+02  0.28718015497E+03  0.12256210827E+03  0.31567145532E+03  0.00000000000E+00 0. -1.
         13    1    3    3    0    0 -0.54445222557E+02  0.69541749360E+02  0.17692240903E+02  0.90074150296E+02  0.00000000000E+00 0.  1.
         21    1    1    2  502  501  0.14895482379E+03 -0.32833434912E+03 -0.12468446764E+04  0.12979262812E+04  0.00000000000E+00 0.  1.
<scales pt_clust_5="13000.00000" pt_clust_6="13000.00000" pt_clust_7="13000.00000" pt_clust_8="13000.00000" pt_clust_9="361.08570"></scales>
<clustering>
<clus scale="   82.688">  5  6 -1 -1</clus>
<clus scale="   86.801">  7  8 -1 -1</clus>
<clus scale="   99.780">  1  5  2 -1</clus>
<clus scale="  361.086">  2  9  1 -1</clus>
<clus scale="   99.780">  1  5  2 -1</clus>
</clustering>
</event>
<event>
 9    2  0.2869112E-005  0.9841639E+02  0.7546771E-02  0.1283909E+00
         -1   -1    0    0    0  501 -0.00000000000E+00  0.00000000000E+00  0.83210045460E+02  0.83210045460E+02  0.00000000000E+00 0.  1.
          2   -1    0    0  502    0  0.00000000000E+00 -0.00000000000E+00 -0.35314154599E+03  0.35314154599E+03  0.00000000000E+00 0. -1.
         23    2    1    2    0    0  0.73219459717E+00 -0.36081613240E+02  0.24279380815E+02  0.90018393677E+02  0.78812460592E+02 0.  0.
         24    2    1    2    0    0 -0.36504943566E+02  0.50547264591E+02 -0.29053601799E+03  0.30757175742E+03  0.79382437302E+02 0.  0.
        -13    1    4    4    0    0 -0.58285432126E+01 -0.19169365590E+02 -0.29578305235E+02  0.35725517962E+02  0.00000000000E+00 0.  1.
         14    1    4    4    0    0 -0.30676400354E+02  0.69716630181E+02 -0.26095771275E+03  0.27184623946E+03  0.00000000000E+00 0. -1.
        -11    1    3    3    0    0 -0.24762541347E+02 -0.24175316515E+02 -0.18172535894E+02  0.39087983362E+02  0.00000000000E+00 0. -1.
         11    1    3    3    0    0  0.25494735944E+02 -0.11906296726E+02  0.42451916709E+02  0.50930410315E+02  0.00000000000E+00 0.  1.
         21    1    1    2  502  501  0.35772748969E+02 -0.14465651351E+02 -0.36748633613E+01  0.38761440357E+02  0.00000000000E+00 0.  1.
<scales pt_clust_5="13000.00000" pt_clust_6="13000.00000" pt_clust_7="13000.00000" pt_clust_8="13000.00000" pt_clust_9="38.58685"></scales>
<clustering>
<clus scale="   38.587">  1  9  2 -1</clus>
<clus scale="   78.812">  7  8 -1 -1</clus>
<clus scale="   79.382">  5  6 -1 -1</clus>
<clus scale="   97.957">  1  7  2 -1</clus>
<clus scale="   98.416">  2  5  1 -1</clus>
</clustering>
</event>
<event>
 9    2  0.2869112E-005  0.1003563E+03  0.7546771E-02  0.1287100E+00
          2   -1    0    0  502    0  0.00000000000E+00  0.00000000000E+00  0.86998805917E+03  0.86998805917E+03  0.00000000000E+00 0. -1.
         -1   -1    0    0    0  501 -0.00000000000E+00 -0.00000000000E+00 -0.23920032969E+02  0.23920032969E+02  0.00000000000E+00 0.  1.
         23    2    1    2    0    0 -0.28153824234E+02 -0.58880432302E+01  0.18798854311E+03  0.21190600252E+03  0.93472748392E+02 0.  0.
         24    2    1    2    0    0  0.25135092668E+02  0.30937311787E+02  0.64928833875E+03  0.65528387833E+03  0.78947604232E+02 0.  0.
        -11    1    4    4    0    0  0.29072540501E+02 -0.19633785829E+02  0.19081103259E+03  0.19400914493E+03  0.00000000000E+00 0.  1.
         12    1    4    4    0    0 -0.39374478324E+01  0.50571097616E+02  0.45847730616E+03  0.46127473340E+03  0.00000000000E+00 0. -1.
        -11    1    3    3    0    0 -0.55392782133E+02 -0.25404744721E+02  0.93072760817E+02  0.11124882099E+03  0.00000000000E+00 0.  1.
         11    1    3    3    0    0  0.27238957899E+02  0.19516701491E+02  0.94915782296E+02  0.10065718153E+03  0.00000000000E+00 0. -1.
         21    1    1    2  502  501  0.30187315656E+01 -0.25049268557E+02  0.87911443333E+01  0.26718211283E+02  0.00000000000E+00 0.  1.
<scales pt_clust_5="13000.00000" pt_clust_6="13000.00000" pt_clust_7="13000.00000" pt_clust_8="13000.00000" pt_clust_9="25.23051"></scales>
<clustering>
<clus scale="   25.231">  2  9  1 -1</clus>
<clus scale="   78.948">  5  6 -1 -1</clus>
<clus scale="   86.988">  1  5  2 -1</clus>
<clus scale="   93.473">  7  8 -1 -1</clus>
<clus scale="   86.988">  1  5  2 -1</clus>
</clustering>
</event>
<event>
 9    2  0.2869112E-005  0.9238081E+02  0.7546771E-02  0.1300967E+00
          4   -1    0    0  502    0  0.00000000000E+00  0.00000000000E+00  0.24571322433E+03  0.24571322433E+03  0.00000000000E+00 0. -1.
         -3   -1    0    0    0  501 -0.00000000000E+00 -0.00000000000E+00 -0.24900968645E+03  0.24900968645E+03  0.00000000000E+00 0.  1.
         24    2    1    2    0    0  0.42516428286E+02 -0.11818094273E+02 -0.82630831912E+01  0.96163354710E+02  0.85039980120E+02 0.  0.
         23    2    1    2    0    0  0.11654167304E+02 -0.19134910134E+02  0.18526521887E+03  0.20777138486E+03  0.91344308217E+02 0.  0.
        -13    1    3    3    0    0  0.36187091360E+02  0.32752959045E+02 -0.14011145903E+02  0.50779662433E+02  0.00000000000E+00 0.  1.
         14    1    3    3    0    0  0.63293369263E+01 -0.44571053318E+02  0.57480627114E+01  0.45383692278E+02  0.00000000000E+00 0. -1.
        -13    1    4    4    0    0 -0.16649239807E+02  0.20703472463E+02  0.14741341002E+02  0.30383187666E+02  0.00000000000E+00 0.  1.
         13    1    4    4    0    0  0.28303407110E+02 -0.39838382597E+02  0.17052387786E+03  0.17738819719E+03  0.00000000000E+00 0. -1.
         21    1    1    2  502  501 -0.54170595590E+02  0.30953004407E+02 -0.18029859780E+03  0.19078817122E+03  0.00000000000E+00 0.  1.
<scales pt_clust_5="13000.00000" pt_clust_6="13000.00000" pt_clust_7="13000.00000" pt_clust_8="13000.00000" pt_clust_9="62.39024"></scales>
<clustering>
<clus scale="   62.390">  2  9  1 -1</clus>
<clus scale="   85.040">  5  6 -1 -1</clus>
<clus scale="   86.152">  2  5  1 -1</clus>
<clus scale="   91.344">  7  8 -1 -1</clus>
<clus scale="   92.381">  1  5  2 -1</clus>
</clustering>
</event>
<event>
 9    2  0.2869112E-005  0.9984023E+02  0.7546771E-02  0.1291645E+00
         -1   -1    0    0    0  501 -0.00000000000E+00  0.00000000000E+00  0.45665819685E+02  0.45665819685E+02  0.00000000000E+00 0.  1.
          2   -1    0    0  502    0  0.00000000000E+00 -0.00000000000E+00 -0.49510638466E+03  0.49510638466E+03  0.00000000000E+00 0. -1.
         23    2    1    2    0    0  0.57814568471E+01 -0.24455248179E+02 -0.36901920236E+02  0.10910587955E+03  0.99553286377E+02 0.  0.
         24    2    1    2    0    0  0.90941748774E+01 -0.44847309664E+01 -0.36558617992E+03  0.37454066712E+03  0.80775240957E+02 0.  0.
        -11    1    4    4    0    0 -0.31394419523E+02  0.16552405839E+02 -0.17580356021E+03  0.17935017006E+03  0.00000000000E+00 0.  1.
         12    1    4    4    0    0  0.40488594400E+02 -0.21037136806E+02 -0.18978261971E+03  0.19519049707E+03  0.00000000000E+00 0. -1.
        -13    1    3    3    0    0 -0.43213579339E+02 -0.10091265545E+02  0.27477759993E+01  0.44461189284E+02  0.00000000000E+00 0.  1.
         13    1    3    3    0    0  0.48995036186E+02 -0.14363982634E+02 -0.39649696236E+02  0.64644690266E+02  0.00000000000E+00 0. -1.
         21    1    1    2  502  501 -0.14875631724E+02  0.28939979146E+02 -0.46952464824E+02  0.57125657678E+02  0.00000000000E+00 0.  1.
<scales pt_clust_5="13000.00000" pt_clust_6="13000.00000" pt_clust_7="13000.00000" pt_clust_8="13000.00000" pt_clust_9="32.53931"></scales>
<clustering>
<clus scale="   32.539">  1  9  2 -1</clus>
<clus scale="   80.775">  5  6 -1 -1</clus>
<clus scale="   81.129">  2  5  1 -1</clus>
<clus scale="   99.553">  7  8 -1 -1</clus>
<clus scale="   81.129">  2  5  1 -1</clus>
</clustering>
</event>
<event>
 9    2  0.2869112E-005  0.9285254E+02  0.7546771E-02  0.1302583E+00
          2   -1    0    0  502    0  0.00000000000E+00  0.00000000000E+00  0.69740764491E+03  0.69740764491E+03  0.00000000000E+00 0. -1.
         -1   -1    0    0    0  501 -0.00000000000E+00 -0.00000000000E+00 -0.27005504615E+02  0.27005504615E+02  0.00000000000E+00 0.  1.
         23    2    1    2    0    0 -0.11106971372E+02 -0.13333137105E+01  0.13446037980E+03  0.16255428417E+03  0.90659577701E+02 0.  0.
         24    2    1    2    0    0 -0.55202585417E+01  0.24310821443E+02  0.52473001579E+03  0.53136076942E+03  0.79882341667E+02 0.  0.
        -11    1    4    4    0    0  0.13271326101E+02 -0.26340713406E+02  0.16981375510E+03  0.17235623777E+03  0.00000000000E+00 0.  1.
         12    1    4    4    0    0 -0.18791584643E+02  0.50651534849E+02  0.35491626069E+03  0.35900453164E+03  0.00000000000E+00 0. -1.
        -11    1    3    3    0    0 -0.35313463504E+02 -0.15676377104E+01  0.11408213820E+02  0.37143580000E+02  0.00000000000E+00 0.  1.
         11    1    3    3    0    0  0.24206492132E+02  0.23432399995E+00  0.12305216598E+03  0.12541070418E+03  0.00000000000E+00 0. -1.
         21    1    1    2  502  501  0.16627229914E+02 -0.22977507732E+02  0.11211744704E+02  0.30498095933E+02  0.00000000000E+00 0.  1.
<scales pt_clust_5="13000.00000" pt_clust_6="13000.00000" pt_clust_7="13000.00000" pt_clust_8="13000.00000" pt_clust_9="28.36249"></scales>
<clustering>
<clus scale="   28.362">  2  9  1 -1</clus>
<clus scale="   79.882">  5  6 -1 -1</clus>
<clus scale="   82.363">  1  5  2 -1</clus>
<clus scale="   90.660">  7  8 -1 -1</clus>
<clus scale="   82.363">  1  5  2 -1</clus>
</clustering>
</event>
<event>
 9    2  0.4337524E-005  0.1306782E+03  0.7546771E-02  0.1229035E+00
         -1   -1    0    0    0  501 -0.00000000000E+00  0.00000000000E+00  0.15795099802E+03  0.15795099802E+03  0.00000000000E+00 0.  1.
          2   -1    0    0  502    0  0.00000000000E+00 -0.00000000000E+00 -0.54542338491E+03  0.54542338491E+03  0.00000000000E+00 0. -1.
         24    2    1    2    0    0 -0.74124340588E+02  0.17395698336E+02  0.11015951533E+03  0.15653859243E+03  0.81069007120E+02 0.  0.
         23    2    1    2    0    0  0.88100724476E+02 -0.35030373447E+02 -0.50601411344E+03  0.52282365736E+03  0.91134126278E+02 0.  0.
        -11    1    3    3    0    0 -0.67454767702E+02  0.52136428811E+00  0.29087405505E+02  0.73460837631E+02  0.00000000000E+00 0.  1.
         12    1    3    3    0    0 -0.66695728863E+01  0.16874334048E+02  0.81072109820E+02  0.83077754800E+02  0.00000000000E+00 0. -1.
        -11    1    4    4    0    0 -0.65512083852E+01  0.20530516670E+02 -0.94345495515E+02  0.96775477111E+02  0.00000000000E+00 0.  1.
         11    1    4    4    0    0  0.94651932862E+02 -0.55560890117E+02 -0.41166861793E+03  0.42604818025E+03  0.00000000000E+00 0. -1.
         21    1    1    2  502  501 -0.13976383889E+02  0.17634675111E+02  0.83822112301E+01  0.24012133141E+02  0.00000000000E+00 0.  1.
<scales pt_clust_5="13000.00000" pt_clust_6="13000.00000" pt_clust_7="13000.00000" pt_clust_8="13000.00000" pt_clust_9="22.50158"></scales>
<clustering>
<clus scale="   22.502">  1  9  2 -1</clus>
<clus scale="   81.069">  5  6 -1 -1</clus>
<clus scale="   91.134">  7  8 -1 -1</clus>
<clus scale="  123.869">  1  5  2 -1</clus>
<clus scale="  130.678">  2  5  1 -1</clus>
</clustering>
</event>
<event>
 9    2  0.2869112E-005  0.1203575E+03  0.7546771E-02  0.1246472E+00
         -1   -1    0    0    0  501 -0.00000000000E+00  0.00000000000E+00  0.35509613450E+03  0.35509613450E+03  0.00000000000E+00 0.  1.
          2   -1    0    0  502    0  0.00000000000E+00 -0.00000000000E+00 -0.21866910383E+03  0.21866910383E+03  0.00000000000E+00 0. -1.
         23    2    1    2    0    0 -0.10187045760E+02  0.46829288742E+02  0.17490861242E+03  0.20360423049E+03  0.92546754620E+02 0.  0.
         24    2    1    2    0    0 -0.72265646322E+02 -0.39963359807E+02 -0.17563646227E+03  0.20998282998E+03  0.80157521428E+02 0.  0.
        -11    1    4    4    0    0 -0.31916661580E+02 -0.38380822451E+02 -0.15839762092E+03  0.16607699158E+03  0.00000000000E+00 0.  1.
         12    1    4    4    0    0 -0.40348984743E+02 -0.15825373559E+01 -0.17238841344E+02  0.43905838394E+02  0.00000000000E+00 0. -1.
        -11    1    3    3    0    0  0.15173998255E+02 -0.23921539602E+02  0.59193903612E+02  0.65623231441E+02  0.00000000000E+00 0. -1.
         11    1    3    3    0    0 -0.25361044015E+02  0.70750828344E+02  0.11571470881E+03  0.13798099905E+03  0.00000000000E+00 0.  1.
         21    1    1    2  502  501  0.82452692083E+02 -0.68659289347E+01  0.13715488052E+03  0.16017817786E+03  0.00000000000E+00 0.  1.
<scales pt_clust_5="13000.00000" pt_clust_6="13000.00000" pt_clust_7="13000.00000" pt_clust_8="13000.00000" pt_clust_9="82.73807"></scales>
<clustering>
<clus scale="   80.158">  5  6 -1 -1</clus>
<clus scale="   82.738">  1  9  2 -1</clus>
<clus scale="   92.547">  7  8 -1 -1</clus>
<clus scale="  111.114">  2  5  1 -1</clus>
<clus scale="  111.114">  2  5  1 -1</clus>
</clustering>
</event>
<event>
 9    2  0.2869112E-005  0.9347511E+02  0.7546771E-02  0.1300671E+00
          2   -1    0    0  502    0  0.00000000000E+00  0.00000000000E+00  0.27432658338E+03  0.27432658338E+03  0.00000000000E+00 0. -1.
         -1   -1    0    0    0  501 -0.00000000000E+00 -0.00000000000E+00 -0.43951462013E+02  0.43951462013E+02  0.00000000000E+00 0.  1.
         23    2    1    2    0    0 -0.50077111935E+01  0.20621698523E+02  0.73012066775E+02  0.11898322219E+03  0.91520017731E+02 0.  0.
         24    2    1    2    0    0  0.25064214989E+02  0.24155380353E+01  0.14069891273E+03  0.16450012193E+03  0.81425158128E+02 0.  0.
        -13    1    4    4    0    0 -0.64788038814E+01  0.32683936102E+02  0.27668201470E+02  0.43309859748E+02  0.00000000000E+00 0.  1.
         14    1    4    4    0    0  0.31543018870E+02 -0.30268398067E+02  0.11303071126E+03  0.12119026218E+03  0.00000000000E+00 0. -1.
        -13    1    3    3    0    0 -0.93646622090E+01  0.45734531951E+02  0.57282300658E+01  0.47033572379E+02  0.00000000000E+00 0.  1.
         13    1    3    3    0    0  0.43569510156E+01 -0.25112833428E+02  0.67283836709E+02  0.71949649806E+02  0.00000000000E+00 0. -1.
         21    1    1    2  502  501 -0.20056503795E+02 -0.23037236558E+02  0.16664141865E+02  0.34794701275E+02  0.00000000000E+00 0. -1.
<scales pt_clust_5="13000.00000" pt_clust_6="13000.00000" pt_clust_7="13000.00000" pt_clust_8="13000.00000" pt_clust_9="30.54468"></scales>
<clustering>
<clus scale="   30.545">  2  9  1 -1</clus>
<clus scale="   81.425">  5  6 -1 -1</clus>
<clus scale="   83.617">  1  5  2 -1</clus>
<clus scale="   91.520">  7  8 -1 -1</clus>
<clus scale="   83.617">  1  5  2 -1</clus>
</clustering>
</event>
<event>
 9    2  0.2869112E-005  0.9187744E+02  0.7546771E-02  0.1303468E+00
         -1   -1    0    0    0  501 -0.00000000000E+00  0.00000000000E+00  0.48777526110E+02  0.48777526110E+02  0.00000000000E+00 0.  1.
          2   -1    0    0  502    0  0.00000000000E+00 -0.00000000000E+00 -0.23933063476E+03  0.23933063476E+03  0.00000000000E+00 0. -1.
         24    2    1    2    0    0 -0.31959623538E+02 -0.18666108820E+02 -0.91568538586E+02  0.12609777507E+03  0.78396495232E+02 0.  0.
         23    2    1    2    0    0  0.24019700047E+02 -0.14620493331E+01 -0.10596060058E+03  0.13927604751E+03  0.87126832583E+02 0.  0.
        -11    1    3    3    0    0 -0.53272020537E+02 -0.15342750153E+02 -0.35012786905E+02  0.65568310952E+02  0.00000000000E+00 0.  1.
         12    1    3    3    0    0  0.21312396999E+02 -0.33233586676E+01 -0.56555751681E+02  0.60529464122E+02  0.00000000000E+00 0. -1.
        -13    1    4    4    0    0  0.97002840858E+01 -0.38975369843E+02 -0.84930631494E+02  0.93948853807E+02  0.00000000000E+00 0. -1.
         13    1    4    4    0    0  0.14319415961E+02  0.37513320510E+02 -0.21029969086E+02  0.45327193702E+02  0.00000000000E+00 0.  1.
         21    1    1    2  502  501  0.79399234909E+01  0.20128158153E+02  0.69760305136E+01  0.22734338288E+02  0.00000000000E+00 0.  1.
<scales pt_clust_5="13000.00000" pt_clust_6="13000.00000" pt_clust_7="13000.00000" pt_clust_8="13000.00000" pt_clust_9="21.63759"></scales>
<clustering>
<clus scale="   21.638">  1  9  2 -1</clus>
<clus scale="   78.396">  5  6 -1 -1</clus>
<clus scale="   83.644">  1  5  2 -1</clus>
<clus scale="   87.127">  7  8 -1 -1</clus>
<clus scale="   91.877">  2  5  1 -1</clus>
</clustering>
</event>
<event>
 9    2  0.2869112E-005  0.2780568E+03  0.7546771E-02  0.1097342E+00
          2   -1    0    0  502    0  0.00000000000E+00  0.00000000000E+00  0.79750467432E+03  0.79750467432E+03  0.00000000000E+00 0. -1.
         -1   -1    0    0    0  501 -0.00000000000E+00 -0.00000000000E+00 -0.14316883774E+03  0.14316883774E+03  0.00000000000E+00 0.  1.
         24    2    1    2    0    0 -0.16488104775E+03  0.16202690536E+03  0.18920791429E+03  0.31013790852E+03  0.83351121804E+02 0.  0.
         23    2    1    2    0    0  0.26626122853E+03 -0.12449912720E+03  0.39492275955E+03  0.50163626271E+03  0.96332131510E+02 0.  0.
        -11    1    3    3    0    0 -0.87228296005E+02  0.13937429131E+03  0.11812342714E+03  0.20245274199E+03  0.00000000000E+00 0.  1.
         12    1    3    3    0    0 -0.77652751741E+02  0.22652614048E+02  0.71084487158E+02  0.10768516653E+03  0.00000000000E+00 0. -1.
        -11    1    4    4    0    0  0.22739111801E+03 -0.65612838698E+02  0.32732644348E+03  0.40392371279E+03  0.00000000000E+00 0. -1.
         11    1    4    4    0    0  0.38870110517E+02 -0.58886288502E+02  0.67596316069E+02  0.97712549917E+02  0.00000000000E+00 0.  1.
         21    1    1    2  502  501 -0.10138018078E+03 -0.37527778160E+02  0.70205162740E+02  0.12889934082E+03  0.00000000000E+00 0. -1.
<scales pt_clust_5="13000.00000" pt_clust_6="13000.00000" pt_clust_7="13000.00000" pt_clust_8="13000.00000" pt_clust_9="108.10308"></scales>
<clustering>
<clus scale="   83.351">  5  6 -1 -1</clus>
<clus scale="   96.332">  7  8 -1 -1</clus>
<clus scale="  108.103">  2  9  1 -1</clus>
<clus scale="  273.830">  2  5  1 -1</clus>
<clus scale="  278.057">  1  5  2 -1</clus>
</clustering>
</event>
<event>
 9    2  0.2869112E-005  0.2407716E+03  0.7546771E-02  0.1119280E+00
         -1   -1    0    0    0  501 -0.00000000000E+00  0.00000000000E+00  0.97609784359E+02  0.97609784359E+02  0.00000000000E+00 0.  1.
          2   -1    0    0  502    0  0.00000000000E+00 -0.00000000000E+00 -0.54319164022E+03  0.54319164022E+03  0.00000000000E+00 0. -1.
         24    2    1    2    0    0  0.12177853103E+02  0.67367420682E+02 -0.18564586050E+03  0.21387682122E+03  0.81192608402E+02 0.  0.
         23    2    1    2    0    0  0.77115785012E+02  0.64385408069E+02 -0.22777749390E+03  0.26454747779E+03  0.89501151974E+02 0.  0.
        -13    1    3    3    0    0  0.41411944225E+02  0.11497191980E+02 -0.69407071438E+02  0.81636242647E+02  0.00000000000E+00 0.  1.
         14    1    3    3    0    0 -0.29234091122E+02  0.55870228702E+02 -0.11623878907E+03  0.13224057858E+03  0.00000000000E+00 0. -1.
        -13    1    4    4    0    0  0.34447186752E+02  0.72526653541E+02 -0.19255116315E+03  0.20862088721E+03  0.00000000000E+00 0.  1.
         13    1    4    4    0    0  0.42668598260E+02 -0.81412454722E+01 -0.35226330747E+02  0.55926590574E+02  0.00000000000E+00 0. -1.
         21    1    1    2  502  501 -0.89293638115E+02 -0.13175282875E+03 -0.32158501454E+02  0.16237712557E+03  0.00000000000E+00 0. -1.
<scales pt_clust_5="13000.00000" pt_clust_6="13000.00000" pt_clust_7="13000.00000" pt_clust_8="13000.00000" pt_clust_9="159.16080"></scales>
<clustering>
<clus scale="   81.193">  5  6 -1 -1</clus>
<clus scale="   89.501">  7  8 -1 -1</clus>
<clus scale="  101.284">  5  7 -1 -1</clus>
<clus scale="  159.161">  1  9  2 -1</clus>
<clus scale="  240.772">  2  5  1 -1</clus>
</clustering>
</event>
<event>
 9    2  0.2869112E-005  0.1434586E+03  0.7546771E-02  0.1211116E+00
          2   -1    0    0  502    0  0.00000000000E+00  0.00000000000E+00  0.86760339256E+03  0.86760339256E+03  0.00000000000E+00 0. -1.
         -1   -1    0    0    0  501 -0.00000000000E+00 -0.00000000000E+00 -0.30966681266E+02  0.30966681266E+02  0.00000000000E+00 0.  1.
         23    2    1    2    0    0  0.12054650936E+03  0.68754950804E+01  0.37625095415E+03  0.40607751188E+03  0.93570464365E+02 0.  0.
         24    2    1    2    0    0 -0.10129070733E+03  0.71637359476E+01  0.44575986369E+03  0.46453182735E+03  0.82321540588E+02 0.  0.
        -11    1    4    4    0    0 -0.67196713352E+02  0.23801058764E+02  0.14700534810E+03  0.16337827595E+03  0.00000000000E+00 0.  1.
         12    1    4    4    0    0 -0.34093993974E+02 -0.16637322817E+02  0.29875451559E+03  0.30115355140E+03  0.00000000000E+00 0. -1.
        -13    1    3    3    0    0  0.44718692052E+02  0.28264405128E+02  0.26204651929E+03  0.26733315598E+03  0.00000000000E+00 0. -1.
         13    1    3    3    0    0  0.75827817308E+02 -0.21388910047E+02  0.11420443486E+03  0.13874435590E+03  0.00000000000E+00 0.  1.
         21    1    1    2  502  501 -0.19255802033E+02 -0.14039231028E+02  0.14625893453E+02  0.27960734595E+02  0.00000000000E+00 0.  1.
<scales pt_clust_5="13000.00000" pt_clust_6="13000.00000" pt_clust_7="13000.00000" pt_clust_8="13000.00000" pt_clust_9="23.83036"></scales>
<clustering>
<clus scale="   23.830">  2  9  1 -1</clus>
<clus scale="   82.322">  5  6 -1 -1</clus>
<clus scale="   93.570">  7  8 -1 -1</clus>
<clus scale="  136.388">  1  5  2 -1</clus>
<clus scale="  136.388">  1  5  2 -1</clus>
</clustering>
</event>
<event>
 9    2  0.2869112E-005  0.1120369E+03  0.7546771E-02  0.1262776E+00
          2   -1    0    0  502    0  0.00000000000E+00  0.00000000000E+00  0.13989523357E+03  0.13989523357E+03  0.00000000000E+00 0. -1.
         -1   -1    0    0    0  501 -0.00000000000E+00 -0.00000000000E+00 -0.12181906476E+03  0.12181906476E+03  0.00000000000E+00 0.  1.
         23    2    1    2    0    0 -0.57619893464E+01 -0.54561463400E+02 -0.26382480229E+02  0.11297892018E+03  0.95173774399E+02 0.  0.
         24    2    1    2    0    0  0.31120653471E+02  0.53979226213E+02  0.60925968781E+02  0.11849346243E+03  0.80289943532E+02 0.  0.
        -11    1    4    4    0    0 -0.12545156337E+01  0.38447435140E+02 -0.93386855666E+01  0.39585226113E+02  0.00000000000E+00 0.  1.
         12    1    4    4    0    0  0.32375169105E+02  0.15531791073E+02  0.70264654348E+02  0.78908236320E+02  0.00000000000E+00 0. -1.
        -11    1    3    3    0    0  0.17886604876E+02 -0.16183193109E+02  0.31461183027E+02  0.39643819325E+02  0.00000000000E+00 0. -1.
         11    1    3    3    0    0 -0.23648594222E+02 -0.38378270291E+02 -0.57843663256E+02  0.73335100860E+02  0.00000000000E+00 0.  1.
         21    1    1    2  502  501 -0.25358664125E+02  0.58223718722E+00 -0.16467319747E+02  0.30241915713E+02  0.00000000000E+00 0.  1.
<scales pt_clust_5="13000.00000" pt_clust_6="13000.00000" pt_clust_7="13000.00000" pt_clust_8="13000.00000" pt_clust_9="25.36535"></scales>
<clustering>
<clus scale="   25.365">  2  9  1 -1</clus>
<clus scale="   80.290">  5  6 -1 -1</clus>
<clus scale="   95.174">  7  8 -1 -1</clus>
<clus scale="   99.703">  1  5  2 -1</clus>
<clus scale="   99.703">  1  5  2 -1</clus>
</clustering>
</event>
<event>
 9    2  0.2869112E-005  0.1197880E+03  0.7546771E-02  0.1246098E+00
         -1   -1    0    0    0  501 -0.00000000000E+00  0.00000000000E+00  0.14965059140E+03  0.14965059140E+03  0.00000000000E+00 0.  1.
          2   -1    0    0  502    0  0.00000000000E+00 -0.00000000000E+00 -0.21059011833E+03  0.21059011833E+03  0.00000000000E+00 0. -1.
         23    2    1    2    0    0  0.74287782664E+02  0.38375623040E+02  0.71525061147E+02  0.14133713646E+03  0.88707320297E+02 0.  0.
         24    2    1    2    0    0 -0.57404843391E+02 -0.56446652689E+02 -0.15032403827E+03  0.18839856200E+03  0.80094700438E+02 0.  0.
        -13    1    4    4    0    0  0.19143417048E+02 -0.17667956988E+02 -0.22383772802E+02  0.34346184727E+02  0.00000000000E+00 0.  1.
         14    1    4    4    0    0 -0.76548260439E+02 -0.38778695701E+02 -0.12794026547E+03  0.15405237728E+03  0.00000000000E+00 0. -1.
        -11    1    3    3    0    0  0.80206568644E+02  0.12522330742E+02  0.20338233744E+02  0.83687192405E+02  0.00000000000E+00 0. -1.
         11    1    3    3    0    0 -0.59187859800E+01  0.25853292298E+02  0.51186827403E+02  0.57649944057E+02  0.00000000000E+00 0.  1.
         21    1    1    2  502  501 -0.16882939273E+02  0.18071029649E+02  0.17859450191E+02  0.30505011264E+02  0.00000000000E+00 0. -1.
<scales pt_clust_5="13000.00000" pt_clust_6="13000.00000" pt_clust_7="13000.00000" pt_clust_8="13000.00000" pt_clust_9="24.73046"></scales>
<clustering>
<clus scale="   24.730">  1  9  2 -1</clus>
<clus scale="   80.095">  5  6 -1 -1</clus>
<clus scale="   88.707">  7  8 -1 -1</clus>
<clus scale="  113.558">  2  5  1 -1</clus>
<clus scale="  113.558">  2  5  1 -1</clus>
</clustering>
</event>
<event>
 9    2  0.2869112E-005  0.1091154E+03  0.7546771E-02  0.1267792E+00
          2   -1    0    0  502    0  0.00000000000E+00  0.00000000000E+00  0.65025816755E+03  0.65025816755E+03  0.00000000000E+00 0. -1.
         -1   -1    0    0    0  501 -0.00000000000E+00 -0.00000000000E+00 -0.47528330524E+02  0.47528330524E+02  0.00000000000E+00 0.  1.
         23    2    1    2    0    0  0.56865128133E+02  0.35470854456E+02  0.79154136202E+02  0.13944964119E+03  0.93214810183E+02 0.  0.
         24    2    1    2    0    0 -0.54852738016E+00 -0.59641564836E+02  0.45749824671E+03  0.46821464706E+03  0.79767743119E+02 0.  0.
        -11    1    4    4    0    0 -0.14785014972E+02 -0.48098676313E+02  0.11875685768E+03  0.12897779102E+03  0.00000000000E+00 0.  1.
         12    1    4    4    0    0  0.14236487592E+02 -0.11542888524E+02  0.33874138903E+03  0.33923685604E+03  0.00000000000E+00 0. -1.
        -11    1    3    3    0    0  0.19358593521E+02  0.62720901222E+02  0.30955306610E+02  0.72573394578E+02  0.00000000000E+00 0. -1.
         11    1    3    3    0    0  0.37506534611E+02 -0.27250046766E+02  0.48198829592E+02  0.66876246615E+02  0.00000000000E+00 0.  1.
         21    1    1    2  502  501 -0.56316600752E+02  0.24170710380E+02  0.66077454114E+02  0.90122209820E+02  0.00000000000E+00 0.  1.
<scales pt_clust_5="13000.00000" pt_clust_6="13000.00000" pt_clust_7="13000.00000" pt_clust_8="13000.00000" pt_clust_9="61.28444"></scales>
<clustering>
<clus scale="   61.284">  2  9  1 -1</clus>
<clus scale="   79.768">  5  6 -1 -1</clus>
<clus scale="   93.215">  7  8 -1 -1</clus>
<clus scale="   97.878">  1  5  2 -1</clus>
<clus scale="   97.878">  1  5  2 -1</clus>
</clustering>
</event>
<event>
 9    2  0.2869112E-005  0.9895190E+02  0.7546771E-02  0.1291200E+00
          2   -1    0    0  502    0  0.00000000000E+00  0.00000000000E+00  0.15993747670E+03  0.15993747670E+03  0.00000000000E+00 0. -1.
         -1   -1    0    0    0  501 -0.00000000000E+00 -0.00000000000E+00 -0.16768426857E+03  0.16768426857E+03  0.00000000000E+00 0.  1.
         23    2    1    2    0    0 -0.12175633120E+02 -0.32716195575E+02 -0.82650691204E+02  0.13169866445E+03  0.96409574038E+02 0.  0.
         24    2    1    2    0    0  0.23573824937E+02 -0.30771924593E+01  0.11389590449E+03  0.14178010465E+03  0.81019298192E+02 0.  0.
        -13    1    4    4    0    0  0.19754477474E+01 -0.31516143844E+02  0.97498140929E+02  0.10248442419E+03  0.00000000000E+00 0.  1.
         14    1    4    4    0    0  0.21598377189E+02  0.28438951385E+02  0.16397763557E+02  0.39295680459E+02  0.00000000000E+00 0. -1.
        -11    1    3    3    0    0  0.12914644975E+02 -0.31637103834E+02  0.10080206359E+02  0.35627306298E+02  0.00000000000E+00 0. -1.
         11    1    3    3    0    0 -0.25090278094E+02 -0.10790917408E+01 -0.92730897564E+02  0.96071358150E+02  0.00000000000E+00 0.  1.
         21    1    1    2  502  501 -0.11398191817E+02  0.35793388034E+02 -0.38992005153E+02  0.54142976179E+02  0.00000000000E+00 0.  1.
<scales pt_clust_5="13000.00000" pt_clust_6="13000.00000" pt_clust_7="13000.00000" pt_clust_8="13000.00000" pt_clust_9="37.56442"></scales>
<clustering>
<clus scale="   37.564">  2  9  1 -1</clus>
<clus scale="   81.019">  5  6 -1 -1</clus>
<clus scale="   84.029">  1  5  2 -1</clus>
<clus scale="   96.410">  7  8 -1 -1</clus>
<clus scale="   84.029">  1  5  2 -1</clus>
</clustering>
</event>
<event>
 9    2  0.2869112E-005  0.1404973E+03  0.7546771E-02  0.1216241E+00
         -3   -1    0    0    0  501 -0.00000000000E+00  0.00000000000E+00  0.58229245608E+03  0.58229245608E+03  0.00000000000E+00 0.  1.
          4   -1    0    0  502    0  0.00000000000E+00 -0.00000000000E+00 -0.56564434725E+02  0.56564434725E+02  0.00000000000E+00 0. -1.
         24    2    1    2    0    0  0.11346600120E+03  0.38465074103E+02  0.26269629452E+03  0.29805914627E+03  0.73998757874E+02 0.  0.
         23    2    1    2    0    0 -0.99628148763E+02 -0.21379755114E+02  0.83727705095E+02  0.16015077806E+03  0.90857477167E+02 0.  0.
        -13    1    3    3    0    0  0.10837889792E+03  0.42484265573E+02  0.26630733759E+03  0.29063808490E+03  0.00000000000E+00 0.  1.
         14    1    3    3    0    0  0.50871032776E+01 -0.40191914691E+01 -0.36110430744E+01  0.74210613734E+01  0.00000000000E+00 0. -1.
        -11    1    4    4    0    0 -0.72804503035E+02  0.88319985168E+01  0.72987640582E+01  0.73700555064E+02  0.00000000000E+00 0. -1.
         11    1    4    4    0    0 -0.26823645729E+02 -0.30211753631E+02  0.76428941037E+02  0.86450222994E+02  0.00000000000E+00 0.  1.
         21    1    1    2  502  501 -0.13837852436E+02 -0.17085318989E+02  0.17930402174E+03  0.18064696648E+03  0.00000000000E+00 0.  1.
<scales pt_clust_5="13000.00000" pt_clust_6="13000.00000" pt_clust_7="13000.00000" pt_clust_8="13000.00000" pt_clust_9="21.98623"></scales>
<clustering>
<clus scale="   21.986">  1  9  2 -1</clus>
<clus scale="   73.999">  5  6 -1 -1</clus>
<clus scale="   90.857">  7  8 -1 -1</clus>
<clus scale="  130.231">  1  5  2 -1</clus>
<clus scale="  140.497">  2  5  1 -1</clus>
</clustering>
</event>
<event>
 9    2  0.2869112E-005  0.1242276E+03  0.7546771E-02  0.1239657E+00
          2   -1    0    0  502    0  0.00000000000E+00  0.00000000000E+00  0.30276669327E+03  0.30276669327E+03  0.00000000000E+00 0. -1.
         -1   -1    0    0    0  501 -0.00000000000E+00 -0.00000000000E+00 -0.18675835765E+03  0.18675835765E+03  0.00000000000E+00 0.  1.
         23    2    1    2    0    0  0.77054463077E+02 -0.71501099477E+02 -0.43997669235E+02  0.14619496114E+03  0.91582608921E+02 0.  0.
         24    2    1    2    0    0 -0.56236484541E+02  0.58381370614E+02  0.23675591961E+03  0.26273192026E+03  0.80023557932E+02 0.  0.
        -13    1    4    4    0    0 -0.27679738193E+02 -0.17409514169E+02  0.75586195595E+02  0.82356129430E+02  0.00000000000E+00 0.  1.
         14    1    4    4    0    0 -0.28556746348E+02  0.75790884783E+02  0.16116972402E+03  0.18037579083E+03  0.00000000000E+00 0. -1.
        -13    1    3    3    0    0  0.24016329772E+02 -0.70035910424E+02 -0.54717893281E+02  0.92064437703E+02  0.00000000000E+00 0.  1.
         13    1    3    3    0    0  0.53038133306E+02 -0.14651890537E+01  0.10720224045E+02  0.54130523433E+02  0.00000000000E+00 0. -1.
         21    1    1    2  502  501 -0.20817978536E+02  0.13119728863E+02 -0.76749914757E+02  0.80598169527E+02  0.00000000000E+00 0. -1.
<scales pt_clust_5="13000.00000" pt_clust_6="13000.00000" pt_clust_7="13000.00000" pt_clust_8="13000.00000" pt_clust_9="24.60722"></scales>
<clustering>
<clus scale="   24.607">  2  9  1 -1</clus>
<clus scale="   80.024">  5  6 -1 -1</clus>
<clus scale="   91.583">  7  8 -1 -1</clus>
<clus scale="  115.969">  1  5  2 -1</clus>
<clus scale="  115.969">  1  5  2 -1</clus>
</clustering>
</event>
<event>
 9    2  0.2869112E-005  0.3817021E+03  0.7546771E-02  0.1050457E+00
         -1   -1    0    0    0  501 -0.00000000000E+00  0.00000000000E+00  0.95360604191E+03  0.95360604191E+03  0.00000000000E+00 0.  1.
          2   -1    0    0  502    0  0.00000000000E+00 -0.00000000000E+00 -0.19360981618E+03  0.19360981618E+03  0.00000000000E+00 0. -1.
         24    2    1    2    0    0 -0.41097715030E+01 -0.39585411660E+03  0.44465128746E+03  0.60107610656E+03  0.82827209155E+02 0.  0.
         23    2    1    2    0    0 -0.15827366596E+02  0.35631994355E+03  0.19171584625E+03  0.41482108299E+03  0.90039755006E+02 0.  0.
        -11    1    3    3    0    0 -0.38007019918E+02 -0.26672615872E+03  0.27220889186E+03  0.38299485391E+03  0.00000000000E+00 0.  1.
         12    1    3    3    0    0  0.33897248415E+02 -0.12912795788E+03  0.17244239560E+03  0.21808125265E+03  0.00000000000E+00 0. -1.
        -11    1    4    4    0    0  0.16748409382E+02  0.24203523499E+03  0.16385296276E+03  0.29276160540E+03  0.00000000000E+00 0.  1.
         11    1    4    4    0    0 -0.32575775978E+02  0.11428470857E+03  0.27862883490E+02  0.12205947759E+03  0.00000000000E+00 0. -1.
         21    1    1    2  502  501  0.19937138099E+02  0.39534173050E+02  0.12362909202E+03  0.13131866855E+03  0.00000000000E+00 0. -1.
<scales pt_clust_5="13000.00000" pt_clust_6="13000.00000" pt_clust_7="13000.00000" pt_clust_8="13000.00000" pt_clust_9="44.27686"></scales>
<clustering>
<clus scale="   44.277">  1  9  2 -1</clus>
<clus scale="   82.827">  5  6 -1 -1</clus>
<clus scale="   90.040">  7  8 -1 -1</clus>
<clus scale="  380.065">  1  5  2 -1</clus>
<clus scale="  381.702">  2  5  1 -1</clus>
</clustering>
</event>
<event>
 9    2  0.2869112E-005  0.1057415E+03  0.7546771E-02  0.1276807E+00
          2   -1    0    0  502    0  0.00000000000E+00  0.00000000000E+00  0.21397124841E+03  0.21397124841E+03  0.00000000000E+00 0. -1.
         -1   -1    0    0    0  501 -0.00000000000E+00 -0.00000000000E+00 -0.77575617227E+02  0.77575617227E+02  0.00000000000E+00 0.  1.
         24    2    1    2    0    0 -0.59837868657E+02  0.18648791562E+02  0.20295871883E+02  0.97639566733E+02  0.72063962036E+02 0.  0.
         23    2    1    2    0    0  0.51424077065E+02  0.17693641547E+02  0.11560128847E+03  0.15660029143E+03  0.90567614123E+02 0.  0.
        -13    1    3    3    0    0 -0.53517830237E+02  0.33708044780E+02 -0.92097070273E+01  0.63915640806E+02  0.00000000000E+00 0.  1.
         14    1    3    3    0    0 -0.63200384200E+01 -0.15059253218E+02  0.29505578910E+02  0.33723925927E+02  0.00000000000E+00 0. -1.
        -13    1    4    4    0    0 -0.86753618772E+01  0.39001617424E+02  0.30528001680E+02  0.50282670494E+02  0.00000000000E+00 0.  1.
         13    1    4    4    0    0  0.60099438942E+02 -0.21307975877E+02  0.85073286785E+02  0.10631762094E+03  0.00000000000E+00 0. -1.
         21    1    1    2  502  501  0.84137915916E+01 -0.36342433109E+02  0.49847083180E+00  0.37307007470E+02  0.00000000000E+00 0. -1.
<scales pt_clust_5="13000.00000" pt_clust_6="13000.00000" pt_clust_7="13000.00000" pt_clust_8="13000.00000" pt_clust_9="37.30368"></scales>
<clustering>
<clus scale="   37.304">  2  9  1 -1</clus>
<clus scale="   72.064">  5  6 -1 -1</clus>
<clus scale="   90.399">  2  5  1 -1</clus>
<clus scale="   90.568">  7  8 -1 -1</clus>
<clus scale="  105.741">  1  5  2 -1</clus>
</clustering>
</event>
<event>
 9    2  0.2869112E-005  0.1755085E+03  0.7546771E-02  0.1173781E+00
          2   -1    0    0  502    0  0.00000000000E+00  0.00000000000E+00  0.31986409449E+03  0.31986409449E+03  0.00000000000E+00 0. -1.
         -1   -1    0    0    0  501 -0.00000000000E+00 -0.00000000000E+00 -0.52853715407E+03  0.52853715407E+03  0.00000000000E+00 0.  1.
         24    2    1    2    0    0 -0.90860725745E+02  0.12688258867E+03 -0.30585489711E+03  0.35252785880E+03  0.79836146916E+02 0.  0.
         23    2    1    2    0    0  0.11561334217E+03 -0.94419510411E+02  0.26797281661E+03  0.32027127699E+03  0.92101963009E+02 0.  0.
        -13    1    3    3    0    0 -0.45683389721E+02  0.76455950938E+02 -0.24787464312E+03  0.26339005910E+03  0.00000000000E+00 0.  1.
         14    1    3    3    0    0 -0.45177336024E+02  0.50426637730E+02 -0.57980253991E+02  0.89137799703E+02  0.00000000000E+00 0. -1.
        -11    1    4    4    0    0  0.20175063236E+02 -0.64696238097E+01 -0.14318038396E+01  0.21235330726E+02  0.00000000000E+00 0.  1.
         11    1    4    4    0    0  0.95438278930E+02 -0.87949886602E+02  0.26940462045E+03  0.29903594627E+03  0.00000000000E+00 0. -1.
         21    1    1    2  502  501 -0.24752616421E+02 -0.32463078257E+02 -0.17079097909E+03  0.17560211277E+03  0.00000000000E+00 0. -1.
<scales pt_clust_5="13000.00000" pt_clust_6="13000.00000" pt_clust_7="13000.00000" pt_clust_8="13000.00000" pt_clust_9="40.82332"></scales>
<clustering>
<clus scale="   40.823">  2  9  1 -1</clus>
<clus scale="   79.836">  5  6 -1 -1</clus>
<clus scale="   92.102">  7  8 -1 -1</clus>
<clus scale="  169.394">  2  5  1 -1</clus>
<clus scale="  175.508">  1  5  2 -1</clus>
</clustering>
</event>
<event>
 9    2  0.6555526E-005  0.1055044E+03  0.7546771E-02  0.1275606E+00
         -1   -1    0    0    0  501 -0.00000000000E+00  0.00000000000E+00  0.98352370040E+02  0.98352370040E+02  0.00000000000E+00 0.  1.
          2   -1    0    0  502    0  0.00000000000E+00 -0.00000000000E+00 -0.44581255976E+03  0.44581255976E+03  0.00000000000E+00 0. -1.
         24    2    1    2    0    0  0.34100987340E+02 -0.17384951022E+02  0.48281707379E+02  0.98753054720E+02  0.77174663520E+02 0.  0.
         23    2    1    2    0    0 -0.52677288685E+02  0.95863960910E+01 -0.40815467376E+03  0.42174811681E+03  0.91730259963E+02 0.  0.
        -13    1    3    3    0    0  0.50228215057E+02  0.36120240766E+01  0.86560733042E+01  0.51096456930E+02  0.00000000000E+00 0.  1.
         14    1    3    3    0    0 -0.16127227716E+02 -0.20996975098E+02  0.39625634075E+02  0.47656597790E+02  0.00000000000E+00 0. -1.
        -11    1    4    4    0    0 -0.48304085868E+01 -0.37138250667E+02 -0.11053621280E+03  0.11670834096E+03  0.00000000000E+00 0.  1.
         11    1    4    4    0    0 -0.47846880099E+02  0.46724646758E+02 -0.29761846096E+03  0.30503977586E+03  0.00000000000E+00 0. -1.
         21    1    1    2  502  501  0.18576301345E+02  0.77985549307E+01  0.12412776661E+02  0.23663758263E+02  0.00000000000E+00 0. -1.
<scales pt_clust_5="13000.00000" pt_clust_6="13000.00000" pt_clust_7="13000.00000" pt_clust_8="13000.00000" pt_clust_9="20.14687"></scales>
<clustering>
<clus scale="   20.147">  1  9  2 -1</clus>
<clus scale="   77.175">  5  6 -1 -1</clus>
<clus scale="   91.730">  7  8 -1 -1</clus>
<clus scale="   93.127">  1  5  2 -1</clus>
<clus scale="  105.504">  2  5  1 -1</clus>
</clustering>
</event>
<event>
 9    2  0.2869112E-005  0.1287699E+03  0.7546771E-02  0.1233267E+00
          2   -1    0    0  502    0  0.00000000000E+00  0.00000000000E+00  0.12546909095E+04  0.12546909095E+04  0.00000000000E+00 0. -1.
         -1   -1    0    0    0  501 -0.00000000000E+00 -0.00000000000E+00 -0.58352629717E+02  0.58352629717E+02  0.00000000000E+00 0.  1.
         23    2    1    2    0    0  0.43113218043E+02  0.27982186169E+02  0.67732766898E+01  0.10731345332E+03  0.93960351600E+02 0.  0.
         24    2    1    2    0    0 -0.71309734731E+02 -0.55610570176E+02  0.11138626563E+04  0.11203531777E+04  0.79521140168E+02 0.  0.
        -13    1    4    4    0    0 -0.19941893390E+01 -0.23970678443E+02  0.76417542467E+02  0.80113737978E+02  0.00000000000E+00 0.  1.
         14    1    4    4    0    0 -0.69315545392E+02 -0.31639891732E+02  0.10374451139E+04  0.10402394397E+04  0.00000000000E+00 0. -1.
        -13    1    3    3    0    0  0.31737264758E+02 -0.31548730894E+02 -0.66365296575E+01  0.45239583566E+02  0.00000000000E+00 0. -1.
         13    1    3    3    0    0  0.11375953285E+02  0.59530917063E+02  0.13409806347E+02  0.62073869751E+02  0.00000000000E+00 0.  1.
         21    1    1    2  502  501  0.28196516687E+02  0.27628384006E+02  0.75702346769E+02  0.85376908251E+02  0.00000000000E+00 0.  1.
<scales pt_clust_5="13000.00000" pt_clust_6="13000.00000" pt_clust_7="13000.00000" pt_clust_8="13000.00000" pt_clust_9="39.47621"></scales>
<clustering>
<clus scale="   39.476">  2  9  1 -1</clus>
<clus scale="   79.521">  5  6 -1 -1</clus>
<clus scale="   93.960">  7  8 -1 -1</clus>
<clus scale="  118.645">  1  5  2 -1</clus>
<clus scale="  118.645">  1  5  2 -1</clus>
</clustering>
</event>
<event>
 9    2  0.2869112E-005  0.1201807E+03  0.7546771E-02  0.1245961E+00
         -1   -1    0    0    0  501 -0.00000000000E+00  0.00000000000E+00  0.11767974279E+03  0.11767974279E+03  0.00000000000E+00 0.  1.
          2   -1    0    0  502    0  0.00000000000E+00 -0.00000000000E+00 -0.54584077590E+03  0.54584077590E+03  0.00000000000E+00 0. -1.
         23    2    1    2    0    0 -0.22511691617E+02  0.43107315533E+02  0.44390364313E+02  0.11142650746E+03  0.89890740400E+02 0.  0.
         24    2    1    2    0    0  0.50795528712E+02 -0.64940545874E+02 -0.49617996874E+03  0.50925740572E+03  0.79693686513E+02 0.  0.
        -11    1    4    4    0    0  0.41321615465E+02 -0.62211899319E+01 -0.96263820921E+02  0.10494237622E+03  0.00000000000E+00 0.  1.
         12    1    4    4    0    0  0.94739132471E+01 -0.58719355942E+02 -0.39991614782E+03  0.40431502950E+03  0.00000000000E+00 0. -1.
        -11    1    3    3    0    0 -0.37641463948E+02 -0.22341207892E+01  0.50729568215E+02  0.63208861682E+02  0.00000000000E+00 0. -1.
         11    1    3    3    0    0  0.15129772331E+02  0.45341436323E+02 -0.63392039024E+01  0.48217645781E+02  0.00000000000E+00 0.  1.
         21    1    1    2  502  501 -0.28283837096E+02  0.21833230340E+02  0.23628571319E+02  0.42836605497E+02  0.00000000000E+00 0.  1.
<scales pt_clust_5="13000.00000" pt_clust_6="13000.00000" pt_clust_7="13000.00000" pt_clust_8="13000.00000" pt_clust_9="35.73045"></scales>
<clustering>
<clus scale="   35.730">  1  9  2 -1</clus>
<clus scale="   79.694">  5  6 -1 -1</clus>
<clus scale="   89.891">  7  8 -1 -1</clus>
<clus scale="  112.757">  2  5  1 -1</clus>
<clus scale="  112.757">  2  5  1 -1</clus>
</clustering>
</event>
<event>
 9    2  0.2869112E-005  0.1119231E+03  0.7546771E-02  0.1260959E+00
          2   -1    0    0  502    0  0.00000000000E+00  0.00000000000E+00  0.71203721831E+03  0.71203721831E+03  0.00000000000E+00 0. -1.
         -1   -1    0    0    0  501 -0.00000000000E+00 -0.00000000000E+00 -0.76035605831E+02  0.76035605831E+02  0.00000000000E+00 0.  1.
         23    2    1    2    0    0  0.35288588677E+02  0.64779444355E+02  0.65810128465E+02  0.13480885354E+03  0.91655840423E+02 0.  0.
         24    2    1    2    0    0 -0.68387275251E+02  0.14136208598E+02  0.55634216113E+03  0.56657483011E+03  0.81325187107E+02 0.  0.
        -11    1    4    4    0    0 -0.12832052395E+02 -0.32292769155E+02  0.17301344423E+03  0.17646851388E+03  0.00000000000E+00 0.  1.
         12    1    4    4    0    0 -0.55555222856E+02  0.46428977752E+02  0.38332871690E+03  0.39010631623E+03  0.00000000000E+00 0. -1.
        -13    1    3    3    0    0  0.31441071685E+02  0.88227340627E+02  0.55807197858E+02  0.10902773939E+03  0.00000000000E+00 0.  1.
         13    1    3    3    0    0  0.38475169915E+01 -0.23447896271E+02  0.10002930607E+02  0.25781114159E+02  0.00000000000E+00 0. -1.
         21    1    1    2  502  501  0.33098686574E+02 -0.78915652953E+02  0.13849322890E+02  0.86689140487E+02  0.00000000000E+00 0.  1.
<scales pt_clust_5="13000.00000" pt_clust_6="13000.00000" pt_clust_7="13000.00000" pt_clust_8="13000.00000" pt_clust_9="85.57572"></scales>
<clustering>
<clus scale="   81.325">  5  6 -1 -1</clus>
<clus scale="   85.576">  2  9  1 -1</clus>
<clus scale="   91.656">  7  8 -1 -1</clus>
<clus scale="  103.633">  1  5  2 -1</clus>
<clus scale="  103.633">  1  5  2 -1</clus>
</clustering>
</event>
<event>
 9    2  0.2869112E-005  0.1181992E+03  0.7546771E-02  0.1248808E+00
          2   -1    0    0  502    0  0.00000000000E+00  0.00000000000E+00  0.15087146400E+03  0.15087146400E+03  0.00000000000E+00 0. -1.
         -1   -1    0    0    0  501 -0.00000000000E+00 -0.00000000000E+00 -0.24047676807E+03  0.24047676807E+03  0.00000000000E+00 0.  1.
         23    2    1    2    0    0  0.59779910816E+02  0.25781188050E+02 -0.90735202149E+02  0.14259361974E+03  0.88666544358E+02 0.  0.
         24    2    1    2    0    0  0.17359151965E+02 -0.98979304337E+02  0.41414850149E+02  0.13503884123E+03  0.80137731333E+02 0.  0.
        -13    1    4    4    0    0  0.49180757895E+02 -0.61065460972E+02  0.18859223146E+02  0.80643708797E+02  0.00000000000E+00 0.  1.
         14    1    4    4    0    0 -0.31821605930E+02 -0.37913843364E+02  0.22555627003E+02  0.54395132430E+02  0.00000000000E+00 0. -1.
        -13    1    3    3    0    0  0.40225135482E+02 -0.28721446048E+02 -0.57520611975E+02  0.75839328778E+02  0.00000000000E+00 0. -1.
         13    1    3    3    0    0  0.19554775334E+02  0.54502634098E+02 -0.33214590174E+02  0.66754290966E+02  0.00000000000E+00 0.  1.
         21    1    1    2  502  501 -0.77139062781E+02  0.73198116286E+02 -0.40284952072E+02  0.11371577111E+03  0.00000000000E+00 0.  1.
<scales pt_clust_5="13000.00000" pt_clust_6="13000.00000" pt_clust_7="13000.00000" pt_clust_8="13000.00000" pt_clust_9="106.34096"></scales>
<clustering>
<clus scale="   80.138">  5  6 -1 -1</clus>
<clus scale="   88.667">  7  8 -1 -1</clus>
<clus scale="  106.341">  2  9  1 -1</clus>
<clus scale="  111.944">  1  5  2 -1</clus>
<clus scale="  111.944">  1  5  2 -1</clus>
</clustering>
</event>
<event>
 9    2  0.2869112E-005  0.9296076E+02  0.7546771E-02  0.1300581E+00
          4   -1    0    0  502    0  0.00000000000E+00  0.00000000000E+00  0.10455143961E+03  0.10455143961E+03  0.00000000000E+00 0. -1.
         -3   -1    0    0    0  501 -0.00000000000E+00 -0.00000000000E+00 -0.12280618123E+03  0.12280618123E+03  0.00000000000E+00 0.  1.
         24    2    1    2    0    0 -0.26098727616E+01 -0.11700435153E+01 -0.50441381056E+02  0.96438790005E+02  0.82145765911E+02 0.  0.
         23    2    1    2    0    0  0.28265932547E+02  0.13142797137E+02  0.36679789487E+02  0.10225232371E+03  0.90213273349E+02 0.  0.
        -11    1    3    3    0    0  0.23207850291E+02 -0.33542164168E+02 -0.25225041217E+02  0.47958146300E+02  0.00000000000E+00 0.  1.
         12    1    3    3    0    0 -0.25817723052E+02  0.32372120652E+02 -0.25216339838E+02  0.48480643704E+02  0.00000000000E+00 0. -1.
        -13    1    4    4    0    0 -0.13082251797E+02  0.26494120657E+02  0.48884257796E+02  0.57120525222E+02  0.00000000000E+00 0. -1.
         13    1    4    4    0    0  0.41348184344E+02 -0.13351323519E+02 -0.12204468309E+02  0.45131798490E+02  0.00000000000E+00 0.  1.
         21    1    1    2  502  501 -0.25656059785E+02 -0.11972753622E+02 -0.44931500568E+01  0.28666507119E+02  0.00000000000E+00 0.  1.
<scales pt_clust_5="13000.00000" pt_clust_6="13000.00000" pt_clust_7="13000.00000" pt_clust_8="13000.00000" pt_clust_9="28.31219"></scales>
<clustering>
<clus scale="   28.312">  2  9  1 -1</clus>
<clus scale="   82.146">  5  6 -1 -1</clus>
<clus scale="   85.154">  2  5  1 -1</clus>
<clus scale="   90.213">  7  8 -1 -1</clus>
<clus scale="   92.961">  1  5  2 -1</clus>
</clustering>
</event>
<event>
 9    2  0.2869112E-005  0.9272266E+02  0.7546771E-02  0.1300568E+00
          2   -1    0    0  502    0  0.00000000000E+00  0.00000000000E+00  0.41619695370E+03  0.41619695370E+03  0.00000000000E+00 0. -1.
         -1   -1    0    0    0  501 -0.00000000000E+00 -0.00000000000E+00 -0.42722052952E+02  0.42722052952E+02  0.00000000000E+00 0.  1.
         24    2    1    2    0    0 -0.24535138656E+02 -0.17712106046E+02  0.11727895837E+03  0.14535302114E+03  0.80358291100E+02 0.  0.
         23    2    1    2    0    0 -0.28706171267E+02  0.38285166095E+02  0.23001912189E+03  0.25077176752E+03  0.87680583594E+02 0.  0.
        -13    1    3    3    0    0  0.12328259722E+02  0.16059273572E+02  0.28060285877E+01  0.20439179335E+02  0.00000000000E+00 0.  1.
         14    1    3    3    0    0 -0.36863398378E+02 -0.33771379619E+02  0.11447292978E+03  0.12491384180E+03  0.00000000000E+00 0. -1.
        -13    1    4    4    0    0  0.29869492192E+01 -0.23219893094E+02  0.10792849975E+03  0.11043842791E+03  0.00000000000E+00 0.  1.
         13    1    4    4    0    0 -0.31693120486E+02  0.61505059189E+02  0.12209062213E+03  0.14033333961E+03  0.00000000000E+00 0. -1.
         21    1    1    2  502  501  0.53241309923E+02 -0.20573060049E+02  0.26176820487E+02  0.62794217989E+02  0.00000000000E+00 0.  1.
<scales pt_clust_5="13000.00000" pt_clust_6="13000.00000" pt_clust_7="13000.00000" pt_clust_8="13000.00000" pt_clust_9="57.07791"></scales>
<clustering>
<clus scale="   57.078">  2  9  1 -1</clus>
<clus scale="   80.358">  5  6 -1 -1</clus>
<clus scale="   85.832">  2  5  1 -1</clus>
<clus scale="   87.681">  7  8 -1 -1</clus>
<clus scale="   92.723">  1  5  2 -1</clus>
</clustering>
</event>
<event>
 9    2  0.2869112E-005  0.2846434E+03  0.7546771E-02  0.1093793E+00
         -1   -1    0    0    0  501 -0.00000000000E+00  0.00000000000E+00  0.13765026167E+03  0.13765026167E+03  0.00000000000E+00 0.  1.
          2   -1    0    0  502    0  0.00000000000E+00 -0.00000000000E+00 -0.14047735925E+04  0.14047735925E+04  0.00000000000E+00 0. -1.
         23    2    1    2    0    0  0.24459550629E+03  0.56819723292E+02 -0.23976226005E+03  0.35990779622E+03  0.94827410541E+02 0.  0.
         24    2    1    2    0    0 -0.26312485405E+03 -0.75607292565E+02 -0.10835328205E+04  0.11204549996E+04  0.80155358999E+02 0.  0.
        -11    1    4    4    0    0 -0.17775884268E+03 -0.46387952892E+02 -0.56460489924E+03  0.59374130779E+03  0.00000000000E+00 0.  1.
         12    1    4    4    0    0 -0.85366011366E+02 -0.29219339673E+02 -0.51892792126E+03  0.52671369184E+03  0.00000000000E+00 0. -1.
        -13    1    3    3    0    0  0.99733320083E+02  0.83533801895E+01 -0.15696361303E+03  0.18615609018E+03  0.00000000000E+00 0. -1.
         13    1    3    3    0    0  0.14486218620E+03  0.48466343102E+02 -0.82798647013E+02  0.17375170604E+03  0.00000000000E+00 0.  1.
         21    1    1    2  502  501  0.18529347760E+02  0.18787569273E+02  0.56171749743E+02  0.62061058295E+02  0.00000000000E+00 0.  1.
<scales pt_clust_5="13000.00000" pt_clust_6="13000.00000" pt_clust_7="13000.00000" pt_clust_8="13000.00000" pt_clust_9="26.38768"></scales>
<clustering>
<clus scale="   26.388">  1  9  2 -1</clus>
<clus scale="   80.155">  5  6 -1 -1</clus>
<clus scale="   94.827">  7  8 -1 -1</clus>
<clus scale="  280.097">  2  5  1 -1</clus>
<clus scale="  280.097">  2  5  1 -1</clus>
</clustering>
</event>
<event>
 9    2  0.2869112E-005  0.9197290E+02  0.7546771E-02  0.1303472E+00
          2   -1    0    0  502    0  0.00000000000E+00  0.00000000000E+00  0.84222851974E+03  0.84222851974E+03  0.00000000000E+00 0. -1.
         -1   -1    0    0    0  501 -0.00000000000E+00 -0.00000000000E+00 -0.34499224671E+02  0.34499224671E+02  0.00000000000E+00 0.  1.
         23    2    1    2    0    0  0.21835491122E+02  0.21870248496E+02  0.15076377173E+03  0.17765610679E+03  0.88751794195E+02 0.  0.
         24    2    1    2    0    0 -0.24463012294E+02  0.68256758542E+01  0.66412040907E+03  0.66938069065E+03  0.79809538652E+02 0.  0.
        -11    1    4    4    0    0 -0.10241392400E+02  0.30023059370E+02  0.10717425189E+03  0.11177025759E+03  0.00000000000E+00 0.  1.
         12    1    4    4    0    0 -0.14221619894E+02 -0.23197383516E+02  0.55694615717E+03  0.55761043307E+03  0.00000000000E+00 0. -1.
        -13    1    3    3    0    0 -0.43338674098E+01 -0.32935934449E+02  0.51348124536E+02  0.61157077090E+02  0.00000000000E+00 0.  1.
         13    1    3    3    0    0  0.26169358531E+02  0.54806182945E+02  0.99415647191E+02  0.11649902970E+03  0.00000000000E+00 0. -1.
         21    1    1    2  502  501  0.26275211725E+01 -0.28695924350E+02 -0.71548857272E+01  0.29690946964E+02  0.00000000000E+00 0.  1.
<scales pt_clust_5="13000.00000" pt_clust_6="13000.00000" pt_clust_7="13000.00000" pt_clust_8="13000.00000" pt_clust_9="28.81597"></scales>
<clustering>
<clus scale="   28.816">  2  9  1 -1</clus>
<clus scale="   79.810">  5  6 -1 -1</clus>
<clus scale="   83.377">  1  5  2 -1</clus>
<clus scale="   88.752">  7  8 -1 -1</clus>
<clus scale="   83.377">  1  5  2 -1</clus>
</clustering>
</event>
<event>
 9    2  0.2869112E-005  0.1015923E+03  0.7546771E-02  0.1283241E+00
          2   -1    0    0  502    0  0.00000000000E+00  0.00000000000E+00  0.37994791993E+03  0.37994791993E+03  0.00000000000E+00 0. -1.
         -1   -1    0    0    0  501 -0.00000000000E+00 -0.00000000000E+00 -0.18150063980E+03  0.18150063980E+03  0.00000000000E+00 0.  1.
         23    2    1    2    0    0  0.32115805113E+02  0.61819029621E+01 -0.13881452627E+03  0.16930501319E+03  0.91241843064E+02 0.  0.
         24    2    1    2    0    0 -0.44028031047E+02  0.10312368029E+02  0.35426280073E+03  0.36562947649E+03  0.78345195379E+02 0.  0.
        -11    1    4    4    0    0 -0.21863997278E+02 -0.10496848724E+01  0.17710082297E+02  0.28156406558E+02  0.00000000000E+00 0.  1.
         12    1    4    4    0    0 -0.22164033769E+02  0.11362052902E+02  0.33655271844E+03  0.33747306993E+03  0.00000000000E+00 0. -1.
        -11    1    3    3    0    0 -0.94351010961E+01 -0.35266177117E+02 -0.69308994279E+02  0.78335567076E+02  0.00000000000E+00 0.  1.
         11    1    3    3    0    0  0.41550906209E+02  0.41448080079E+02 -0.69505531988E+02  0.90969446112E+02  0.00000000000E+00 0. -1.
         21    1    1    2  502  501  0.11912225934E+02 -0.16494270991E+02 -0.17000994344E+02  0.26514070056E+02  0.00000000000E+00 0.  1.
<scales pt_clust_5="13000.00000" pt_clust_6="13000.00000" pt_clust_7="13000.00000" pt_clust_8="13000.00000" pt_clust_9="20.34606"></scales>
<clustering>
<clus scale="   20.346">  2  9  1 -1</clus>
<clus scale="   78.345">  5  6 -1 -1</clus>
<clus scale="   90.188">  1  5  2 -1</clus>
<clus scale="   91.242">  7  8 -1 -1</clus>
<clus scale="   90.188">  1  5  2 -1</clus>
</clustering>
</event>
<event>
 9    2  0.2869112E-005  0.1134432E+03  0.7546771E-02  0.1254451E+00
         -1   -1    0    0    0  501 -0.00000000000E+00  0.00000000000E+00  0.45712911516E+02  0.45712911516E+02  0.00000000000E+00 0.  1.
          2   -1    0    0  502    0  0.00000000000E+00 -0.00000000000E+00 -0.57505979805E+03  0.57505979805E+03  0.00000000000E+00 0. -1.
         23    2    1    2    0    0 -0.63398670690E+02  0.66589802415E+02 -0.84125418614E+02  0.14842862793E+03  0.80624923567E+02 0.  0.
         24    2    1    2    0    0  0.28537269370E+02 -0.72196528379E+02 -0.39714603767E+03  0.41269511123E+03  0.81028174960E+02 0.  0.
        -13    1    4    4    0    0  0.42872069276E+02 -0.43103121601E+02 -0.12914462687E+03  0.14273832024E+03  0.00000000000E+00 0.  1.
         14    1    4    4    0    0 -0.14334799906E+02 -0.29093406777E+02 -0.26800141081E+03  0.26995679099E+03  0.00000000000E+00 0. -1.
        -11    1    3    3    0    0 -0.68716981597E+02  0.33545110246E+02 -0.24934806746E+02  0.80430358502E+02  0.00000000000E+00 0.  1.
         11    1    3    3    0    0  0.53183109072E+01  0.33044692169E+02 -0.59190611868E+02  0.67998269425E+02  0.00000000000E+00 0. -1.
         21    1    1    2  502  501  0.34861401320E+02  0.56067259635E+01 -0.48075430243E+02  0.59648970411E+02  0.00000000000E+00 0.  1.
<scales pt_clust_5="13000.00000" pt_clust_6="13000.00000" pt_clust_7="13000.00000" pt_clust_8="13000.00000" pt_clust_9="35.30939"></scales>
<clustering>
<clus scale="   35.309">  1  9  2 -1</clus>
<clus scale="   80.625">  7  8 -1 -1</clus>
<clus scale="   81.028">  5  6 -1 -1</clus>
<clus scale="  113.155">  1  7  2 -1</clus>
<clus scale="  113.443">  2  5  1 -1</clus>
</clustering>
</event>
<event>
 9    2  0.2869112E-005  0.1130729E+03  0.7546771E-02  0.1258244E+00
         -1   -1    0    0    0  501 -0.00000000000E+00  0.00000000000E+00  0.94299531634E+02  0.94299531634E+02  0.00000000000E+00 0.  1.
          2   -1    0    0  502    0  0.00000000000E+00 -0.00000000000E+00 -0.37588381060E+03  0.37588381060E+03  0.00000000000E+00 0. -1.
         23    2    1    2    0    0 -0.87120421433E+02  0.56002333863E+02 -0.52168901244E+02  0.14623201634E+03  0.89084112598E+02 0.  0.
         24    2    1    2    0    0  0.64075152184E+02 -0.48174207537E+01 -0.24507936700E+03  0.26567319685E+03  0.79934465178E+02 0.  0.
        -11    1    4    4    0    0 -0.29478155289E+01 -0.26258967279E+02 -0.33307760230E+02  0.42516230671E+02  0.00000000000E+00 0.  1.
         12    1    4    4    0    0  0.67022967713E+02  0.21441546525E+02 -0.21177160677E+03  0.22315696618E+03  0.00000000000E+00 0. -1.
        -13    1    3    3    0    0 -0.60329161135E+02 -0.39455830239E+01  0.29096802227E+01  0.60528022830E+02  0.00000000000E+00 0.  1.
         13    1    3    3    0    0 -0.26791260298E+02  0.59947916887E+02 -0.55078581467E+02  0.85703993511E+02  0.00000000000E+00 0. -1.
         21    1    1    2  502  501  0.23045269249E+02 -0.51184913109E+02  0.15663989281E+02  0.58278129045E+02  0.00000000000E+00 0. -1.
<scales pt_clust_5="13000.00000" pt_clust_6="13000.00000" pt_clust_7="13000.00000" pt_clust_8="13000.00000" pt_clust_9="56.13359"></scales>
<clustering>
<clus scale="   56.134">  1  9  2 -1</clus>
<clus scale="   79.934">  5  6 -1 -1</clus>
<clus scale="   89.084">  7  8 -1 -1</clus>
<clus scale="  106.014">  2  5  1 -1</clus>
<clus scale="  106.014">  2  5  1 -1</clus>
</clustering>
</event>
<event>
 9    2  0.2869112E-005  0.1778412E+03  0.7546771E-02  0.1171197E+00
         -1   -1    0    0    0  501 -0.00000000000E+00  0.00000000000E+00  0.10289139948E+03  0.10289139948E+03  0.00000000000E+00 0.  1.
          2   -1    0    0  502    0  0.00000000000E+00 -0.00000000000E+00 -0.53217959995E+03  0.53217959995E+03  0.00000000000E+00 0. -1.
         24    2    1    2    0    0 -0.15697116559E+03  0.41203172340E+02 -0.28276681539E+02  0.18334843407E+03  0.80494902446E+02 0.  0.
         23    2    1    2    0    0  0.14939952966E+03 -0.19610919531E+02 -0.38629137508E+03  0.42451525592E+03  0.91034984579E+02 0.  0.
        -11    1    3    3    0    0 -0.10895198870E+03  0.25898742441E+02  0.19766944819E+02  0.11371900813E+03  0.00000000000E+00 0.  1.
         12    1    3    3    0    0 -0.48019176888E+02  0.15304429899E+02 -0.48043626357E+02  0.69629425943E+02  0.00000000000E+00 0. -1.
        -13    1    4    4    0    0  0.12982122387E+03 -0.24303957411E+02 -0.38164536406E+03  0.40385321148E+03  0.00000000000E+00 0. -1.
         13    1    4    4    0    0  0.19578305791E+02  0.46930378802E+01 -0.46460110269E+01  0.20662044445E+02  0.00000000000E+00 0.  1.
         21    1    1    2  502  501  0.75716359360E+01 -0.21592252809E+02 -0.14720143839E+02  0.27207309436E+02  0.00000000000E+00 0.  1.
<scales pt_clust_5="13000.00000" pt_clust_6="13000.00000" pt_clust_7="13000.00000" pt_clust_8="13000.00000" pt_clust_9="22.88133"></scales>
<clustering>
<clus scale="   22.881">  1  9  2 -1</clus>
<clus scale="   80.495">  5  6 -1 -1</clus>
<clus scale="   91.035">  7  8 -1 -1</clus>
<clus scale="  172.683">  1  5  2 -1</clus>
<clus scale="  177.841">  2  5  1 -1</clus>
</clustering>
</event>
<event>
 9    2  0.2869112E-005  0.1451060E+03  0.7546771E-02  0.1208785E+00
          2   -1    0    0  502    0  0.00000000000E+00  0.00000000000E+00  0.16343251083E+03  0.16343251083E+03  0.00000000000E+00 0. -1.
         -1   -1    0    0    0  501 -0.00000000000E+00 -0.00000000000E+00 -0.38392051494E+03  0.38392051494E+03  0.00000000000E+00 0.  1.
         24    2    1    2    0    0 -0.41904751074E+02  0.78836536443E+02 -0.19454220567E+03  0.22890901299E+03  0.81126190610E+02 0.  0.
         23    2    1    2    0    0  0.56097080979E+02 -0.10199854599E+03  0.10691242154E+03  0.18283720052E+03  0.91916212594E+02 0.  0.
        -11    1    3    3    0    0 -0.28270503433E+02  0.33141749269E+02 -0.16957889490E+03  0.17508454674E+03  0.00000000000E+00 0.  1.
         12    1    3    3    0    0 -0.13634247641E+02  0.45694787175E+02 -0.24963310764E+02  0.53824466258E+02  0.00000000000E+00 0. -1.
        -13    1    4    4    0    0  0.62130670969E+02 -0.48567987743E+02  0.21210204377E+02  0.81663593347E+02  0.00000000000E+00 0.  1.
         13    1    4    4    0    0 -0.60335899902E+01 -0.53430558244E+02  0.85702217163E+02  0.10117360718E+03  0.00000000000E+00 0. -1.
         21    1    1    2  502  501 -0.14192329905E+02  0.23162009544E+02 -0.13285821998E+03  0.13560681225E+03  0.00000000000E+00 0.  1.
<scales pt_clust_5="13000.00000" pt_clust_6="13000.00000" pt_clust_7="13000.00000" pt_clust_8="13000.00000" pt_clust_9="27.16433"></scales>
<clustering>
<clus scale="   27.164">  2  9  1 -1</clus>
<clus scale="   81.126">  5  6 -1 -1</clus>
<clus scale="   91.916">  7  8 -1 -1</clus>
<clus scale="  138.523">  2  5  1 -1</clus>
<clus scale="  145.106">  1  5  2 -1</clus>
</clustering>
</event>
<event>
 9    2  0.2869112E-005  0.1082724E+03  0.7546771E-02  0.1268851E+00
         -1   -1    0    0    0  501 -0.00000000000E+00  0.00000000000E+00  0.16786624566E+03  0.16786624566E+03  0.00000000000E+00 0.  1.
          2   -1    0    0  502    0  0.00000000000E+00 -0.00000000000E+00 -0.22192692589E+03  0.22192692589E+03  0.00000000000E+00 0. -1.
         23    2    1    2    0    0  0.48213243886E+01 -0.12207030555E+02  0.87796948182E+02  0.12822103418E+03  0.92520661109E+02 0.  0.
         24    2    1    2    0    0  0.64028947618E+02  0.83664921586E+01 -0.15991079964E+03  0.19029081666E+03  0.80432746678E+02 0.  0.
        -11    1    4    4    0    0  0.29977408886E+02  0.12133146733E+01 -0.36735995176E+01  0.30226023712E+02  0.00000000000E+00 0.  1.
         12    1    4    4    0    0  0.34051538732E+02  0.71531774852E+01 -0.15623720013E+03  0.16006479295E+03  0.00000000000E+00 0. -1.
        -13    1    3    3    0    0 -0.31323852039E+02 -0.26331441020E+02  0.78177463736E+02  0.88239698147E+02  0.00000000000E+00 0.  1.
         13    1    3    3    0    0  0.36145176427E+02  0.14124410465E+02  0.96194844452E+01  0.39981336032E+02  0.00000000000E+00 0. -1.
         21    1    1    2  502  501 -0.68850272006E+02  0.38405383965E+01  0.18053171238E+02  0.71281320711E+02  0.00000000000E+00 0.  1.
<scales pt_clust_5="13000.00000" pt_clust_6="13000.00000" pt_clust_7="13000.00000" pt_clust_8="13000.00000" pt_clust_9="68.95730"></scales>
<clustering>
<clus scale="   68.957">  1  9  2 -1</clus>
<clus scale="   80.433">  5  6 -1 -1</clus>
<clus scale="   92.521">  7  8 -1 -1</clus>
<clus scale="   98.144">  2  5  1 -1</clus>
<clus scale="   98.144">  2  5  1 -1</clus>
</clustering>
</event>
<event>
 9    2  0.2869112E-005  0.1712308E+03  0.7546771E-02  0.1177806E+00
          2   -1    0    0  502    0  0.00000000000E+00  0.00000000000E+00  0.19534322686E+03  0.19534322686E+03  0.00000000000E+00 0. -1.
         -1   -1    0    0    0  501 -0.00000000000E+00 -0.00000000000E+00 -0.25454062137E+03  0.25454062137E+03  0.00000000000E+00 0.  1.
         24    2    1    2    0    0 -0.10732796456E+03 -0.33200270234E+02 -0.34279898955E+02  0.14268534116E+03  0.81008920425E+02 0.  0.
         23    2    1    2    0    0  0.15012774208E+03  0.94246235696E+02  0.46128961221E+02  0.20421292616E+03  0.90301418927E+02 0.  0.
        -11    1    3    3    0    0 -0.67991782015E+02  0.20930088224E+02 -0.23419674945E+02  0.74896142685E+02  0.00000000000E+00 0.  1.
         12    1    3    3    0    0 -0.39336182550E+02 -0.54130358458E+02 -0.10860224010E+02  0.67789198475E+02  0.00000000000E+00 0. -1.
        -13    1    4    4    0    0  0.11339036097E+03  0.11068580654E+03  0.32809961099E+02  0.16181846396E+03  0.00000000000E+00 0.  1.
         13    1    4    4    0    0  0.36737381114E+02 -0.16439570847E+02  0.13319000122E+02  0.42394462198E+02  0.00000000000E+00 0. -1.
         21    1    1    2  502  501 -0.42799777518E+02 -0.61045965462E+02 -0.71046456781E+02  0.10298558091E+03  0.00000000000E+00 0. -1.
<scales pt_clust_5="13000.00000" pt_clust_6="13000.00000" pt_clust_7="13000.00000" pt_clust_8="13000.00000" pt_clust_9="74.55488"></scales>
<clustering>
<clus scale="   74.555">  2  9  1 -1</clus>
<clus scale="   81.009">  5  6 -1 -1</clus>
<clus scale="   90.301">  7  8 -1 -1</clus>
<clus scale="  166.517">  2  5  1 -1</clus>
<clus scale="  171.231">  1  5  2 -1</clus>
</clustering>
</event>
<event>
 9    2  0.2869112E-005  0.1217537E+03  0.7546771E-02  0.1244464E+00
         -1   -1    0    0    0  501 -0.00000000000E+00  0.00000000000E+00  0.48018949018E+02  0.48018949018E+02  0.00000000000E+00 0.  1.
          2   -1    0    0  502    0  0.00000000000E+00 -0.00000000000E+00 -0.10487513553E+04  0.10487513553E+04  0.00000000000E+00 0. -1.
         23    2    1    2    0    0 -0.59755692752E+02 -0.33115882785E+02 -0.50207858337E+02  0.12507071473E+03  0.91948083917E+02 0.  0.
         24    2    1    2    0    0  0.55746890383E+02  0.58927590441E+02 -0.93403389777E+03  0.94080855059E+03  0.78238289688E+02 0.  0.
        -13    1    4    4    0    0  0.24459340212E+02  0.39664935118E+02 -0.18178385629E+03  0.18766176171E+03  0.00000000000E+00 0.  1.
         14    1    4    4    0    0  0.31287550170E+02  0.19262655322E+02 -0.75225004148E+03  0.75314678888E+03  0.00000000000E+00 0. -1.
        -11    1    3    3    0    0 -0.52755331583E+02 -0.60342991148E+02 -0.54083140481E+02  0.96692231722E+02  0.00000000000E+00 0.  1.
         11    1    3    3    0    0 -0.70003611698E+01  0.27227108363E+02  0.38752821434E+01  0.28378483011E+02  0.00000000000E+00 0. -1.
         21    1    1    2  502  501  0.40088023695E+01 -0.25811707656E+02 -0.16490650223E+02  0.30891039045E+02  0.00000000000E+00 0.  1.
<scales pt_clust_5="13000.00000" pt_clust_6="13000.00000" pt_clust_7="13000.00000" pt_clust_8="13000.00000" pt_clust_9="26.12116"></scales>
<clustering>
<clus scale="   26.121">  1  9  2 -1</clus>
<clus scale="   78.238">  5  6 -1 -1</clus>
<clus scale="   91.948">  7  8 -1 -1</clus>
<clus scale="  111.762">  2  5  1 -1</clus>
<clus scale="  111.762">  2  5  1 -1</clus>
</clustering>
</event>
<event>
 9    2  0.2869112E-005  0.9329710E+02  0.7546771E-02  0.1299948E+00
         -1   -1    0    0    0  501 -0.00000000000E+00  0.00000000000E+00  0.16697579840E+03  0.16697579840E+03  0.00000000000E+00 0.  1.
          2   -1    0    0  502    0  0.00000000000E+00 -0.00000000000E+00 -0.33523289291E+03  0.33523289291E+03  0.00000000000E+00 0. -1.
         24    2    1    2    0    0 -0.34068174937E+02 -0.19765730016E+02 -0.55616752513E+02  0.10608976530E+03  0.81304923070E+02 0.  0.
         23    2    1    2    0    0 -0.29179772495E+01  0.26384762359E+02 -0.24303036457E+03  0.26042314484E+03  0.89731744581E+02 0.  0.
        -11    1    3    3    0    0 -0.11889930053E+02 -0.34447930039E+02  0.78473208216E+01  0.37277483348E+02  0.00000000000E+00 0.  1.
         12    1    3    3    0    0 -0.22178244884E+02  0.14682200024E+02 -0.63464073335E+02  0.68812281955E+02  0.00000000000E+00 0. -1.
        -11    1    4    4    0    0  0.32184261013E+02 -0.17512146876E+01 -0.34984404441E+02  0.47568918045E+02  0.00000000000E+00 0.  1.
         11    1    4    4    0    0 -0.35102238263E+02  0.28135977047E+02 -0.20804596013E+03  0.21285422679E+03  0.00000000000E+00 0. -1.
         21    1    1    2  502  501  0.36986152186E+02 -0.66190323435E+01  0.13039002257E+03  0.13569578117E+03  0.00000000000E+00 0.  1.
<scales pt_clust_5="13000.00000" pt_clust_6="13000.00000" pt_clust_7="13000.00000" pt_clust_8="13000.00000" pt_clust_9="37.57375"></scales>
<clustering>
<clus scale="   37.574">  1  9  2 -1</clus>
<clus scale="   81.305">  5  6 -1 -1</clus>
<clus scale="   85.224">  1  5  2 -1</clus>
<clus scale="   89.732">  7  8 -1 -1</clus>
<clus scale="   93.297">  2  5  1 -1</clus>
</clustering>
</event>
<event>
 9    2  0.2869112E-005  0.9132757E+02  0.7546771E-02  0.1306152E+00
         -1   -1    0    0    0  501 -0.00000000000E+00  0.00000000000E+00  0.15384762696E+03  0.15384762696E+03  0.00000000000E+00 0.  1.
          2   -1    0    0  502    0  0.00000000000E+00 -0.00000000000E+00 -0.33970433117E+03  0.33970433117E+03  0.00000000000E+00 0. -1.
         23    2    1    2    0    0  0.10530591455E+02  0.42510912879E+02 -0.36531100937E+02  0.10736517092E+03  0.90965309435E+02 0.  0.
         24    2    1    2    0    0  0.24599466161E+01  0.17514805342E+02 -0.25275020738E+03  0.26590175214E+03  0.80673754807E+02 0.  0.
        -11    1    4    4    0    0 -0.25792396143E+02  0.11650076220E+02 -0.29820646547E+02  0.41112564201E+02  0.00000000000E+00 0.  1.
         12    1    4    4    0    0  0.28252342759E+02  0.58647291224E+01 -0.22292956083E+03  0.22478918793E+03  0.00000000000E+00 0. -1.
        -11    1    3    3    0    0 -0.78939140360E+00 -0.27362720108E+02 -0.21965711267E+02  0.35097493670E+02  0.00000000000E+00 0.  1.
         11    1    3    3    0    0  0.11319982859E+02  0.69873632987E+02 -0.14565389670E+02  0.72267677249E+02  0.00000000000E+00 0. -1.
         21    1    1    2  502  501 -0.12990538071E+02 -0.60025718221E+02  0.10342460411E+03  0.12028503508E+03  0.00000000000E+00 0.  1.
<scales pt_clust_5="13000.00000" pt_clust_6="13000.00000" pt_clust_7="13000.00000" pt_clust_8="13000.00000" pt_clust_9="61.41532"></scales>
<clustering>
<clus scale="   61.415">  1  9  2 -1</clus>
<clus scale="   80.674">  5  6 -1 -1</clus>
<clus scale="   81.082">  2  5  1 -1</clus>
<clus scale="   90.965">  7  8 -1 -1</clus>
<clus scale="   81.082">  2  5  1 -1</clus>
</clustering>
</event>
<event>
 9    2  0.2869112E-005  0.1730483E+03  0.7546771E-02  0.1176086E+00
          2   -1    0    0  502    0  0.00000000000E+00  0.00000000000E+00  0.82298887379E+03  0.82298887379E+03  0.00000000000E+00 0. -1.
         -1   -1    0    0    0  501 -0.00000000000E+00 -0.00000000000E+00 -0.18309910933E+03  0.18309910933E+03  0.00000000000E+00 0.  1.
         24    2    1    2    0    0 -0.14348685097E+03 -0.11322583011E+03  0.34022772250E+03  0.39456079419E+03  0.80714014594E+02 0.  0.
         23    2    1    2    0    0  0.84105483868E+02  0.98675149445E+02  0.43501315290E+03  0.46300852916E+03  0.91268490417E+02 0.  0.
        -11    1    3    3    0    0 -0.65550652304E+02 -0.97071172342E+02  0.23549408098E+03  0.26301551798E+03  0.00000000000E+00 0.  1.
         12    1    3    3    0    0 -0.77936198668E+02 -0.16154657770E+02  0.10473364151E+03  0.13154527622E+03  0.00000000000E+00 0. -1.
        -11    1    4    4    0    0  0.33715136551E+02 -0.53624541015E+01  0.17729752339E+03  0.18055436341E+03  0.00000000000E+00 0. -1.
         11    1    4    4    0    0  0.50390347317E+02  0.10403760355E+03  0.25771562952E+03  0.28245416575E+03  0.00000000000E+00 0.  1.
         21    1    1    2  502  501  0.59381367104E+02  0.14550680667E+02 -0.13535111094E+03  0.14851865977E+03  0.00000000000E+00 0.  1.
<scales pt_clust_5="13000.00000" pt_clust_6="13000.00000" pt_clust_7="13000.00000" pt_clust_8="13000.00000" pt_clust_9="61.13811"></scales>
<clustering>
<clus scale="   61.138">  2  9  1 -1</clus>
<clus scale="   80.714">  5  6 -1 -1</clus>
<clus scale="   91.268">  7  8 -1 -1</clus>
<clus scale="  167.722">  2  5  1 -1</clus>
<clus scale="  173.048">  1  5  2 -1</clus>
</clustering>
</event>
<event>
 9    2  0.2869112E-005  0.1020984E+03  0.7546771E-02  0.1279552E+00
         -1   -1    0    0    0  501 -0.00000000000E+00  0.00000000000E+00  0.35669164924E+03  0.35669164924E+03  0.00000000000E+00 0.  1.
          2   -1    0    0  502    0  0.00000000000E+00 -0.00000000000E+00 -0.11366909129E+03  0.11366909129E+03  0.00000000000E+00 0. -1.
         23    2    1    2    0    0 -0.25909389038E+02  0.21225719739E+02  0.23874259137E+03  0.25684437112E+03  0.88595589187E+02 0.  0.
         24    2    1    2    0    0  0.50079178795E+02 -0.15816814075E+02 -0.80319449687E+02  0.12536595119E+03  0.80667911614E+02 0.  0.
        -11    1    4    4    0    0  0.34333605362E+01 -0.34370533100E+02 -0.50746692425E+01  0.34912372851E+02  0.00000000000E+00 0.  1.
         12    1    4    4    0    0  0.46645818259E+02  0.18553719025E+02 -0.75244780445E+02  0.90453578342E+02  0.00000000000E+00 0. -1.
        -13    1    3    3    0    0 -0.46516986384E+02  0.16244013500E+02  0.22764140438E+03  0.23291265957E+03  0.00000000000E+00 0.  1.
         13    1    3    3    0    0  0.20607597346E+02  0.49817062390E+01  0.11101186990E+02  0.23931711556E+02  0.00000000000E+00 0. -1.
         21    1    1    2  502  501 -0.24169789757E+02 -0.54089056638E+01  0.84599416273E+02  0.88150418213E+02  0.00000000000E+00 0.  1.
<scales pt_clust_5="13000.00000" pt_clust_6="13000.00000" pt_clust_7="13000.00000" pt_clust_8="13000.00000" pt_clust_9="24.76762"></scales>
<clustering>
<clus scale="   24.768">  1  9  2 -1</clus>
<clus scale="   80.668">  5  6 -1 -1</clus>
<clus scale="   88.596">  7  8 -1 -1</clus>
<clus scale="   95.301">  2  5  1 -1</clus>
<clus scale="   95.301">  2  5  1 -1</clus>
</clustering>
</event>
<event>
 9    2  0.2869112E-005  0.1280321E+03  0.7546771E-02  0.1232878E+00
          2   -1    0    0  502    0  0.00000000000E+00  0.00000000000E+00  0.32383201196E+03  0.32383201196E+03  0.00000000000E+00 0. -1.
         -1   -1    0    0    0  501 -0.00000000000E+00 -0.00000000000E+00 -0.76646388611E+02  0.76646388611E+02  0.00000000000E+00 0.  1.
         23    2    1    2    0    0  0.85488381014E+02 -0.74650970944E+02  0.84328869051E+02  0.16755350309E+03  0.89898762461E+02 0.  0.
         24    2    1    2    0    0 -0.71631001183E+02  0.39550038010E+02  0.15732392749E+03  0.19478417591E+03  0.80590639584E+02 0.  0.
        -11    1    4    4    0    0 -0.23383855361E+02  0.58410225050E+02  0.81682918832E+02  0.10310508383E+03  0.00000000000E+00 0.  1.
         12    1    4    4    0    0 -0.48247145822E+02 -0.18860187040E+02  0.75641008659E+02  0.91679092088E+02  0.00000000000E+00 0. -1.
        -11    1    3    3    0    0  0.87126263375E+02 -0.31130750686E+02  0.28629590044E+02  0.96849175702E+02  0.00000000000E+00 0.  1.
         11    1    3    3    0    0 -0.16378823611E+01 -0.43520220258E+02  0.55699279007E+02  0.70704327391E+02  0.00000000000E+00 0. -1.
         21    1    1    2  502  501 -0.13857379831E+02  0.35100932934E+02  0.55328268029E+01  0.38140721559E+02  0.00000000000E+00 0.  1.
<scales pt_clust_5="13000.00000" pt_clust_6="13000.00000" pt_clust_7="13000.00000" pt_clust_8="13000.00000" pt_clust_9="37.73728"></scales>
<clustering>
<clus scale="   37.737">  2  9  1 -1</clus>
<clus scale="   80.591">  5  6 -1 -1</clus>
<clus scale="   89.899">  7  8 -1 -1</clus>
<clus scale="  121.677">  1  5  2 -1</clus>
<clus scale="  121.677">  1  5  2 -1</clus>
</clustering>
</event>
<event>
 9    2  0.2869112E-005  0.9371352E+02  0.7546771E-02  0.1300524E+00
         -1   -1    0    0    0  501 -0.00000000000E+00  0.00000000000E+00  0.12857896694E+03  0.12857896694E+03  0.00000000000E+00 0.  1.
          2   -1    0    0  502    0  0.00000000000E+00 -0.00000000000E+00 -0.46485370661E+03  0.46485370661E+03  0.00000000000E+00 0. -1.
         23    2    1    2    0    0 -0.27116062002E+02 -0.83952595977E+01  0.60735266720E+02  0.11358097061E+03  0.91684802776E+02 0.  0.
         24    2    1    2    0    0 -0.50780525469E+01  0.19540048926E+02 -0.42663200392E+03  0.43470604889E+03  0.80912805231E+02 0.  0.
        -11    1    4    4    0    0  0.11905327655E+02 -0.24051696108E+02 -0.69137921084E+02  0.74163825711E+02  0.00000000000E+00 0.  1.
         12    1    4    4    0    0 -0.16983380202E+02  0.43591745035E+02 -0.35749408283E+03  0.36054222318E+03  0.00000000000E+00 0. -1.
        -13    1    3    3    0    0 -0.36050558478E+02 -0.36590202981E+02  0.64609593965E+01  0.51770935061E+02  0.00000000000E+00 0.  1.
         13    1    3    3    0    0  0.89344964759E+01  0.28194943384E+02  0.54274307324E+02  0.61810035554E+02  0.00000000000E+00 0. -1.
         21    1    1    2  502  501  0.32194114549E+02 -0.11144789329E+02  0.29621997534E+02  0.45145654040E+02  0.00000000000E+00 0.  1.
<scales pt_clust_5="13000.00000" pt_clust_6="13000.00000" pt_clust_7="13000.00000" pt_clust_8="13000.00000" pt_clust_9="34.06857"></scales>
<clustering>
<clus scale="   34.069">  1  9  2 -1</clus>
<clus scale="   80.913">  5  6 -1 -1</clus>
<clus scale="   83.205">  2  5  1 -1</clus>
<clus scale="   91.685">  7  8 -1 -1</clus>
<clus scale="   83.205">  2  5  1 -1</clus>
</clustering>
</event>
<event>
 9    2  0.2869112E-005  0.3907587E+03  0.7546771E-02  0.1047027E+00
          2   -1    0    0  502    0  0.00000000000E+00  0.00000000000E+00  0.59802845625E+03  0.59802845625E+03  0.00000000000E+00 0. -1.
         -1   -1    0    0    0  501 -0.00000000000E+00 -0.00000000000E+00 -0.21101557786E+03  0.21101557786E+03  0.00000000000E+00 0.  1.
         24    2    1    2    0    0 -0.35101068371E+02  0.21714248336E+03  0.23986484434E+03  0.33558066831E+03  0.81830912949E+02 0.  0.
         23    2    1    2    0    0  0.50740743691E+02  0.93962386160E+02  0.35944012578E+02  0.14271093016E+03  0.87583585588E+02 0.  0.
        -13    1    3    3    0    0  0.10036037149E+02  0.11629149905E+03  0.81021125968E+02  0.14208749996E+03  0.00000000000E+00 0.  1.
         14    1    3    3    0    0 -0.45137105520E+02  0.10085098431E+03  0.15884371838E+03  0.19349316835E+03  0.00000000000E+00 0. -1.
        -13    1    4    4    0    0  0.67364773771E+02  0.57425961665E+02  0.48133873359E+02  0.10076022818E+03  0.00000000000E+00 0. -1.
         13    1    4    4    0    0 -0.16624030080E+02  0.36536424495E+02 -0.12189860780E+02  0.41950701983E+02  0.00000000000E+00 0.  1.
         21    1    1    2  502  501 -0.15639675320E+02 -0.31110486952E+03  0.11120402147E+03  0.33075243563E+03  0.00000000000E+00 0. -1.
<scales pt_clust_5="13000.00000" pt_clust_6="13000.00000" pt_clust_7="13000.00000" pt_clust_8="13000.00000" pt_clust_9="311.49774"></scales>
<clustering>
<clus scale="   81.831">  5  6 -1 -1</clus>
<clus scale="   87.584">  7  8 -1 -1</clus>
<clus scale="  137.469">  5  7 -1 -1</clus>
<clus scale="  311.498">  2  9  1 -1</clus>
<clus scale="  390.759">  1  5  2 -1</clus>
</clustering>
</event>
<event>
 9    2  0.2869112E-005  0.1124011E+03  0.7546771E-02  0.1260172E+00
         -1   -1    0    0    0  501 -0.00000000000E+00  0.00000000000E+00  0.48100817787E+02  0.48100817787E+02  0.00000000000E+00 0.  1.
          2   -1    0    0  502    0  0.00000000000E+00 -0.00000000000E+00 -0.32792893156E+03  0.32792893156E+03  0.00000000000E+00 0. -1.
         23    2    1    2    0    0 -0.28898660049E+02 -0.64184760305E+02 -0.12215537895E+03  0.16897931929E+03  0.93151799400E+02 0.  0.
         24    2    1    2    0    0  0.36952911633E+01  0.59436301630E+02 -0.14788151064E+03  0.17959818545E+03  0.82705730757E+02 0.  0.
        -13    1    4    4    0    0  0.16018012082E+02  0.49053049523E+02 -0.15395870142E+03  0.16237629175E+03  0.00000000000E+00 0.  1.
         14    1    4    4    0    0 -0.12322720919E+02  0.10383252107E+02  0.60771907760E+01  0.17221893708E+02  0.00000000000E+00 0. -1.
        -13    1    3    3    0    0 -0.10102964628E+02 -0.22507555715E+02  0.11864507944E+02  0.27375655377E+02  0.00000000000E+00 0.  1.
         13    1    3    3    0    0 -0.18795695421E+02 -0.41677204590E+02 -0.13401988690E+03  0.14160366391E+03  0.00000000000E+00 0. -1.
         21    1    1    2  502  501  0.25203368886E+02  0.47484586747E+01 -0.97912241747E+01  0.27452244604E+02  0.00000000000E+00 0. -1.
<scales pt_clust_5="13000.00000" pt_clust_6="13000.00000" pt_clust_7="13000.00000" pt_clust_8="13000.00000" pt_clust_9="25.64679"></scales>
<clustering>
<clus scale="   25.647">  1  9  2 -1</clus>
<clus scale="   82.706">  5  6 -1 -1</clus>
<clus scale="   93.152">  7  8 -1 -1</clus>
<clus scale="  103.909">  2  5  1 -1</clus>
<clus scale="  103.909">  2  5  1 -1</clus>
</clustering>
</event>
<event>
 9    2  0.2869112E-005  0.1083204E+03  0.7546771E-02  0.1271512E+00
         -1   -1    0    0    0  501 -0.00000000000E+00  0.00000000000E+00  0.63421678095E+03  0.63421678095E+03  0.00000000000E+00 0.  1.
          2   -1    0    0  502    0  0.00000000000E+00 -0.00000000000E+00 -0.38827842681E+02  0.38827842681E+02  0.00000000000E+00 0. -1.
         23    2    1    2    0    0  0.10581890503E+02 -0.37168188374E+02  0.48007728192E+03  0.49031887022E+03  0.91896394079E+02 0.  0.
         24    2    1    2    0    0 -0.15934895791E+02  0.57872765046E+02  0.37324272669E+02  0.10185940581E+03  0.73342071037E+02 0.  0.
        -13    1    4    4    0    0  0.17840079681E+02  0.24475827566E+02  0.44492572399E+02  0.53823076620E+02  0.00000000000E+00 0.  1.
         14    1    4    4    0    0 -0.33774975472E+02  0.33396937480E+02 -0.71682997299E+01  0.48036329192E+02  0.00000000000E+00 0. -1.
        -13    1    3    3    0    0  0.28332893736E+02 -0.59916861228E+02  0.39395410631E+03  0.39949045170E+03  0.00000000000E+00 0.  1.
         13    1    3    3    0    0 -0.17751003234E+02  0.22748672854E+02  0.86123175611E+02  0.90828418514E+02  0.00000000000E+00 0. -1.
         21    1    1    2  502  501  0.53530052885E+01 -0.20704576673E+02  0.77987383679E+02  0.80866347598E+02  0.00000000000E+00 0.  1.
<scales pt_clust_5="13000.00000" pt_clust_6="13000.00000" pt_clust_7="13000.00000" pt_clust_8="13000.00000" pt_clust_9="21.38537"></scales>
<clustering>
<clus scale="   21.385">  1  9  2 -1</clus>
<clus scale="   73.342">  5  6 -1 -1</clus>
<clus scale="   91.896">  7  8 -1 -1</clus>
<clus scale="   93.099">  2  5  1 -1</clus>
<clus scale="   93.099">  2  5  1 -1</clus>
</clustering>
</event>
<event>
 9    2  0.2869112E-005  0.9491998E+02  0.7546771E-02  0.1297944E+00
         -1   -1    0    0    0  501 -0.00000000000E+00  0.00000000000E+00  0.26861262180E+03  0.26861262180E+03  0.00000000000E+00 0.  1.
          2   -1    0    0  502    0  0.00000000000E+00 -0.00000000000E+00 -0.35670908835E+03  0.35670908835E+03  0.00000000000E+00 0. -1.
         23    2    1    2    0    0  0.20179334930E+02  0.20494905705E+02  0.18810917825E+03  0.21143984532E+03  0.92165603825E+02 0.  0.
         24    2    1    2    0    0  0.22818289617E+01 -0.22690303950E+02 -0.33790174129E+03  0.34818763389E+03  0.80851623306E+02 0.  0.
        -11    1    4    4    0    0  0.15925892141E+02 -0.17833594151E+02 -0.23744595832E+02  0.33696838903E+02  0.00000000000E+00 0.  1.
         12    1    4    4    0    0 -0.13644063180E+02 -0.48567097997E+01 -0.31415714546E+03  0.31449079499E+03  0.00000000000E+00 0. -1.
        -11    1    3    3    0    0 -0.32946346813E+02  0.25261442580E+02  0.10230686021E+03  0.11040967302E+03  0.00000000000E+00 0. -1.
         11    1    3    3    0    0  0.53125681743E+02 -0.47665368747E+01  0.85802318038E+02  0.10103017230E+03  0.00000000000E+00 0.  1.
         21    1    1    2  502  501 -0.22461163892E+02  0.21953982453E+01  0.61696096491E+02  0.65694230941E+02  0.00000000000E+00 0.  1.
<scales pt_clust_5="13000.00000" pt_clust_6="13000.00000" pt_clust_7="13000.00000" pt_clust_8="13000.00000" pt_clust_9="22.56820"></scales>
<clustering>
<clus scale="   22.568">  1  9  2 -1</clus>
<clus scale="   80.852">  5  6 -1 -1</clus>
<clus scale="   83.978">  2  5  1 -1</clus>
<clus scale="   92.166">  7  8 -1 -1</clus>
<clus scale="   83.978">  2  5  1 -1</clus>
</clustering>
</event>
<event>
 9    2  0.2869112E-005  0.9574117E+02  0.7546771E-02  0.1294600E+00
          2   -1    0    0  502    0  0.00000000000E+00  0.00000000000E+00  0.83182839649E+03  0.83182839649E+03  0.00000000000E+00 0. -1.
         -1   -1    0    0    0  501 -0.00000000000E+00 -0.00000000000E+00 -0.34683645406E+02  0.34683645406E+02  0.00000000000E+00 0.  1.
         23    2    1    2    0    0  0.52413892245E+02 -0.15937052011E+01  0.12243621298E+03  0.16053258246E+03  0.89612096204E+02 0.  0.
         24    2    1    2    0    0 -0.16675050470E+02 -0.30256334549E+02  0.64218385091E+03  0.64810420461E+03  0.80283613392E+02 0.  0.
        -11    1    4    4    0    0 -0.11324242961E+02  0.17488450726E+02  0.52748087853E+02  0.56713712271E+02  0.00000000000E+00 0.  1.
         12    1    4    4    0    0 -0.53508075087E+01 -0.47744785275E+02  0.58943576306E+03  0.59139049234E+03  0.00000000000E+00 0. -1.
        -13    1    3    3    0    0  0.27438919290E+02  0.38950308559E+02  0.93152778598E+02  0.10463011512E+03  0.00000000000E+00 0. -1.
         13    1    3    3    0    0  0.24974972955E+02 -0.40544013761E+02  0.29283434378E+02  0.55902467341E+02  0.00000000000E+00 0.  1.
         21    1    1    2  502  501 -0.35738841776E+02  0.31850039750E+02  0.32524687195E+02  0.57875254821E+02  0.00000000000E+00 0.  1.
<scales pt_clust_5="13000.00000" pt_clust_6="13000.00000" pt_clust_7="13000.00000" pt_clust_8="13000.00000" pt_clust_9="47.87160"></scales>
<clustering>
<clus scale="   47.872">  2  9  1 -1</clus>
<clus scale="   80.284">  5  6 -1 -1</clus>
<clus scale="   87.072">  1  5  2 -1</clus>
<clus scale="   89.612">  7  8 -1 -1</clus>
<clus scale="   87.072">  1  5  2 -1</clus>
</clustering>
</event>
<event>
 9    2  0.2869112E-005  0.1033966E+03  0.7546771E-02  0.1280296E+00
         -1   -1    0    0    0  501 -0.00000000000E+00  0.00000000000E+00  0.33271047866E+02  0.33271047866E+02  0.00000000000E+00 0.  1.
          2   -1    0    0  502    0  0.00000000000E+00 -0.00000000000E+00 -0.55442207309E+03  0.55442207309E+03  0.00000000000E+00 0. -1.
         23    2    1    2    0    0  0.31715113385E+02 -0.27525668979E+02 -0.98019420072E+02  0.14074495399E+03  0.91857631650E+02 0.  0.
         24    2    1    2    0    0 -0.18339145066E+02  0.66040436911E+02 -0.29614995253E+03  0.31358158952E+03  0.77012696053E+02 0.  0.
        -13    1    4    4    0    0 -0.28009644233E+02  0.64659955981E+01 -0.33763463894E+02  0.44343215527E+02  0.00000000000E+00 0.  1.
         14    1    4    4    0    0  0.96704991669E+01  0.59574441313E+02 -0.26238648863E+03  0.26923837399E+03  0.00000000000E+00 0. -1.
        -13    1    3    3    0    0  0.31686183336E+02  0.28153905601E+02 -0.26051875586E+02  0.49752958068E+02  0.00000000000E+00 0.  1.
         13    1    3    3    0    0  0.28930049471E-01 -0.55679574580E+02 -0.71967544486E+02  0.90991995921E+02  0.00000000000E+00 0. -1.
         21    1    1    2  502  501 -0.13375968319E+02 -0.38514767933E+02 -0.12698165262E+03  0.13336657745E+03  0.00000000000E+00 0. -1.
<scales pt_clust_5="13000.00000" pt_clust_6="13000.00000" pt_clust_7="13000.00000" pt_clust_8="13000.00000" pt_clust_9="40.77136"></scales>
<clustering>
<clus scale="   40.771">  2  9  1 -1</clus>
<clus scale="   77.013">  5  6 -1 -1</clus>
<clus scale="   90.465">  2  5  1 -1</clus>
<clus scale="   91.858">  7  8 -1 -1</clus>
<clus scale="   40.771">  2  5  1 -1</clus>
</clustering>
</event>
<event>
 9    2  0.2869112E-005  0.1307411E+03  0.7546771E-02  0.1230116E+00
          2   -1    0    0  502    0  0.00000000000E+00  0.00000000000E+00  0.15781268739E+04  0.15781268739E+04  0.00000000000E+00 0. -1.
         -1   -1    0    0    0  501 -0.00000000000E+00 -0.00000000000E+00 -0.24946848137E+02  0.24946848137E+02  0.00000000000E+00 0.  1.
         23    2    1    2    0    0  0.12486256488E+03 -0.13280975806E+01  0.69764436079E+03  0.71512589139E+03  0.95419926840E+02 0.  0.
         24    2    1    2    0    0 -0.68806712378E+02 -0.33867938504E+02  0.77797923976E+03  0.78598696243E+03  0.81500961252E+02 0.  0.
        -11    1    4    4    0    0 -0.30131103427E+02 -0.28675374694E+02  0.12293192094E+03  0.12977834062E+03  0.00000000000E+00 0.  1.
         12    1    4    4    0    0 -0.38675608951E+02 -0.51925638100E+01  0.65504731882E+03  0.65620862181E+03  0.00000000000E+00 0. -1.
        -13    1    3    3    0    0  0.12442294736E+03 -0.27813523391E+02  0.62324267287E+03  0.63614942521E+03  0.00000000000E+00 0.  1.
         13    1    3    3    0    0  0.43961751900E+00  0.26485425810E+02  0.74401687924E+02  0.78976466177E+02  0.00000000000E+00 0. -1.
         21    1    1    2  502  501 -0.56055852505E+02  0.35196036085E+02  0.77556425212E+02  0.10196086822E+03  0.00000000000E+00 0.  1.
<scales pt_clust_5="13000.00000" pt_clust_6="13000.00000" pt_clust_7="13000.00000" pt_clust_8="13000.00000" pt_clust_9="66.18927"></scales>
<clustering>
<clus scale="   66.189">  2  9  1 -1</clus>
<clus scale="   81.501">  5  6 -1 -1</clus>
<clus scale="   95.420">  7  8 -1 -1</clus>
<clus scale="  120.957">  1  5  2 -1</clus>
<clus scale="  120.957">  1  5  2 -1</clus>
</clustering>
</event>
<event>
 9    2  0.2869112E-005  0.1291024E+03  0.7546771E-02  0.1229399E+00
          2   -1    0    0  502    0  0.00000000000E+00  0.00000000000E+00  0.10287822260E+04  0.10287822260E+04  0.00000000000E+00 0. -1.
         -1   -1    0    0    0  501 -0.00000000000E+00 -0.00000000000E+00 -0.40038036417E+02  0.40038036417E+02  0.00000000000E+00 0.  1.
         23    2    1    2    0    0 -0.89176016226E+02 -0.59173421308E+02  0.14864398363E+03  0.20470558799E+03  0.91408359723E+02 0.  0.
         24    2    1    2    0    0  0.59010982742E+02  0.62685534508E+02  0.81456625602E+03  0.82443789552E+03  0.93636989532E+02 0.  0.
        -13    1    4    4    0    0  0.54022913902E+02  0.33801315123E+02  0.21726722366E+03  0.22642007554E+03  0.00000000000E+00 0.  1.
         14    1    4    4    0    0  0.49880688405E+01  0.28884219384E+02  0.59729903236E+03  0.59801781998E+03  0.00000000000E+00 0. -1.
        -13    1    3    3    0    0 -0.49819673706E+00 -0.43860981539E+02  0.81045830956E+02  0.92154547456E+02  0.00000000000E+00 0. -1.
         13    1    3    3    0    0 -0.88677819489E+02 -0.15312439768E+02  0.67598152669E+02  0.11255104053E+03  0.00000000000E+00 0.  1.
         21    1    1    2  502  501  0.30165033484E+02 -0.35121132000E+01  0.25533949922E+02  0.39676778887E+02  0.00000000000E+00 0. -1.
<scales pt_clust_5="13000.00000" pt_clust_6="13000.00000" pt_clust_7="13000.00000" pt_clust_8="13000.00000" pt_clust_9="30.36880"></scales>
<clustering>
<clus scale="   30.369">  2  9  1 -1</clus>
<clus scale="   91.408">  7  8 -1 -1</clus>
<clus scale="   93.637">  5  6 -1 -1</clus>
<clus scale="  127.495">  2  7  1 -1</clus>
<clus scale="  129.102">  1  5  2 -1</clus>
</clustering>
</event>
<event>
 9    2  0.2869112E-005  0.1021052E+03  0.7546771E-02  0.1281271E+00
          2   -1    0    0  502    0  0.00000000000E+00  0.00000000000E+00  0.52098272732E+03  0.52098272732E+03  0.00000000000E+00 0. -1.
         -1   -1    0    0    0  501 -0.00000000000E+00 -0.00000000000E+00 -0.98401064365E+02  0.98401064365E+02  0.00000000000E+00 0.  1.
         23    2    1    2    0    0 -0.26813763861E+01 -0.18455316655E+02 -0.51874959555E+02  0.10597460105E+03  0.90508652336E+02 0.  0.
         24    2    1    2    0    0  0.17459685718E+02  0.45709247559E+02  0.47331942649E+03  0.48238551594E+03  0.79185418843E+02 0.  0.
        -11    1    4    4    0    0  0.19842484957E+02  0.23580300374E+02  0.51767180282E+02  0.60246126260E+02  0.00000000000E+00 0.  1.
         12    1    4    4    0    0 -0.23827992387E+01  0.22128947185E+02  0.42155224621E+03  0.42213938968E+03  0.00000000000E+00 0. -1.
        -11    1    3    3    0    0  0.19329654166E+02 -0.40923211933E+02 -0.58367268399E+02  0.73858532517E+02  0.00000000000E+00 0.  1.
         11    1    3    3    0    0 -0.22011030552E+02  0.22467895278E+02  0.64923088443E+01  0.32116068538E+02  0.00000000000E+00 0. -1.
         21    1    1    2  502  501 -0.14778309332E+02 -0.27253930904E+02  0.11371960169E+01  0.31023674689E+02  0.00000000000E+00 0.  1.
<scales pt_clust_5="13000.00000" pt_clust_6="13000.00000" pt_clust_7="13000.00000" pt_clust_8="13000.00000" pt_clust_9="31.00283"></scales>
<clustering>
<clus scale="   31.003">  2  9  1 -1</clus>
<clus scale="   79.185">  5  6 -1 -1</clus>
<clus scale="   90.509">  7  8 -1 -1</clus>
<clus scale="   92.217">  1  5  2 -1</clus>
<clus scale="   92.217">  1  5  2 -1</clus>
</clustering>
</event>
<event>
 9    2  0.2869112E-005  0.3425609E+03  0.7546771E-02  0.1119384E+00
         -1   -1    0    0    0  501 -0.00000000000E+00  0.00000000000E+00  0.39236163113E+03  0.39236163113E+03  0.00000000000E+00 0.  1.
          2   -1    0    0  502    0  0.00000000000E+00 -0.00000000000E+00 -0.44949436323E+03  0.44949436323E+03  0.00000000000E+00 0. -1.
         24    2    1    2    0    0  0.21617226371E+02 -0.36822652404E+01  0.94304774563E+02  0.12588116410E+03  0.80447581790E+02 0.  0.
         23    2    1    2    0    0  0.26813827364E+03 -0.16910891799E+03  0.32824291602E+02  0.33156950630E+03  0.91460064795E+02 0.  0.
        -13    1    3    3    0    0  0.46299537259E+02  0.18823965083E+02  0.56472258792E+02  0.75412895614E+02  0.00000000000E+00 0.  1.
         14    1    3    3    0    0 -0.24682310888E+02 -0.22506230324E+02  0.37832515771E+02  0.50468268484E+02  0.00000000000E+00 0. -1.
        -13    1    4    4    0    0  0.14482987108E+03 -0.11654909783E+03 -0.21082298551E+02  0.18709315079E+03  0.00000000000E+00 0. -1.
         13    1    4    4    0    0  0.12330840256E+03 -0.52559820158E+02  0.53906590153E+02  0.14447635550E+03  0.00000000000E+00 0.  1.
         21    1    1    2  502  501 -0.28975550001E+03  0.17279118323E+03 -0.18426179827E+03  0.38440532396E+03  0.00000000000E+00 0.  1.
<scales pt_clust_5="13000.00000" pt_clust_6="13000.00000" pt_clust_7="13000.00000" pt_clust_8="13000.00000" pt_clust_9="330.12578"></scales>
<clustering>
<clus scale="   80.448">  5  6 -1 -1</clus>
<clus scale="   83.383">  1  5  2 -1</clus>
<clus scale="   91.460">  7  8 -1 -1</clus>
<clus scale="  330.126">  2  9  1 -1</clus>
<clus scale="  330.126">  2  5  1 -1</clus>
</clustering>
</event>
<event>
 9    2  0.2869112E-005  0.9962199E+02  0.7546771E-02  0.1285280E+00
          2   -1    0    0  502    0  0.00000000000E+00  0.00000000000E+00  0.34238192701E+03  0.34238192701E+03  0.00000000000E+00 0. -1.
         -1   -1    0    0    0  501 -0.00000000000E+00 -0.00000000000E+00 -0.41217440621E+02  0.41217440621E+02  0.00000000000E+00 0.  1.
         24    2    1    2    0    0  0.44891161494E+02 -0.11473662906E+02  0.15321004703E+03  0.18108205456E+03  0.84678985899E+02 0.  0.
         23    2    1    2    0    0 -0.26147932382E+02  0.48765555049E+00  0.15236724697E+03  0.18034810320E+03  0.92874690854E+02 0.  0.
        -11    1    3    3    0    0  0.68021201010E+01  0.23847021438E+02  0.11217648310E+03  0.11488477981E+03  0.00000000000E+00 0.  1.
         12    1    3    3    0    0  0.38089041393E+02 -0.35320684344E+02  0.41033563924E+02  0.66197274756E+02  0.00000000000E+00 0. -1.
        -13    1    4    4    0    0  0.17761977536E+02  0.10743719320E+02 -0.70702388356E+00  0.20770537634E+02  0.00000000000E+00 0.  1.
         13    1    4    4    0    0 -0.43909909919E+02 -0.10256063769E+02  0.15307427086E+03  0.15957756556E+03  0.00000000000E+00 0. -1.
         21    1    1    2  502  501 -0.18743229112E+02  0.10986007355E+02 -0.44128076159E+01  0.22169209869E+02  0.00000000000E+00 0. -1.
<scales pt_clust_5="13000.00000" pt_clust_6="13000.00000" pt_clust_7="13000.00000" pt_clust_8="13000.00000" pt_clust_9="21.72558"></scales>
<clustering>
<clus scale="   21.726">  2  9  1 -1</clus>
<clus scale="   84.679">  5  6 -1 -1</clus>
<clus scale="   92.029">  2  5  1 -1</clus>
<clus scale="   92.875">  7  8 -1 -1</clus>
<clus scale="   99.622">  1  5  2 -1</clus>
</clustering>
</event>
<event>
 9    2  0.2869112E-005  0.1063588E+03  0.7546771E-02  0.1271165E+00
         -3   -1    0    0    0  501 -0.00000000000E+00  0.00000000000E+00  0.58841327688E+03  0.58841327688E+03  0.00000000000E+00 0.  1.
          4   -1    0    0  502    0  0.00000000000E+00 -0.00000000000E+00 -0.41945887988E+02  0.41945887988E+02  0.00000000000E+00 0. -1.
         23    2    1    2    0    0  0.37948202859E+02  0.45062419641E+02  0.17154881799E+03  0.20292173414E+03  0.90981017064E+02 0.  0.
         24    2    1    2    0    0  0.73146924382E+01 -0.59604672960E+02  0.82205220914E+02  0.13088842621E+03  0.82267004360E+02 0.  0.
        -13    1    4    4    0    0  0.22644012680E+02 -0.57827695839E+01  0.69743911983E+02  0.73555455223E+02  0.00000000000E+00 0.  1.
         14    1    4    4    0    0 -0.15329320242E+02 -0.53821903376E+02  0.12461308931E+02  0.57332970988E+02  0.00000000000E+00 0. -1.
        -13    1    3    3    0    0  0.56823324533E+02  0.26849616483E+02  0.55181116749E+02  0.83634608637E+02  0.00000000000E+00 0. -1.
         13    1    3    3    0    0 -0.18875121674E+02  0.18212803158E+02  0.11636770124E+03  0.11928712550E+03  0.00000000000E+00 0.  1.
         21    1    1    2  502  501 -0.45262895297E+02  0.14542253318E+02  0.29271334999E+03  0.29654900453E+03  0.00000000000E+00 0.  1.
<scales pt_clust_5="13000.00000" pt_clust_6="13000.00000" pt_clust_7="13000.00000" pt_clust_8="13000.00000" pt_clust_9="47.54163"></scales>
<clustering>
<clus scale="   47.542">  1  9  2 -1</clus>
<clus scale="   82.267">  5  6 -1 -1</clus>
<clus scale="   90.981">  7  8 -1 -1</clus>
<clus scale="   99.008">  2  5  1 -1</clus>
<clus scale="   99.008">  2  5  1 -1</clus>
</clustering>
</event>
<event>
 9    2  0.2869112E-005  0.1051020E+03  0.7546771E-02  0.1273980E+00
          2   -1    0    0  502    0  0.00000000000E+00  0.00000000000E+00  0.11916490826E+03  0.11916490826E+03  0.00000000000E+00 0. -1.
         -1   -1    0    0    0  501 -0.00000000000E+00 -0.00000000000E+00 -0.16192383771E+03  0.16192383771E+03  0.00000000000E+00 0.  1.
         24    2    1    2    0    0 -0.36457926165E+02  0.95909158378E+01 -0.32084122882E+02  0.94294259290E+02  0.80254908555E+02 0.  0.
         23    2    1    2    0    0  0.90203348301E+02  0.13656940311E+02 -0.79862696979E+01  0.12817485305E+03  0.89676398166E+02 0.  0.
        -13    1    3    3    0    0  0.10301740608E+02  0.34256829963E+02 -0.14136770307E+02  0.38464328063E+02  0.00000000000E+00 0.  1.
         14    1    3    3    0    0 -0.46759666773E+02 -0.24665914125E+02 -0.17947352575E+02  0.55829931227E+02  0.00000000000E+00 0. -1.
        -13    1    4    4    0    0  0.77763408706E+02  0.44466445917E+02  0.10433283992E+02  0.90184621533E+02  0.00000000000E+00 0.  1.
         13    1    4    4    0    0  0.12439939594E+02 -0.30809505606E+02 -0.18419553690E+02  0.37990231520E+02  0.00000000000E+00 0. -1.
         21    1    1    2  502  501 -0.53745422136E+02 -0.23247856148E+02 -0.26885368771E+01  0.58619633627E+02  0.00000000000E+00 0. -1.
<scales pt_clust_5="13000.00000" pt_clust_6="13000.00000" pt_clust_7="13000.00000" pt_clust_8="13000.00000" pt_clust_9="58.55795"></scales>
<clustering>
<clus scale="   58.558">  1  9  2 -1</clus>
<clus scale="   80.255">  5  6 -1 -1</clus>
<clus scale="   89.676">  7  8 -1 -1</clus>
<clus scale="   97.188">  2  5  1 -1</clus>
<clus scale="   58.558">  1  5  2 -1</clus>
</clustering>
</event>
<event>
 9    2  0.2869112E-005  0.1054944E+03  0.7546771E-02  0.1271358E+00
         -1   -1    0    0    0  501 -0.00000000000E+00  0.00000000000E+00  0.32760104787E+02  0.32760104787E+02  0.00000000000E+00 0.  1.
          2   -1    0    0  502    0  0.00000000000E+00 -0.00000000000E+00 -0.81917259276E+03  0.81917259276E+03  0.00000000000E+00 0. -1.
         23    2    1    2    0    0 -0.39606418883E+01  0.47906148034E+02 -0.51813244046E+02  0.10311596550E+03  0.75083982171E+02 0.  0.
         24    2    1    2    0    0  0.48172044764E+01 -0.70682293691E+02 -0.69376153607E+03  0.70204916964E+03  0.80924505319E+02 0.  0.
        -11    1    4    4    0    0 -0.25697433669E+01 -0.68463219488E+02 -0.28156137923E+03  0.28977685601E+03  0.00000000000E+00 0.  1.
         12    1    4    4    0    0  0.73869478434E+01 -0.22190742028E+01 -0.41220015684E+03  0.41227231363E+03  0.00000000000E+00 0. -1.
        -13    1    3    3    0    0 -0.26225208823E+02 -0.82437996555E+01 -0.84512674449E+01  0.28760141376E+02  0.00000000000E+00 0. -1.
         13    1    3    3    0    0  0.22264566934E+02  0.56149947689E+02 -0.43361976601E+02  0.74355824123E+02  0.00000000000E+00 0.  1.
         21    1    1    2  502  501 -0.85656258810E+00  0.22776145658E+02 -0.40837707852E+02  0.46767562403E+02  0.00000000000E+00 0.  1.
<scales pt_clust_5="13000.00000" pt_clust_6="13000.00000" pt_clust_7="13000.00000" pt_clust_8="13000.00000" pt_clust_9="22.79225"></scales>
<clustering>
<clus scale="   22.792">  1  9  2 -1</clus>
<clus scale="   75.084">  7  8 -1 -1</clus>
<clus scale="   80.925">  5  6 -1 -1</clus>
<clus scale="  101.084">  1  7  2 -1</clus>
<clus scale="  105.494">  2  5  1 -1</clus>
</clustering>
</event>
<event>
 9    2  0.2869112E-005  0.9599386E+02  0.7546771E-02  0.1294422E+00
         -1   -1    0    0    0  501 -0.00000000000E+00  0.00000000000E+00  0.34185840538E+03  0.34185840538E+03  0.00000000000E+00 0.  1.
          2   -1    0    0  502    0  0.00000000000E+00 -0.00000000000E+00 -0.90069285337E+02  0.90069285337E+02  0.00000000000E+00 0. -1.
         23    2    1    2    0    0  0.51779033829E+02 -0.32299283988E+01  0.25976820862E+03  0.28019571356E+03  0.91316016707E+02 0.  0.
         24    2    1    2    0    0 -0.26954872848E+02 -0.67192204250E+01 -0.51757659973E+02  0.10043102352E+03  0.81460555027E+02 0.  0.
        -13    1    4    4    0    0  0.20290676603E+02  0.19038356499E+02 -0.33028627846E+01  0.28019269758E+02  0.00000000000E+00 0.  1.
         14    1    4    4    0    0 -0.47245549451E+02 -0.25757576924E+02 -0.48454797189E+02  0.72411753759E+02  0.00000000000E+00 0. -1.
        -13    1    3    3    0    0  0.77690891596E+02  0.23740762150E+01  0.17781082517E+03  0.19405720915E+03  0.00000000000E+00 0.  1.
         13    1    3    3    0    0 -0.25911857767E+02 -0.56040046138E+01  0.81957383449E+02  0.86138504412E+02  0.00000000000E+00 0. -1.
         21    1    1    2  502  501 -0.24824160981E+02  0.99491488239E+01  0.43778571400E+02  0.51300953642E+02  0.00000000000E+00 0. -1.
<scales pt_clust_5="13000.00000" pt_clust_6="13000.00000" pt_clust_7="13000.00000" pt_clust_8="13000.00000" pt_clust_9="26.74368"></scales>
<clustering>
<clus scale="   26.744">  1  9  2 -1</clus>
<clus scale="   81.461">  5  6 -1 -1</clus>
<clus scale="   86.672">  2  5  1 -1</clus>
<clus scale="   91.316">  7  8 -1 -1</clus>
<clus scale="   86.672">  2  5  1 -1</clus>
</clustering>
</event>
<event>
 9    2  0.2869112E-005  0.1180088E+03  0.7546771E-02  0.1250641E+00
         -1   -1    0    0    0  501 -0.00000000000E+00  0.00000000000E+00  0.55212373865E+03  0.55212373865E+03  0.00000000000E+00 0.  1.
          2   -1    0    0  502    0  0.00000000000E+00 -0.00000000000E+00 -0.34180552216E+02  0.34180552216E+02  0.00000000000E+00 0. -1.
         24    2    1    2    0    0 -0.70564711296E+02  0.21665848762E+02  0.32289719039E+03  0.34106212706E+03  0.81314152980E+02 0.  0.
         23    2    1    2    0    0  0.71665272848E+02 -0.15468942131E+01  0.12299099234E+03  0.17042300096E+03  0.93695842211E+02 0.  0.
        -13    1    3    3    0    0 -0.62862106872E+02 -0.20366893952E+02  0.21799903402E+03  0.22779384031E+03  0.00000000000E+00 0.  1.
         14    1    3    3    0    0 -0.77026044238E+01  0.42032742714E+02  0.10489815636E+03  0.11326828675E+03  0.00000000000E+00 0. -1.
        -13    1    4    4    0    0  0.15709527299E+01 -0.22564303678E+02  0.85026498652E+02  0.87983641468E+02  0.00000000000E+00 0.  1.
         13    1    4    4    0    0  0.70094320118E+02  0.21017409465E+02  0.37964493684E+02  0.82439359496E+02  0.00000000000E+00 0. -1.
         21    1    1    2  502  501 -0.11005615523E+01 -0.20118954549E+02  0.72055003717E+02  0.74819162843E+02  0.00000000000E+00 0.  1.
<scales pt_clust_5="13000.00000" pt_clust_6="13000.00000" pt_clust_7="13000.00000" pt_clust_8="13000.00000" pt_clust_9="20.14903"></scales>
<clustering>
<clus scale="   20.149">  1  9  2 -1</clus>
<clus scale="   81.314">  5  6 -1 -1</clus>
<clus scale="   93.696">  7  8 -1 -1</clus>
<clus scale="  108.440">  1  5  2 -1</clus>
<clus scale="  118.009">  2  5  1 -1</clus>
</clustering>
</event>
<event>
 9    2  0.2869112E-005  0.9927463E+02  0.7546771E-02  0.1288141E+00
         -1   -1    0    0    0  501 -0.00000000000E+00  0.00000000000E+00  0.57247766451E+02  0.57247766451E+02  0.00000000000E+00 0.  1.
          2   -1    0    0  502    0  0.00000000000E+00 -0.00000000000E+00 -0.30184421453E+03  0.30184421453E+03  0.00000000000E+00 0. -1.
         23    2    1    2    0    0 -0.76534509065E+01  0.13773739878E+02 -0.27668681204E+02  0.97162813988E+02  0.91797414350E+02 0.  0.
         24    2    1    2    0    0  0.20201947205E+02 -0.38646854989E+02 -0.21572755992E+03  0.23404409731E+03  0.79602520702E+02 0.  0.
        -13    1    4    4    0    0 -0.23488169282E+02  0.80498005558E+00 -0.24452503412E+02  0.33915586568E+02  0.00000000000E+00 0.  1.
         14    1    4    4    0    0  0.43690116487E+02 -0.39451835045E+02 -0.19127505651E+03  0.20012851074E+03  0.00000000000E+00 0. -1.
        -11    1    3    3    0    0  0.38156534493E+02  0.22600583850E+02 -0.31493759682E+01  0.44459263196E+02  0.00000000000E+00 0. -1.
         11    1    3    3    0    0 -0.45809985400E+02 -0.88268439720E+01 -0.24519305236E+02  0.52703550792E+02  0.00000000000E+00 0.  1.
         21    1    1    2  502  501 -0.12548496298E+02  0.24873115111E+02 -0.12002069514E+01  0.27885069686E+02  0.00000000000E+00 0.  1.
<scales pt_clust_5="13000.00000" pt_clust_6="13000.00000" pt_clust_7="13000.00000" pt_clust_8="13000.00000" pt_clust_9="27.85923"></scales>
<clustering>
<clus scale="   27.859">  1  9  2 -1</clus>
<clus scale="   79.603">  5  6 -1 -1</clus>
<clus scale="   88.121">  2  5  1 -1</clus>
<clus scale="   91.797">  7  8 -1 -1</clus>
<clus scale="   88.121">  2  5  1 -1</clus>
</clustering>
</event>
<event>
 9    2  0.2869112E-005  0.9033228E+02  0.7546771E-02  0.1307376E+00
          2   -1    0    0  502    0  0.00000000000E+00  0.00000000000E+00  0.58052325980E+02  0.58052325980E+02  0.00000000000E+00 0. -1.
         -1   -1    0    0    0  501 -0.00000000000E+00 -0.00000000000E+00 -0.38078123744E+03  0.38078123744E+03  0.00000000000E+00 0.  1.
         23    2    1    2    0    0  0.27780542549E+02 -0.32185836368E+01 -0.21587128485E+03  0.23464043211E+03  0.87599103495E+02 0.  0.
         24    2    1    2    0    0  0.20613638108E+02 -0.21798748449E+02 -0.20173301569E+00  0.84429433702E+02  0.78918825822E+02 0.  0.
        -13    1    4    4    0    0  0.26647995319E+02  0.65800420286E+01 -0.31480512580E+02  0.41766437242E+02  0.00000000000E+00 0.  1.
         14    1    4    4    0    0 -0.60343572110E+01 -0.28378790478E+02  0.31278779564E+02  0.42662996460E+02  0.00000000000E+00 0. -1.
        -11    1    3    3    0    0  0.16119513622E+02  0.41652435734E+02 -0.89314992883E+02  0.99859561763E+02  0.00000000000E+00 0.  1.
         11    1    3    3    0    0  0.11661028928E+02 -0.44871019370E+02 -0.12655629197E+03  0.13478087035E+03  0.00000000000E+00 0. -1.
         21    1    1    2  502  501 -0.48394180657E+02  0.25017332086E+02 -0.10665589359E+03  0.11976369760E+03  0.00000000000E+00 0.  1.
<scales pt_clust_5="13000.00000" pt_clust_6="13000.00000" pt_clust_7="13000.00000" pt_clust_8="13000.00000" pt_clust_9="54.47810"></scales>
<clustering>
<clus scale="   54.478">  2  9  1 -1</clus>
<clus scale="   78.919">  5  6 -1 -1</clus>
<clus scale="   81.942">  1  5  2 -1</clus>
<clus scale="   87.599">  7  8 -1 -1</clus>
<clus scale="   81.942">  1  5  2 -1</clus>
</clustering>
</event>
<event>
 9    2  0.2869112E-005  0.8869648E+02  0.7546771E-02  0.1307857E+00
          2   -1    0    0  502    0  0.00000000000E+00  0.00000000000E+00  0.12609639366E+04  0.12609639366E+04  0.00000000000E+00 0. -1.
         -1   -1    0    0    0  501 -0.00000000000E+00 -0.00000000000E+00 -0.10597481839E+03  0.10597481839E+03  0.00000000000E+00 0.  1.
         23    2    1    2    0    0 -0.40733129476E+02 -0.63523619957E+02  0.20358891002E+02  0.11415078921E+03  0.83195433203E+02 0.  0.
         24    2    1    2    0    0  0.17161125342E+02  0.23735958395E+02  0.11828818751E+04  0.11859529531E+04  0.80106033254E+02 0.  0.
        -13    1    4    4    0    0 -0.88770504028E+01 -0.19011664841E+02  0.11498438866E+03  0.11688308287E+03  0.00000000000E+00 0.  1.
         14    1    4    4    0    0  0.26038175745E+02  0.42747623236E+02  0.10678974864E+04  0.10690698702E+04  0.00000000000E+00 0. -1.
        -11    1    3    3    0    0  0.57923489299E+00 -0.55106139942E+02 -0.17153640946E+02  0.57717151437E+02  0.00000000000E+00 0.  1.
         11    1    3    3    0    0 -0.41312364369E+02 -0.84174800149E+01  0.37512531947E+02  0.56433637776E+02  0.00000000000E+00 0. -1.
         21    1    1    2  502  501  0.23572004134E+02  0.39787661561E+02 -0.48251647911E+02  0.66835012662E+02  0.00000000000E+00 0. -1.
<scales pt_clust_5="13000.00000" pt_clust_6="13000.00000" pt_clust_7="13000.00000" pt_clust_8="13000.00000" pt_clust_9="46.24605"></scales>
<clustering>
<clus scale="   46.246">  2  9  1 -1</clus>
<clus scale="   80.106">  5  6 -1 -1</clus>
<clus scale="   83.195">  7  8 -1 -1</clus>
<clus scale="   85.805">  1  5  2 -1</clus>
<clus scale="   85.805">  1  5  2 -1</clus>
</clustering>
</event>
<event>
 9    2  0.2869112E-005  0.9041545E+02  0.7546771E-02  0.1305836E+00
         -1   -1    0    0    0  501 -0.00000000000E+00  0.00000000000E+00  0.16524593910E+02  0.16524593910E+02  0.00000000000E+00 0.  1.
          2   -1    0    0  502    0  0.00000000000E+00 -0.00000000000E+00 -0.74030026064E+03  0.74030026064E+03  0.00000000000E+00 0. -1.
         23    2    1    2    0    0  0.10527327644E+02  0.12262512442E+02 -0.17631223590E+03  0.19815380208E+03  0.88981632455E+02 0.  0.
         24    2    1    2    0    0 -0.17166128194E+02  0.98531995875E+01 -0.47798073572E+03  0.48545204324E+03  0.82500551946E+02 0.  0.
        -13    1    4    4    0    0  0.27637568380E+02  0.18743880663E+02 -0.11968496229E+03  0.12425642216E+03  0.00000000000E+00 0.  1.
         14    1    4    4    0    0 -0.44803696574E+02 -0.88906810759E+01 -0.35829577342E+03  0.36119562108E+03  0.00000000000E+00 0. -1.
        -13    1    3    3    0    0  0.39313626163E+02 -0.44317035253E+01 -0.34508809017E+02  0.52498181854E+02  0.00000000000E+00 0.  1.
         13    1    3    3    0    0 -0.28786298519E+02  0.16694215967E+02 -0.14180342688E+03  0.14565562023E+03  0.00000000000E+00 0. -1.
         21    1    1    2  502  501  0.66388005501E+01 -0.22115712029E+02 -0.69482695116E+02  0.73219009225E+02  0.00000000000E+00 0.  1.
<scales pt_clust_5="13000.00000" pt_clust_6="13000.00000" pt_clust_7="13000.00000" pt_clust_8="13000.00000" pt_clust_9="23.09066"></scales>
<clustering>
<clus scale="   23.091">  1  9  2 -1</clus>
<clus scale="   82.501">  5  6 -1 -1</clus>
<clus scale="   84.045">  2  5  1 -1</clus>
<clus scale="   88.982">  7  8 -1 -1</clus>
<clus scale="   84.045">  2  5  1 -1</clus>
</clustering>
</event>
<event>
 9    2  0.2869112E-005  0.1008112E+03  0.7546771E-02  0.1284310E+00
          2   -1    0    0  502    0  0.00000000000E+00  0.00000000000E+00  0.10013688653E+03  0.10013688653E+03  0.00000000000E+00 0. -1.
         -1   -1    0    0    0  501 -0.00000000000E+00 -0.00000000000E+00 -0.17731704313E+03  0.17731704313E+03  0.00000000000E+00 0.  1.
         23    2    1    2    0    0 -0.36461976225E+02 -0.26710905992E+02 -0.79809711818E+02  0.13082015248E+03  0.93281155574E+02 0.  0.
         24    2    1    2    0    0 -0.12609299526E+02  0.44092834801E+02  0.81418056790E+01  0.94283930404E+02  0.81975594035E+02 0.  0.
        -11    1    4    4    0    0 -0.25574717830E+02  0.39838153031E+02  0.38487238713E+02  0.61011574088E+02  0.00000000000E+00 0.  1.
         12    1    4    4    0    0  0.12965418304E+02  0.42546817707E+01 -0.30345433034E+02  0.33272356316E+02  0.00000000000E+00 0. -1.
        -11    1    3    3    0    0  0.10215916466E+02  0.18537204200E+02  0.70657787312E+01  0.22314078916E+02  0.00000000000E+00 0. -1.
         11    1    3    3    0    0 -0.46677892691E+02 -0.45248110191E+02 -0.86875490549E+02  0.10850607356E+03  0.00000000000E+00 0.  1.
         21    1    1    2  502  501  0.49071275751E+02 -0.17381928810E+02 -0.55122504561E+01  0.52349846781E+02  0.00000000000E+00 0. -1.
<scales pt_clust_5="13000.00000" pt_clust_6="13000.00000" pt_clust_7="13000.00000" pt_clust_8="13000.00000" pt_clust_9="52.05883"></scales>
<clustering>
<clus scale="   52.059">  1  9  2 -1</clus>
<clus scale="   81.976">  5  6 -1 -1</clus>
<clus scale="   90.452">  1  5  2 -1</clus>
<clus scale="   93.281">  7  8 -1 -1</clus>
<clus scale="   52.059">  1  5  2 -1</clus>
</clustering>
</event>
<event>
 9    2  0.2869112E-005  0.9598135E+02  0.7546771E-02  0.1294742E+00
         -1   -1    0    0    0  501 -0.00000000000E+00  0.00000000000E+00  0.27293893429E+02  0.27293893429E+02  0.00000000000E+00 0.  1.
          2   -1    0    0  502    0  0.00000000000E+00 -0.00000000000E+00 -0.71364747615E+03  0.71364747615E+03  0.00000000000E+00 0. -1.
         23    2    1    2    0    0 -0.14387149136E+02  0.53249484895E+01 -0.11561767693E+03  0.14792819062E+03  0.90994270278E+02 0.  0.
         24    2    1    2    0    0 -0.21507765590E+02 -0.32042108121E+02 -0.50889409873E+03  0.51668061302E+03  0.80600071227E+02 0.  0.
        -13    1    4    4    0    0 -0.40933154694E+02 -0.16038474214E+02 -0.13580778049E+03  0.14274631011E+03  0.00000000000E+00 0.  1.
         14    1    4    4    0    0  0.19425389104E+02 -0.16003633907E+02 -0.37308631824E+03  0.37393430291E+03  0.00000000000E+00 0. -1.
        -13    1    3    3    0    0 -0.68632842923E+01  0.31940488436E+02 -0.39750535925E+01  0.32910492610E+02  0.00000000000E+00 0.  1.
         13    1    3    3    0    0 -0.75238648434E+01 -0.26615539946E+02 -0.11164262334E+03  0.11501769800E+03  0.00000000000E+00 0. -1.
         21    1    1    2  502  501  0.35894914726E+02  0.26717159631E+02 -0.61841807063E+02  0.76332565938E+02  0.00000000000E+00 0.  1.
<scales pt_clust_5="13000.00000" pt_clust_6="13000.00000" pt_clust_7="13000.00000" pt_clust_8="13000.00000" pt_clust_9="44.74653"></scales>
<clustering>
<clus scale="   44.747">  1  9  2 -1</clus>
<clus scale="   80.600">  5  6 -1 -1</clus>
<clus scale="   86.191">  2  5  1 -1</clus>
<clus scale="   90.994">  7  8 -1 -1</clus>
<clus scale="   86.191">  2  5  1 -1</clus>
</clustering>
</event>
<event>
 9    2  0.2869112E-005  0.1013980E+03  0.7546771E-02  0.1280793E+00
         -3   -1    0    0    0  501 -0.00000000000E+00  0.00000000000E+00  0.14628651330E+03  0.14628651330E+03  0.00000000000E+00 0.  1.
          4   -1    0    0  502    0  0.00000000000E+00 -0.00000000000E+00 -0.20675032185E+03  0.20675032185E+03  0.00000000000E+00 0. -1.
         23    2    1    2    0    0 -0.52922234632E+01 -0.10312976414E+03  0.30393699614E+02  0.13865984018E+03  0.87401478382E+02 0.  0.
         24    2    1    2    0    0  0.12338617481E+02  0.40394043727E+02 -0.11545187766E+03  0.14662520314E+03  0.79911788178E+02 0.  0.
        -13    1    4    4    0    0 -0.17828514920E+02 -0.13439837336E+02 -0.10043956241E+02  0.24481957211E+02  0.00000000000E+00 0.  1.
         14    1    4    4    0    0  0.30167132402E+02  0.53833881063E+02 -0.10540792142E+03  0.12214324593E+03  0.00000000000E+00 0. -1.
        -11    1    3    3    0    0  0.39779548466E+02 -0.35773488525E+02  0.19225539984E+02  0.56848714542E+02  0.00000000000E+00 0.  1.
         11    1    3    3    0    0 -0.45071771929E+02 -0.67356275614E+02  0.11168159630E+02  0.81811125643E+02  0.00000000000E+00 0. -1.
         21    1    1    2  502  501 -0.70463940180E+01  0.62735720412E+02  0.24594369494E+02  0.67751791822E+02  0.00000000000E+00 0. -1.
<scales pt_clust_5="13000.00000" pt_clust_6="13000.00000" pt_clust_7="13000.00000" pt_clust_8="13000.00000" pt_clust_9="63.13020"></scales>
<clustering>
<clus scale="   63.130">  1  9  2 -1</clus>
<clus scale="   79.912">  5  6 -1 -1</clus>
<clus scale="   87.401">  7  8 -1 -1</clus>
<clus scale="   95.018">  2  5  1 -1</clus>
<clus scale="   95.018">  2  5  1 -1</clus>
</clustering>
</event>
<event>
 9    2  0.2869112E-005  0.2160431E+03  0.7546771E-02  0.1138268E+00
         -1   -1    0    0    0  501 -0.00000000000E+00  0.00000000000E+00  0.60017811496E+02  0.60017811496E+02  0.00000000000E+00 0.  1.
          2   -1    0    0  502    0  0.00000000000E+00 -0.00000000000E+00 -0.96304787730E+03  0.96304787730E+03  0.00000000000E+00 0. -1.
         24    2    1    2    0    0  0.18524804459E+03 -0.73349911285E+02 -0.26047668742E+03  0.33615258511E+03  0.73847195464E+02 0.  0.
         23    2    1    2    0    0 -0.18648017294E+03  0.52808368254E+02 -0.62126544967E+03  0.65730484404E+03  0.92278493601E+02 0.  0.
        -11    1    3    3    0    0  0.14225010295E+03 -0.82177665917E+02 -0.17477399190E+03  0.23986289585E+03  0.00000000000E+00 0.  1.
         12    1    3    3    0    0  0.42997941647E+02  0.88277546320E+01 -0.85702695524E+02  0.96289689260E+02  0.00000000000E+00 0. -1.
        -11    1    4    4    0    0 -0.67285707623E+02 -0.25158502996E+02 -0.22748813638E+03  0.23856061896E+03  0.00000000000E+00 0.  1.
         11    1    4    4    0    0 -0.11919446532E+03  0.77966871250E+02 -0.39377731329E+03  0.41874422508E+03  0.00000000000E+00 0. -1.
         21    1    1    2  502  501  0.12321283518E+01  0.20541543032E+02 -0.21287928714E+02  0.29608259647E+02  0.00000000000E+00 0. -1.
<scales pt_clust_5="13000.00000" pt_clust_6="13000.00000" pt_clust_7="13000.00000" pt_clust_8="13000.00000" pt_clust_9="20.57846"></scales>
<clustering>
<clus scale="   20.578">  1  9  2 -1</clus>
<clus scale="   73.847">  5  6 -1 -1</clus>
<clus scale="   92.278">  7  8 -1 -1</clus>
<clus scale="  208.837">  1  5  2 -1</clus>
<clus scale="  216.043">  2  5  1 -1</clus>
</clustering>
</event>
<event>
 9    2  0.2869112E-005  0.9546306E+02  0.7546771E-02  0.1296808E+00
          2   -1    0    0  502    0  0.00000000000E+00  0.00000000000E+00  0.57566686066E+03  0.57566686066E+03  0.00000000000E+00 0. -1.
         -1   -1    0    0    0  501 -0.00000000000E+00 -0.00000000000E+00 -0.37472257664E+02  0.37472257664E+02  0.00000000000E+00 0.  1.
         23    2    1    2    0    0  0.12599525984E+02 -0.43980541372E+02  0.79821958691E+02  0.12951293839E+03  0.91153826290E+02 0.  0.
         24    2    1    2    0    0  0.11112486982E+02  0.24582412465E+02  0.43996741645E+03  0.44788685458E+03  0.79394739124E+02 0.  0.
        -13    1    4    4    0    0 -0.32579811056E+02 -0.21113367035E+01  0.16933528150E+03  0.17245387613E+03  0.00000000000E+00 0.  1.
         14    1    4    4    0    0  0.43692298037E+02  0.26693749168E+02  0.27063213494E+03  0.27543297845E+03  0.00000000000E+00 0. -1.
        -11    1    3    3    0    0  0.31392679141E+02 -0.30664926832E+02 -0.25726170712E+01  0.43959713373E+02  0.00000000000E+00 0.  1.
         11    1    3    3    0    0 -0.18793153157E+02 -0.13315614540E+02  0.82394575762E+02  0.85553225019E+02  0.00000000000E+00 0. -1.
         21    1    1    2  502  501 -0.23712012965E+02  0.19398128908E+02  0.18405227853E+02  0.35739325348E+02  0.00000000000E+00 0.  1.
<scales pt_clust_5="13000.00000" pt_clust_6="13000.00000" pt_clust_7="13000.00000" pt_clust_8="13000.00000" pt_clust_9="30.63571"></scales>
<clustering>
<clus scale="   30.636">  2  9  1 -1</clus>
<clus scale="   79.395">  5  6 -1 -1</clus>
<clus scale="   84.307">  1  5  2 -1</clus>
<clus scale="   91.154">  7  8 -1 -1</clus>
<clus scale="   84.307">  1  5  2 -1</clus>
</clustering>
</event>
<event>
 9    2  0.2869112E-005  0.1284081E+03  0.7546771E-02  0.1233733E+00
         -1   -1    0    0    0  501 -0.00000000000E+00  0.00000000000E+00  0.34822831366E+02  0.34822831366E+02  0.00000000000E+00 0.  1.
          2   -1    0    0  502    0  0.00000000000E+00 -0.00000000000E+00 -0.69315839301E+03  0.69315839301E+03  0.00000000000E+00 0. -1.
         24    2    1    2    0    0  0.95622814672E+02  0.61632057626E-01 -0.17879888960E+03  0.21771824020E+03  0.79299827932E+02 0.  0.
         23    2    1    2    0    0 -0.82015491460E+02  0.25987720243E+02 -0.45365522319E+03  0.47110206750E+03  0.93446209282E+02 0.  0.
        -11    1    3    3    0    0  0.46974588977E+02 -0.46615747581E+01 -0.19473457957E+02  0.51064252208E+02  0.00000000000E+00 0.  1.
         12    1    3    3    0    0  0.48648225695E+02  0.47232068158E+01 -0.15932543164E+03  0.16665398799E+03  0.00000000000E+00 0. -1.
        -13    1    4    4    0    0 -0.76101151820E+02  0.68035712995E+01 -0.44055365954E+03  0.44712995966E+03  0.00000000000E+00 0. -1.
         13    1    4    4    0    0 -0.59143396399E+01  0.19184148943E+02 -0.13101563649E+02  0.23972107836E+02  0.00000000000E+00 0.  1.
         21    1    1    2  502  501 -0.13607323212E+02 -0.26049352301E+02 -0.25881448855E+02  0.39160916679E+02  0.00000000000E+00 0. -1.
<scales pt_clust_5="13000.00000" pt_clust_6="13000.00000" pt_clust_7="13000.00000" pt_clust_8="13000.00000" pt_clust_9="29.38925"></scales>
<clustering>
<clus scale="   29.389">  1  9  2 -1</clus>
<clus scale="   79.300">  5  6 -1 -1</clus>
<clus scale="   93.446">  7  8 -1 -1</clus>
<clus scale="  118.511">  1  5  2 -1</clus>
<clus scale="  128.408">  2  5  1 -1</clus>
</clustering>
</event>
<event>
 9    2  0.2869112E-005  0.1004795E+03  0.7546771E-02  0.1285152E+00
          2   -1    0    0  502    0  0.00000000000E+00  0.00000000000E+00  0.32775152228E+03  0.32775152228E+03  0.00000000000E+00 0. -1.
         -1   -1    0    0    0  501 -0.00000000000E+00 -0.00000000000E+00 -0.70185908198E+02  0.70185908198E+02  0.00000000000E+00 0.  1.
         23    2    1    2    0    0  0.40127651016E+02  0.58133562790E+02  0.15980535759E+03  0.19591479131E+03  0.88629078995E+02 0.  0.
         24    2    1    2    0    0  0.31717457763E+01 -0.35180157313E+02  0.12129448711E+03  0.14765760815E+03  0.76437642578E+02 0.  0.
        -13    1    4    4    0    0  0.26453814636E+02  0.59287582436E+01  0.14196591452E+02  0.30602249786E+02  0.00000000000E+00 0.  1.
         14    1    4    4    0    0 -0.23282068859E+02 -0.41108915557E+02  0.10709789566E+03  0.11705535837E+03  0.00000000000E+00 0. -1.
        -11    1    3    3    0    0  0.76685529434E+01  0.44435244036E+02  0.15984256085E+02  0.47841342575E+02  0.00000000000E+00 0.  1.
         11    1    3    3    0    0  0.32459098072E+02  0.13698318755E+02  0.14382110150E+03  0.14807344874E+03  0.00000000000E+00 0. -1.
         21    1    1    2  502  501 -0.43299396792E+02 -0.22953405477E+02 -0.23534230617E+02  0.54365031006E+02  0.00000000000E+00 0. -1.
<scales pt_clust_5="13000.00000" pt_clust_6="13000.00000" pt_clust_7="13000.00000" pt_clust_8="13000.00000" pt_clust_9="49.00711"></scales>
<clustering>
<clus scale="   49.007">  2  9  1 -1</clus>
<clus scale="   76.438">  5  6 -1 -1</clus>
<clus scale="   88.629">  7  8 -1 -1</clus>
<clus scale="   89.910">  1  5  2 -1</clus>
<clus scale="   89.910">  1  5  2 -1</clus>
</clustering>
</event>
<event>
 9    2  0.2869112E-005  0.1019693E+03  0.7546771E-02  0.1281371E+00
          2   -1    0    0  502    0  0.00000000000E+00  0.00000000000E+00  0.19582232898E+03  0.19582232898E+03  0.00000000000E+00 0. -1.
         -1   -1    0    0    0  501 -0.00000000000E+00 -0.00000000000E+00 -0.12480709005E+03  0.12480709005E+03  0.00000000000E+00 0.  1.
         23    2    1    2    0    0  0.11198926955E+02 -0.11249171996E+02 -0.62426735565E+02  0.11103372165E+03  0.90440202310E+02 0.  0.
         24    2    1    2    0    0 -0.35349764201E+02  0.38509340536E+02  0.14316391792E+03  0.17190092437E+03  0.79507517041E+02 0.  0.
        -11    1    4    4    0    0 -0.16792275678E+02  0.33900638099E+02  0.12496907231E+02  0.39842269970E+02  0.00000000000E+00 0.  1.
         12    1    4    4    0    0 -0.18557488524E+02  0.46087024369E+01  0.13066701069E+03  0.13205865440E+03  0.00000000000E+00 0. -1.
        -11    1    3    3    0    0 -0.20439333323E+02 -0.20308811511E+02 -0.71339348051E+02  0.76938395825E+02  0.00000000000E+00 0.  1.
         11    1    3    3    0    0  0.31638260278E+02  0.90596395154E+01  0.89126124860E+01  0.34095325822E+02  0.00000000000E+00 0. -1.
         21    1    1    2  502  501  0.24150837247E+02 -0.27260168541E+02 -0.97219434250E+01  0.37694773014E+02  0.00000000000E+00 0.  1.
<scales pt_clust_5="13000.00000" pt_clust_6="13000.00000" pt_clust_7="13000.00000" pt_clust_8="13000.00000" pt_clust_9="36.41950"></scales>
<clustering>
<clus scale="   36.419">  2  9  1 -1</clus>
<clus scale="   79.508">  5  6 -1 -1</clus>
<clus scale="   90.440">  7  8 -1 -1</clus>
<clus scale="   92.411">  1  5  2 -1</clus>
<clus scale="   92.411">  1  5  2 -1</clus>
</clustering>
</event>
<event>
 9    2  0.2869112E-005  0.2668126E+03  0.7546771E-02  0.1103364E+00
         -1   -1    0    0    0  501 -0.00000000000E+00  0.00000000000E+00  0.68038842699E+02  0.68038842699E+02  0.00000000000E+00 0.  1.
          2   -1    0    0  502    0  0.00000000000E+00 -0.00000000000E+00 -0.19078171832E+04  0.19078171832E+04  0.00000000000E+00 0. -1.
         23    2    1    2    0    0 -0.23280683976E+03  0.14545860630E+03 -0.34514547853E+03  0.44672989524E+03  0.71308955707E+02 0.  0.
         24    2    1    2    0    0  0.20750905505E+03 -0.14122358321E+03 -0.14709474673E+04  0.14942132211E+04  0.77347205889E+02 0.  0.
        -13    1    4    4    0    0  0.59674050963E+02 -0.55334719115E+02 -0.29971062955E+03  0.31056301287E+03  0.00000000000E+00 0.  1.
         14    1    4    4    0    0  0.14783500409E+03 -0.85888864097E+02 -0.11712368377E+04  0.11836502083E+04  0.00000000000E+00 0. -1.
        -11    1    3    3    0    0 -0.57358518538E+02  0.50244282674E+02 -0.14626057129E+03  0.16494436124E+03  0.00000000000E+00 0. -1.
         11    1    3    3    0    0 -0.17544832122E+03  0.95214323624E+02 -0.19888490724E+03  0.28178553399E+03  0.00000000000E+00 0.  1.
         21    1    1    2  502  501  0.25297784707E+02 -0.42350230852E+01 -0.23685394687E+02  0.34912909547E+02  0.00000000000E+00 0. -1.
<scales pt_clust_5="13000.00000" pt_clust_6="13000.00000" pt_clust_7="13000.00000" pt_clust_8="13000.00000" pt_clust_9="25.64982"></scales>
<clustering>
<clus scale="   25.650">  1  9  2 -1</clus>
<clus scale="   71.309">  7  8 -1 -1</clus>
<clus scale="   77.347">  5  6 -1 -1</clus>
<clus scale="  265.125">  1  7  2 -1</clus>
<clus scale="  266.813">  2  5  1 -1</clus>
</clustering>
</event>
<event>
 9    2  0.2869112E-005  0.1152250E+03  0.7546771E-02  0.1254706E+00
          2   -1    0    0  502    0  0.00000000000E+00  0.00000000000E+00  0.92282546852E+02  0.92282546852E+02  0.00000000000E+00 0. -1.
         -1   -1    0    0    0  501 -0.00000000000E+00 -0.00000000000E+00 -0.42530934338E+03  0.42530934338E+03  0.00000000000E+00 0.  1.
         23    2    1    2    0    0 -0.53816082426E+02  0.75984146963E+02 -0.18338169326E+03  0.22453667921E+03  0.90100574739E+02 0.  0.
         24    2    1    2    0    0  0.26787126745E+02 -0.62566991344E+02  0.31362331026E+02  0.10954969127E+03  0.79908450652E+02 0.  0.
        -11    1    4    4    0    0  0.40047915018E+02 -0.20796103560E+02 -0.13231698032E+02  0.47025431985E+02  0.00000000000E+00 0.  1.
         12    1    4    4    0    0 -0.13260788274E+02 -0.41770887784E+02  0.44594029058E+02  0.62524259288E+02  0.00000000000E+00 0. -1.
        -11    1    3    3    0    0 -0.23766623702E+02  0.83302780519E+02 -0.84825899328E+02  0.12124206713E+03  0.00000000000E+00 0.  1.
         11    1    3    3    0    0 -0.30049458724E+02 -0.73186335567E+01 -0.98555793935E+02  0.10329461208E+03  0.00000000000E+00 0. -1.
         21    1    1    2  502  501  0.27028955682E+02 -0.13417155619E+02 -0.18100743429E+03  0.18350551975E+03  0.00000000000E+00 0.  1.
<scales pt_clust_5="13000.00000" pt_clust_6="13000.00000" pt_clust_7="13000.00000" pt_clust_8="13000.00000" pt_clust_9="30.17589"></scales>
<clustering>
<clus scale="   30.176">  2  9  1 -1</clus>
<clus scale="   79.908">  5  6 -1 -1</clus>
<clus scale="   90.101">  7  8 -1 -1</clus>
<clus scale="  107.443">  1  5  2 -1</clus>
<clus scale="  107.443">  1  5  2 -1</clus>
</clustering>
</event>
<event>
 9    2  0.2869112E-005  0.1123322E+03  0.7546771E-02  0.1265932E+00
          2   -1    0    0  502    0  0.00000000000E+00  0.00000000000E+00  0.29738803033E+03  0.29738803033E+03  0.00000000000E+00 0. -1.
         -1   -1    0    0    0  501 -0.00000000000E+00 -0.00000000000E+00 -0.72524539018E+02  0.72524539018E+02  0.00000000000E+00 0.  1.
         23    2    1    2    0    0 -0.51702376347E+02  0.25186413087E+02  0.15479841042E+02  0.11793133140E+03  0.10178743696E+03 0.  0.
         24    2    1    2    0    0  0.46128417717E+02 -0.34092580196E+01  0.21008036902E+03  0.22949126430E+03  0.79956394256E+02 0.  0.
        -13    1    4    4    0    0 -0.58615362329E-01 -0.23919627255E+02  0.15611934485E+02  0.28563692025E+02  0.00000000000E+00 0.  1.
         14    1    4    4    0    0  0.46187033079E+02  0.20510369235E+02  0.19446843453E+03  0.20092757228E+03  0.00000000000E+00 0. -1.
        -11    1    3    3    0    0 -0.54887445104E+02 -0.29375632100E+02  0.85907846856E+01  0.62843941417E+02  0.00000000000E+00 0.  1.
         11    1    3    3    0    0  0.31850687566E+01  0.54562045187E+02  0.68890563561E+01  0.55087389986E+02  0.00000000000E+00 0. -1.
         21    1    1    2  502  501  0.55739586308E+01 -0.21777155067E+02 -0.69671874418E+00  0.22489973647E+02  0.00000000000E+00 0. -1.
<scales pt_clust_5="13000.00000" pt_clust_6="13000.00000" pt_clust_7="13000.00000" pt_clust_8="13000.00000" pt_clust_9="22.47918"></scales>
<clustering>
<clus scale="   22.479">  2  9  1 -1</clus>
<clus scale="   79.956">  5  6 -1 -1</clus>
<clus scale="   93.010">  1  5  2 -1</clus>
<clus scale="  101.787">  7  8 -1 -1</clus>
<clus scale="   93.010">  1  5  2 -1</clus>
</clustering>
</event>
<event>
 9    2  0.2869112E-005  0.1229046E+03  0.7546771E-02  0.1243295E+00
          2   -1    0    0  502    0  0.00000000000E+00  0.00000000000E+00  0.49169769338E+03  0.49169769338E+03  0.00000000000E+00 0. -1.
         -1   -1    0    0    0  501 -0.00000000000E+00 -0.00000000000E+00 -0.75216128419E+02  0.75216128419E+02  0.00000000000E+00 0.  1.
         23    2    1    2    0    0  0.28273268197E+02  0.49388528655E+02  0.15469306069E+03  0.18981048429E+03  0.94124770722E+02 0.  0.
         24    2    1    2    0    0 -0.75548376536E+02 -0.60857667151E+02  0.29360642397E+03  0.31897540085E+03  0.78290237573E+02 0.  0.
        -13    1    4    4    0    0 -0.68204399160E+02 -0.62217436597E+01  0.14189658962E+03  0.15756012282E+03  0.00000000000E+00 0.  1.
         14    1    4    4    0    0 -0.73439773761E+01 -0.54635923492E+02  0.15170983435E+03  0.16141527802E+03  0.00000000000E+00 0. -1.
        -13    1    3    3    0    0  0.60278503763E+02  0.14845477411E+02  0.76344519214E+02  0.98399043844E+02  0.00000000000E+00 0.  1.
         13    1    3    3    0    0 -0.32005235566E+02  0.34543051244E+02  0.78348541480E+02  0.91411440448E+02  0.00000000000E+00 0. -1.
         21    1    1    2  502  501  0.47275108339E+02  0.11469138497E+02 -0.31817919703E+02  0.58127936662E+02  0.00000000000E+00 0.  1.
<scales pt_clust_5="13000.00000" pt_clust_6="13000.00000" pt_clust_7="13000.00000" pt_clust_8="13000.00000" pt_clust_9="48.64645"></scales>
<clustering>
<clus scale="   48.646">  2  9  1 -1</clus>
<clus scale="   78.290">  5  6 -1 -1</clus>
<clus scale="   94.125">  7  8 -1 -1</clus>
<clus scale="  111.245">  1  5  2 -1</clus>
<clus scale="  111.245">  1  5  2 -1</clus>
</clustering>
</event>
<event>
 9    2  0.2869112E-005  0.1062414E+03  0.7546771E-02  0.1272223E+00
         -1   -1    0    0    0  501 -0.00000000000E+00  0.00000000000E+00  0.34775080118E+03  0.34775080118E+03  0.00000000000E+00 0.  1.
          2   -1    0    0  502    0  0.00000000000E+00 -0.00000000000E+00 -0.10708694633E+03  0.10708694633E+03  0.00000000000E+00 0. -1.
         24    2    1    2    0    0 -0.25365232782E+02 -0.71445524177E+02  0.44176044284E+02  0.11860686716E+03  0.79801053181E+02 0.  0.
         23    2    1    2    0    0  0.51519948439E+02  0.17496895619E+02 -0.23563795839E+02  0.10815801226E+03  0.90456932838E+02 0.  0.
        -11    1    3    3    0    0 -0.30186512732E+02 -0.15870457342E+02 -0.15022486729E+02  0.37266232365E+02  0.00000000000E+00 0.  1.
         12    1    3    3    0    0  0.48212799499E+01 -0.55575066836E+02  0.59198531013E+02  0.81340634791E+02  0.00000000000E+00 0. -1.
        -11    1    4    4    0    0 -0.18916727975E+02  0.19651365552E+02  0.11313420523E+02  0.29529853526E+02  0.00000000000E+00 0.  1.
         11    1    4    4    0    0  0.70436676414E+02 -0.21544699339E+01 -0.34877216361E+02  0.78628158735E+02  0.00000000000E+00 0. -1.
         21    1    1    2  502  501 -0.26154715657E+02  0.53948628559E+02  0.22005160641E+03  0.22807286809E+03  0.00000000000E+00 0.  1.
<scales pt_clust_5="13000.00000" pt_clust_6="13000.00000" pt_clust_7="13000.00000" pt_clust_8="13000.00000" pt_clust_9="59.95435"></scales>
<clustering>
<clus scale="   59.954">  1  9  2 -1</clus>
<clus scale="   79.801">  5  6 -1 -1</clus>
<clus scale="   90.457">  7  8 -1 -1</clus>
<clus scale="   97.329">  1  5  2 -1</clus>
<clus scale="  106.241">  2  5  1 -1</clus>
</clustering>
</event>
<event>
 9    2  0.2869112E-005  0.1492002E+03  0.7546771E-02  0.1203523E+00
         -1   -1    0    0    0  501 -0.00000000000E+00  0.00000000000E+00  0.71113422058E+03  0.71113422058E+03  0.00000000000E+00 0.  1.
          2   -1    0    0  502    0  0.00000000000E+00 -0.00000000000E+00 -0.12387580490E+03  0.12387580490E+03  0.00000000000E+00 0. -1.
         23    2    1    2    0    0  0.11938036141E+03 -0.52886412240E+01  0.64733663863E+03  0.66475016476E+03  0.92565746468E+02 0.  0.
         24    2    1    2    0    0 -0.93295137633E+02  0.18608558895E+02 -0.31340762295E+02  0.12922693796E+03  0.81652292938E+02 0.  0.
        -13    1    4    4    0    0 -0.28181479911E+02  0.31124634213E+02  0.18891988416E+02  0.46041784188E+02  0.00000000000E+00 0.  1.
         14    1    4    4    0    0 -0.65113657722E+02 -0.12516075319E+02 -0.50232750712E+02  0.83185153768E+02  0.00000000000E+00 0. -1.
        -11    1    3    3    0    0  0.83802039511E+02 -0.47190896822E+02  0.40806963261E+03  0.41925002997E+03  0.00000000000E+00 0.  1.
         11    1    3    3    0    0  0.35578321895E+02  0.41902255599E+02  0.23926700602E+03  0.24550013479E+03  0.00000000000E+00 0. -1.
         21    1    1    2  502  501 -0.26085223773E+02 -0.13319917671E+02 -0.28737460649E+02  0.41032922765E+02  0.00000000000E+00 0. -1.
<scales pt_clust_5="13000.00000" pt_clust_6="13000.00000" pt_clust_7="13000.00000" pt_clust_8="13000.00000" pt_clust_9="29.28923"></scales>
<clustering>
<clus scale="   29.289">  2  9  1 -1</clus>
<clus scale="   81.652">  5  6 -1 -1</clus>
<clus scale="   92.566">  7  8 -1 -1</clus>
<clus scale="  142.686">  2  5  1 -1</clus>
<clus scale="   29.289">  2  5  1 -1</clus>
</clustering>
</event>
<event>
 9    2  0.2869112E-005  0.9918209E+02  0.7546771E-02  0.1287886E+00
          2   -1    0    0  502    0  0.00000000000E+00  0.00000000000E+00  0.32432561362E+03  0.32432561362E+03  0.00000000000E+00 0. -1.
         -1   -1    0    0    0  501 -0.00000000000E+00 -0.00000000000E+00 -0.42961688126E+02  0.42961688126E+02  0.00000000000E+00 0.  1.
         24    2    1    2    0    0 -0.29372972223E+02 -0.25633639592E+02  0.12971112335E+03  0.15727241179E+03  0.79936105828E+02 0.  0.
         23    2    1    2    0    0  0.10975593910E+02  0.40435777209E+02  0.15642769537E+03  0.18592409478E+03  0.91337995387E+02 0.  0.
        -13    1    3    3    0    0 -0.20428091715E+02  0.24558383962E+02  0.79666025803E+02  0.85831793767E+02  0.00000000000E+00 0.  1.
         14    1    3    3    0    0 -0.89448805072E+01 -0.50192023553E+02  0.50045097548E+02  0.71440618028E+02  0.00000000000E+00 0. -1.
        -13    1    4    4    0    0 -0.81360765423E+01  0.26311725366E+02  0.15959114557E+03  0.16195010460E+03  0.00000000000E+00 0. -1.
         13    1    4    4    0    0  0.19111670453E+02  0.14124051843E+02 -0.31634502089E+01  0.23973990181E+02  0.00000000000E+00 0.  1.
         21    1    1    2  502  501  0.18397378312E+02 -0.14802137617E+02 -0.47748932220E+01  0.24090795173E+02  0.00000000000E+00 0. -1.
<scales pt_clust_5="13000.00000" pt_clust_6="13000.00000" pt_clust_7="13000.00000" pt_clust_8="13000.00000" pt_clust_9="23.61285"></scales>
<clustering>
<clus scale="   23.613">  2  9  1 -1</clus>
<clus scale="   79.936">  5  6 -1 -1</clus>
<clus scale="   88.793">  2  5  1 -1</clus>
<clus scale="   91.338">  7  8 -1 -1</clus>
<clus scale="   99.182">  1  5  2 -1</clus>
</clustering>
</event>
<event>
 9    2  0.2869112E-005  0.9693803E+02  0.7546771E-02  0.1292721E+00
         -1   -1    0    0    0  501 -0.00000000000E+00  0.00000000000E+00  0.78194337791E+02  0.78194337791E+02  0.00000000000E+00 0.  1.
          2   -1    0    0  502    0  0.00000000000E+00 -0.00000000000E+00 -0.32811626676E+03  0.32811626676E+03  0.00000000000E+00 0. -1.
         23    2    1    2    0    0  0.16804908502E+02 -0.24669605693E+02 -0.10429312236E+03  0.14199616792E+03  0.91623479185E+02 0.  0.
         24    2    1    2    0    0 -0.33864111320E+02  0.94231670208E+01 -0.19272698265E+03  0.21195311046E+03  0.80900290977E+02 0.  0.
        -13    1    4    4    0    0  0.24234475894E+02 -0.10741184277E+02 -0.64775655024E+02  0.69989773148E+02  0.00000000000E+00 0.  1.
         14    1    4    4    0    0 -0.58098587214E+02  0.20164351298E+02 -0.12795132763E+03  0.14196333731E+03  0.00000000000E+00 0. -1.
        -13    1    3    3    0    0 -0.96010781681E+00  0.22628084046E+02  0.35307587369E+01  0.22922003661E+02  0.00000000000E+00 0.  1.
         13    1    3    3    0    0  0.17765016319E+02 -0.47297689738E+02 -0.10782388110E+03  0.11907416426E+03  0.00000000000E+00 0. -1.
         21    1    1    2  502  501  0.17059202818E+02  0.15246438672E+02  0.47098176035E+02  0.52361326175E+02  0.00000000000E+00 0.  1.
<scales pt_clust_5="13000.00000" pt_clust_6="13000.00000" pt_clust_7="13000.00000" pt_clust_8="13000.00000" pt_clust_9="22.87947"></scales>
<clustering>
<clus scale="   22.879">  1  9  2 -1</clus>
<clus scale="   80.900">  5  6 -1 -1</clus>
<clus scale="   86.873">  2  5  1 -1</clus>
<clus scale="   91.623">  7  8 -1 -1</clus>
<clus scale="   86.873">  2  5  1 -1</clus>
</clustering>
</event>
<event>
 9    2  0.2869112E-005  0.1216543E+03  0.7546771E-02  0.1246985E+00
         -1   -1    0    0    0  501 -0.00000000000E+00  0.00000000000E+00  0.57762321366E+02  0.57762321366E+02  0.00000000000E+00 0.  1.
          2   -1    0    0  502    0  0.00000000000E+00 -0.00000000000E+00 -0.64281410386E+03  0.64281410386E+03  0.00000000000E+00 0. -1.
         23    2    1    2    0    0  0.37913184952E+02 -0.46530314304E+02 -0.15353540170E+03  0.18685468157E+03  0.87971999568E+02 0.  0.
         24    2    1    2    0    0  0.71194596554E+02  0.56015979664E+02 -0.36764674712E+03  0.38693918989E+03  0.79695328914E+02 0.  0.
        -11    1    4    4    0    0  0.24733138053E+02 -0.17499595383E+02 -0.59703017432E+02  0.66950834550E+02  0.00000000000E+00 0.  1.
         12    1    4    4    0    0  0.46461458500E+02  0.73515575046E+02 -0.30794372969E+03  0.31998835534E+03  0.00000000000E+00 0. -1.
        -11    1    3    3    0    0  0.31397302083E+02 -0.69577208391E+02 -0.13970262403E+03  0.15919673887E+03  0.00000000000E+00 0. -1.
         11    1    3    3    0    0  0.65158828683E+01  0.23046894086E+02 -0.13832777671E+02  0.27657942705E+02  0.00000000000E+00 0.  1.
         21    1    1    2  502  501 -0.10910778151E+03 -0.94856653593E+01 -0.63869633674E+02  0.12678255376E+03  0.00000000000E+00 0. -1.
<scales pt_clust_5="13000.00000" pt_clust_6="13000.00000" pt_clust_7="13000.00000" pt_clust_8="13000.00000" pt_clust_9="91.91529"></scales>
<clustering>
<clus scale="   79.695">  5  6 -1 -1</clus>
<clus scale="   87.972">  7  8 -1 -1</clus>
<clus scale="  106.497">  1  7  2 -1</clus>
<clus scale="   91.915">  1  9  2 -1</clus>
<clus scale="  121.654">  2  5  1 -1</clus>
</clustering>
</event>
<event>
 9    2  0.2869112E-005  0.1005104E+03  0.7546771E-02  0.1285019E+00
         -3   -1    0    0    0  501 -0.00000000000E+00  0.00000000000E+00  0.10584545248E+03  0.10584545248E+03  0.00000000000E+00 0.  1.
          4   -1    0    0  502    0  0.00000000000E+00 -0.00000000000E+00 -0.23086450450E+03  0.23086450450E+03  0.00000000000E+00 0. -1.
         23    2    1    2    0    0 -0.15924796143E+02  0.25896085776E+02  0.48279560882E+02  0.10829345462E+03  0.92045368836E+02 0.  0.
         24    2    1    2    0    0  0.43507594079E+02 -0.28707202490E+01 -0.16903728127E+03  0.19223450204E+03  0.80494406885E+02 0.  0.
        -11    1    4    4    0    0 -0.17161377825E+02  0.13508021186E+02 -0.16853072651E+02  0.27586329640E+02  0.00000000000E+00 0.  1.
         12    1    4    4    0    0  0.60668971904E+02 -0.16378741436E+02 -0.15218420862E+03  0.16464817240E+03  0.00000000000E+00 0. -1.
        -13    1    3    3    0    0  0.39884718786E+01  0.35491102128E+02 -0.16868373456E+02  0.39497699443E+02  0.00000000000E+00 0. -1.
         13    1    3    3    0    0 -0.19913268022E+02 -0.95950163525E+01  0.65147934338E+02  0.68795755179E+02  0.00000000000E+00 0.  1.
         21    1    1    2  502  501 -0.27582797935E+02 -0.23025365527E+02 -0.42613316365E+01  0.36182000316E+02  0.00000000000E+00 0. -1.
<scales pt_clust_5="13000.00000" pt_clust_6="13000.00000" pt_clust_7="13000.00000" pt_clust_8="13000.00000" pt_clust_9="35.93019"></scales>
<clustering>
<clus scale="   35.930">  1  9  2 -1</clus>
<clus scale="   80.494">  5  6 -1 -1</clus>
<clus scale="   90.052">  2  5  1 -1</clus>
<clus scale="   92.045">  7  8 -1 -1</clus>
<clus scale="   90.052">  2  5  1 -1</clus>
</clustering>
</event>
<event>
 9    2  0.2869112E-005  0.1798318E+03  0.7546771E-02  0.1170126E+00
         -1   -1    0    0    0  501 -0.00000000000E+00  0.00000000000E+00  0.11114255220E+03  0.11114255220E+03  0.00000000000E+00 0.  1.
          2   -1    0    0  502    0  0.00000000000E+00 -0.00000000000E+00 -0.88817344135E+03  0.88817344135E+03  0.00000000000E+00 0. -1.
         24    2    1    2    0    0 -0.97683596308E+02  0.71251744829E+02 -0.15801438105E+02  0.14736250385E+03  0.82747362292E+02 0.  0.
         23    2    1    2    0    0  0.11042401266E+03 -0.10830319791E+03 -0.78491543135E+03  0.80616971477E+03  0.99470243731E+02 0.  0.
        -13    1    3    3    0    0 -0.99750283530E+02  0.69877398167E+02 -0.36009517953E+02  0.12700257959E+03  0.00000000000E+00 0.  1.
         14    1    3    3    0    0  0.20666872220E+01  0.13743466618E+01  0.20208079848E+02  0.20359924263E+02  0.00000000000E+00 0. -1.
        -13    1    4    4    0    0  0.42290263683E+02  0.13425699127E+02 -0.18375332501E+03  0.18903438907E+03  0.00000000000E+00 0.  1.
         13    1    4    4    0    0  0.68133748978E+02 -0.12172889703E+03 -0.60116210634E+03  0.61713532570E+03  0.00000000000E+00 0. -1.
         21    1    1    2  502  501 -0.12740416353E+02  0.37051453077E+02  0.23685980300E+02  0.45783774929E+02  0.00000000000E+00 0.  1.
<scales pt_clust_5="13000.00000" pt_clust_6="13000.00000" pt_clust_7="13000.00000" pt_clust_8="13000.00000" pt_clust_9="39.18071"></scales>
<clustering>
<clus scale="   39.181">  1  9  2 -1</clus>
<clus scale="   82.747">  5  6 -1 -1</clus>
<clus scale="   99.470">  7  8 -1 -1</clus>
<clus scale="  171.150">  1  5  2 -1</clus>
<clus scale="  179.832">  2  5  1 -1</clus>
</clustering>
</event>
<event>
 9    2  0.2869112E-005  0.1247762E+03  0.7546771E-02  0.1240183E+00
         -1   -1    0    0    0  501 -0.00000000000E+00  0.00000000000E+00  0.55552710939E+02  0.55552710939E+02  0.00000000000E+00 0.  1.
          2   -1    0    0  502    0  0.00000000000E+00 -0.00000000000E+00 -0.41506112765E+03  0.41506112765E+03  0.00000000000E+00 0. -1.
         23    2    1    2    0    0 -0.23256940186E+02 -0.83618230816E+02 -0.76356495350E+02  0.14651555237E+03  0.90019991738E+02 0.  0.
         24    2    1    2    0    0 -0.78046444617E+01  0.87343750827E+02 -0.26340652759E+03  0.28710393374E+03  0.73183513910E+02 0.  0.
        -13    1    4    4    0    0 -0.30487662825E+02  0.86731935366E+01 -0.60485476949E+02  0.68287735300E+02  0.00000000000E+00 0.  1.
         14    1    4    4    0    0  0.22683018363E+02  0.78670557291E+02 -0.20292105064E+03  0.21881619844E+03  0.00000000000E+00 0. -1.
        -13    1    3    3    0    0  0.15498324544E+02 -0.58037116138E+02 -0.79878649021E+02  0.99945502564E+02  0.00000000000E+00 0. -1.
         13    1    3    3    0    0 -0.38755264730E+02 -0.25581114678E+02  0.35221536713E+01  0.46570049806E+02  0.00000000000E+00 0.  1.
         21    1    1    2  502  501  0.31061584648E+02 -0.37255200110E+01 -0.19745393773E+02  0.36994352480E+02  0.00000000000E+00 0. -1.
<scales pt_clust_5="13000.00000" pt_clust_6="13000.00000" pt_clust_7="13000.00000" pt_clust_8="13000.00000" pt_clust_9="31.28421"></scales>
<clustering>
<clus scale="   31.284">  1  9  2 -1</clus>
<clus scale="   73.184">  5  6 -1 -1</clus>
<clus scale="   90.020">  7  8 -1 -1</clus>
<clus scale="  113.231">  2  5  1 -1</clus>
<clus scale="  113.231">  2  5  1 -1</clus>
</clustering>
</event>
<event>
 9    2  0.2869112E-005  0.1203464E+03  0.7546771E-02  0.1245452E+00
         -1   -1    0    0    0  501 -0.00000000000E+00  0.00000000000E+00  0.51370898577E+02  0.51370898577E+02  0.00000000000E+00 0.  1.
          2   -1    0    0  502    0  0.00000000000E+00 -0.00000000000E+00 -0.74070820373E+03  0.74070820373E+03  0.00000000000E+00 0. -1.
         23    2    1    2    0    0 -0.60561017339E+02 -0.68527951986E+02 -0.58795071949E+02  0.14142410454E+03  0.90444457188E+02 0.  0.
         24    2    1    2    0    0  0.67541401934E+02  0.39690487272E+02 -0.58850225608E+03  0.59919933902E+03  0.81041759065E+02 0.  0.
        -13    1    4    4    0    0  0.74614131332E+01  0.48293678729E+02 -0.19422436278E+03  0.20027744553E+03  0.00000000000E+00 0.  1.
         14    1    4    4    0    0  0.60079988801E+02 -0.86031914565E+01 -0.39427789331E+03  0.39892189349E+03  0.00000000000E+00 0. -1.
        -11    1    3    3    0    0 -0.76945359855E+02 -0.49101935387E+02 -0.68603328446E+02  0.11418408442E+03  0.00000000000E+00 0.  1.
         11    1    3    3    0    0  0.16384342516E+02 -0.19426016599E+02  0.98082564968E+01  0.27240020119E+02  0.00000000000E+00 0. -1.
         21    1    1    2  502  501 -0.69803845954E+01  0.28837464714E+02 -0.42039977122E+02  0.51455658743E+02  0.00000000000E+00 0. -1.
<scales pt_clust_5="13000.00000" pt_clust_6="13000.00000" pt_clust_7="13000.00000" pt_clust_8="13000.00000" pt_clust_9="29.67027"></scales>
<clustering>
<clus scale="   29.670">  1  9  2 -1</clus>
<clus scale="   81.042">  5  6 -1 -1</clus>
<clus scale="   90.444">  7  8 -1 -1</clus>
<clus scale="  113.450">  2  5  1 -1</clus>
<clus scale="  113.450">  2  5  1 -1</clus>
</clustering>
</event>
<event>
 9    2  0.2869112E-005  0.1212414E+03  0.7546771E-02  0.1254957E+00
         -1   -1    0    0    0  501 -0.00000000000E+00  0.00000000000E+00  0.17497690096E+03  0.17497690096E+03  0.00000000000E+00 0.  1.
          2   -1    0    0  502    0  0.00000000000E+00 -0.00000000000E+00 -0.33378573890E+03  0.33378573890E+03  0.00000000000E+00 0. -1.
         24    2    1    2    0    0 -0.30692753372E+02  0.27184273542E+02  0.83414432653E+02  0.12280883978E+03  0.80268385525E+02 0.  0.
         23    2    1    2    0    0  0.45294709040E+02  0.12174068893E+02 -0.29454737069E+03  0.31887095816E+03  0.11278615056E+03 0.  0.
        -11    1    3    3    0    0  0.26781276435E+00  0.38884638526E+02  0.69677704647E+01  0.39504894155E+02  0.00000000000E+00 0.  1.
         12    1    3    3    0    0 -0.30960566136E+02 -0.11700364984E+02  0.76446662189E+02  0.83303945621E+02  0.00000000000E+00 0. -1.
        -11    1    4    4    0    0 -0.11043650847E+02  0.51668212470E+02 -0.14255685295E+03  0.15203296592E+03  0.00000000000E+00 0.  1.
         11    1    4    4    0    0  0.56338359887E+02 -0.39494143577E+02 -0.15199051774E+03  0.16683799224E+03  0.00000000000E+00 0. -1.
         21    1    1    2  502  501 -0.14601955669E+02 -0.39358342434E+02  0.52324100101E+02  0.67082841919E+02  0.00000000000E+00 0. -1.
<scales pt_clust_5="13000.00000" pt_clust_6="13000.00000" pt_clust_7="13000.00000" pt_clust_8="13000.00000" pt_clust_9="41.97971"></scales>
<clustering>
<clus scale="   41.980">  1  9  2 -1</clus>
<clus scale="   80.268">  5  6 -1 -1</clus>
<clus scale="   91.770">  1  5  2 -1</clus>
<clus scale="  112.786">  7  8 -1 -1</clus>
<clus scale="  121.241">  2  5  1 -1</clus>
</clustering>
</event>
<event>
 9    2  0.2869112E-005  0.1017561E+03  0.7546771E-02  0.1285058E+00
          2   -1    0    0  502    0  0.00000000000E+00  0.00000000000E+00  0.44214223779E+02  0.44214223779E+02  0.00000000000E+00 0. -1.
         -1   -1    0    0    0  501 -0.00000000000E+00 -0.00000000000E+00 -0.44035807993E+03  0.44035807993E+03  0.00000000000E+00 0.  1.
         23    2    1    2    0    0  0.36942455296E+01  0.44880295403E+02 -0.17923679788E+03  0.20852928132E+03  0.96595771594E+02 0.  0.
         24    2    1    2    0    0 -0.19638627732E+02 -0.22240494585E+02 -0.36169150725E+02  0.93196159877E+02  0.80603979139E+02 0.  0.
        -11    1    4    4    0    0  0.25967569517E+02  0.47038747971E+01 -0.29860474983E+02  0.39850835260E+02  0.00000000000E+00 0.  1.
         12    1    4    4    0    0 -0.45606197249E+02 -0.26944369382E+02 -0.63086757421E+01  0.53345324617E+02  0.00000000000E+00 0. -1.
        -11    1    3    3    0    0  0.37853705620E+02  0.35234508722E+02 -0.16001391062E+03  0.16816309115E+03  0.00000000000E+00 0.  1.
         11    1    3    3    0    0 -0.34159460090E+02  0.96457866818E+01 -0.19222887260E+02  0.40366190172E+02  0.00000000000E+00 0. -1.
         21    1    1    2  502  501  0.15944382203E+02 -0.22639800818E+02 -0.18073790754E+03  0.18284686250E+03  0.00000000000E+00 0.  1.
<scales pt_clust_5="13000.00000" pt_clust_6="13000.00000" pt_clust_7="13000.00000" pt_clust_8="13000.00000" pt_clust_9="27.69086"></scales>
<clustering>
<clus scale="   27.691">  2  9  1 -1</clus>
<clus scale="   80.604">  5  6 -1 -1</clus>
<clus scale="   86.721">  1  5  2 -1</clus>
<clus scale="   96.596">  7  8 -1 -1</clus>
<clus scale="   86.721">  1  5  2 -1</clus>
</clustering>
</event>
<event>
 9    2  0.2869112E-005  0.1632353E+03  0.7546771E-02  0.1204008E+00
         -1   -1    0    0    0  501 -0.00000000000E+00  0.00000000000E+00  0.77117492254E+03  0.77117492254E+03  0.00000000000E+00 0.  1.
          2   -1    0    0  502    0  0.00000000000E+00 -0.00000000000E+00 -0.75021037110E+02  0.75021037110E+02  0.00000000000E+00 0. -1.
         23    2    1    2    0    0 -0.45952297208E+02 -0.33397383349E+02  0.40292415234E+03  0.41710142971E+03  0.91644592243E+02 0.  0.
         24    2    1    2    0    0  0.76332341137E+02  0.14621467362E+03  0.11747362590E+03  0.21804738529E+03  0.80865643911E+02 0.  0.
        -13    1    4    4    0    0  0.11340535007E+02  0.82309651608E+02  0.90799623006E+02  0.12307744724E+03  0.00000000000E+00 0.  1.
         14    1    4    4    0    0  0.64991806130E+02  0.63905022011E+02  0.26674002895E+02  0.94969938047E+02  0.00000000000E+00 0. -1.
        -11    1    3    3    0    0 -0.41868842953E+02 -0.62733952327E+02  0.32743750893E+03  0.33601171266E+03  0.00000000000E+00 0. -1.
         11    1    3    3    0    0 -0.40834542555E+01  0.29336568978E+02  0.75486643411E+02  0.81089717051E+02  0.00000000000E+00 0.  1.
         21    1    1    2  502  501 -0.30380043929E+02 -0.11281729027E+03  0.17575610718E+03  0.21104714465E+03  0.00000000000E+00 0. -1.
<scales pt_clust_5="13000.00000" pt_clust_6="13000.00000" pt_clust_7="13000.00000" pt_clust_8="13000.00000" pt_clust_9="141.79740"></scales>
<clustering>
<clus scale="   80.866">  5  6 -1 -1</clus>
<clus scale="   91.645">  7  8 -1 -1</clus>
<clus scale="  107.823">  1  7  2 -1</clus>
<clus scale="  141.797">  1  9  2 -1</clus>
<clus scale="  163.235">  2  5  1 -1</clus>
</clustering>
</event>
<event>
 9    2  0.2869112E-005  0.1225420E+03  0.7546771E-02  0.1246136E+00
          2   -1    0    0  502    0  0.00000000000E+00  0.00000000000E+00  0.37422537991E+03  0.37422537991E+03  0.00000000000E+00 0. -1.
         -1   -1    0    0    0  501 -0.00000000000E+00 -0.00000000000E+00 -0.22336256970E+03  0.22336256970E+03  0.00000000000E+00 0.  1.
         23    2    1    2    0    0 -0.45936946705E+01  0.12265026639E+02 -0.11453043409E+03  0.14948087855E+03  0.95161861109E+02 0.  0.
         24    2    1    2    0    0  0.70058265572E+02  0.43906735805E+02  0.32508664986E+03  0.34320626264E+03  0.72617124535E+02 0.  0.
        -11    1    4    4    0    0 -0.12055399856E+02  0.19139516657E+02  0.94948632005E+02  0.97605821974E+02  0.00000000000E+00 0.  1.
         12    1    4    4    0    0  0.82113665428E+02  0.24767219148E+02  0.23013801785E+03  0.24560044066E+03  0.00000000000E+00 0. -1.
        -11    1    3    3    0    0  0.35543342853E+02  0.19812848741E+02 -0.17671826998E+02  0.44364080806E+02  0.00000000000E+00 0. -1.
         11    1    3    3    0    0 -0.40137037523E+02 -0.75478221015E+01 -0.96858607096E+02  0.10511679774E+03  0.00000000000E+00 0.  1.
         21    1    1    2  502  501 -0.65464570902E+02 -0.56171762444E+02 -0.59693405559E+02  0.10490080842E+03  0.00000000000E+00 0.  1.
<scales pt_clust_5="13000.00000" pt_clust_6="13000.00000" pt_clust_7="13000.00000" pt_clust_8="13000.00000" pt_clust_9="86.26052"></scales>
<clustering>
<clus scale="   72.617">  5  6 -1 -1</clus>
<clus scale="   86.261">  2  9  1 -1</clus>
<clus scale="   95.162">  7  8 -1 -1</clus>
<clus scale="  105.991">  1  5  2 -1</clus>
<clus scale="  105.991">  1  5  2 -1</clus>
</clustering>
</event>
<event>
 9    2  0.2869112E-005  0.9599174E+02  0.7546771E-02  0.1295788E+00
          2   -1    0    0  502    0  0.00000000000E+00  0.00000000000E+00  0.11514058697E+03  0.11514058697E+03  0.00000000000E+00 0. -1.
         -1   -1    0    0    0  501 -0.00000000000E+00 -0.00000000000E+00 -0.15511510514E+03  0.15511510514E+03  0.00000000000E+00 0.  1.
         23    2    1    2    0    0 -0.11240090402E+02 -0.36198803691E+02 -0.82449701602E+02  0.12927777715E+03  0.92076584152E+02 0.  0.
         24    2    1    2    0    0 -0.23768907354E+02  0.17428705450E+02  0.52316688393E+02  0.10005357341E+03  0.80030999849E+02 0.  0.
        -13    1    4    4    0    0 -0.19547328433E+02 -0.28621688109E+02  0.71042460993E+01  0.35380353188E+02  0.00000000000E+00 0.  1.
         14    1    4    4    0    0 -0.42215789205E+01  0.46050393558E+02  0.45212442293E+02  0.64673220220E+02  0.00000000000E+00 0. -1.
        -13    1    3    3    0    0  0.27134998589E+02 -0.20077152716E+02  0.33437161245E+01  0.33920210010E+02  0.00000000000E+00 0. -1.
         13    1    3    3    0    0 -0.38375088991E+02 -0.16121650975E+02 -0.85793417726E+02  0.95357567137E+02  0.00000000000E+00 0.  1.
         21    1    1    2  502  501  0.35008997755E+02  0.18770098241E+02 -0.98415049612E+01  0.40924341555E+02  0.00000000000E+00 0. -1.
<scales pt_clust_5="13000.00000" pt_clust_6="13000.00000" pt_clust_7="13000.00000" pt_clust_8="13000.00000" pt_clust_9="39.72337"></scales>
<clustering>
<clus scale="   39.723">  2  9  1 -1</clus>
<clus scale="   80.031">  5  6 -1 -1</clus>
<clus scale="   84.506">  1  5  2 -1</clus>
<clus scale="   92.077">  7  8 -1 -1</clus>
<clus scale="   84.506">  1  5  2 -1</clus>
</clustering>
</event>
<event>
 9    2  0.2869112E-005  0.1078164E+03  0.7546771E-02  0.1270354E+00
          2   -1    0    0  502    0  0.00000000000E+00  0.00000000000E+00  0.26189782244E+03  0.26189782244E+03  0.00000000000E+00 0. -1.
         -1   -1    0    0    0  501 -0.00000000000E+00 -0.00000000000E+00 -0.52129491098E+02  0.52129491098E+02  0.00000000000E+00 0.  1.
         23    2    1    2    0    0 -0.28104063481E+02  0.46670985295E+02  0.60121043751E+02  0.12447806740E+03  0.94404608517E+02 0.  0.
         24    2    1    2    0    0  0.40621573388E+02 -0.30444732911E+02  0.12368073114E+03  0.15646992670E+03  0.81295268737E+02 0.  0.
        -11    1    4    4    0    0  0.18788739235E+02 -0.22542840827E+02 -0.12764176515E+01  0.29373893794E+02  0.00000000000E+00 0.  1.
         12    1    4    4    0    0  0.21832834153E+02 -0.79018920847E+01  0.12495714880E+03  0.12709603291E+03  0.00000000000E+00 0. -1.
        -13    1    3    3    0    0 -0.40629269123E+02  0.66752003579E+02  0.24846317251E+02  0.81999432755E+02  0.00000000000E+00 0.  1.
         13    1    3    3    0    0  0.12525205641E+02 -0.20081018283E+02  0.35274726499E+02  0.42478634644E+02  0.00000000000E+00 0. -1.
         21    1    1    2  502  501 -0.12517509907E+02 -0.16226252384E+02  0.25966556442E+02  0.33079319433E+02  0.00000000000E+00 0. -1.
<scales pt_clust_5="13000.00000" pt_clust_6="13000.00000" pt_clust_7="13000.00000" pt_clust_8="13000.00000" pt_clust_9="20.49340"></scales>
<clustering>
<clus scale="   20.493">  1  9  2 -1</clus>
<clus scale="   81.295">  5  6 -1 -1</clus>
<clus scale="   94.405">  7  8 -1 -1</clus>
<clus scale="   96.546">  1  5  2 -1</clus>
<clus scale="   20.493">  1  5  2 -1</clus>
</clustering>
</event>
<event>
 9    2  0.2869112E-005  0.9939971E+02  0.7546771E-02  0.1286870E+00
         -3   -1    0    0    0  501 -0.00000000000E+00  0.00000000000E+00  0.31617638714E+02  0.31617638714E+02  0.00000000000E+00 0.  1.
          4   -1    0    0  502    0  0.00000000000E+00 -0.00000000000E+00 -0.55335422461E+03  0.55335422461E+03  0.00000000000E+00 0. -1.
         23    2    1    2    0    0 -0.24282354509E+02  0.35594596077E+02 -0.13650850679E+03  0.16984232049E+03  0.91406965779E+02 0.  0.
         24    2    1    2    0    0  0.44579555940E+02  0.86199137133E+01 -0.32334778533E+03  0.33641442345E+03  0.80989099918E+02 0.  0.
        -13    1    4    4    0    0  0.44177098138E+02  0.32669839478E+02 -0.29078871068E+03  0.29593412894E+03  0.00000000000E+00 0.  1.
         14    1    4    4    0    0  0.40245780176E+00 -0.24049925765E+02 -0.32559074657E+02  0.40480294516E+02  0.00000000000E+00 0. -1.
        -11    1    3    3    0    0 -0.53049151154E+02  0.28263700696E+01 -0.98879894257E+02  0.11224720172E+03  0.00000000000E+00 0. -1.
         11    1    3    3    0    0  0.28766796645E+02  0.32768226007E+02 -0.37628612537E+02  0.57595118772E+02  0.00000000000E+00 0.  1.
         21    1    1    2  502  501 -0.20297201431E+02 -0.44214509790E+02 -0.61880293764E+02  0.78715119375E+02  0.00000000000E+00 0.  1.
<scales pt_clust_5="13000.00000" pt_clust_6="13000.00000" pt_clust_7="13000.00000" pt_clust_8="13000.00000" pt_clust_9="48.65079"></scales>
<clustering>
<clus scale="   48.651">  1  9  2 -1</clus>
<clus scale="   80.989">  5  6 -1 -1</clus>
<clus scale="   89.913">  2  5  1 -1</clus>
<clus scale="   91.407">  7  8 -1 -1</clus>
<clus scale="   89.913">  2  5  1 -1</clus>
</clustering>
</event>
<event>
 9    2  0.2869112E-005  0.9574587E+02  0.7546771E-02  0.1290817E+00
         -1   -1    0    0    0  501 -0.00000000000E+00  0.00000000000E+00  0.39082919036E+03  0.39082919036E+03  0.00000000000E+00 0.  1.
          2   -1    0    0  502    0  0.00000000000E+00 -0.00000000000E+00 -0.23091373649E+03  0.23091373649E+03  0.00000000000E+00 0. -1.
         23    2    1    2    0    0 -0.72804675499E+02  0.80935994606E+01  0.29896028212E+03  0.31739282414E+03  0.77426916534E+02 0.  0.
         24    2    1    2    0    0  0.50788365195E+02 -0.89967942804E+01 -0.20968498468E+03  0.23035303938E+03  0.80214273062E+02 0.  0.
        -11    1    4    4    0    0  0.41143048307E+01 -0.27715808879E+02 -0.20820514933E+02  0.34908271343E+02  0.00000000000E+00 0.  1.
         12    1    4    4    0    0  0.46674060364E+02  0.18719014599E+02 -0.18886446975E+03  0.19544476804E+03  0.00000000000E+00 0. -1.
        -11    1    3    3    0    0 -0.30868530045E+02 -0.28144566769E+02  0.19661731803E+03  0.20100585199E+03  0.00000000000E+00 0.  1.
         11    1    3    3    0    0 -0.41936145454E+02  0.36238166230E+02  0.10234296409E+03  0.11638697215E+03  0.00000000000E+00 0. -1.
         21    1    1    2  502  501  0.22016310304E+02  0.90319481986E+00  0.70640156434E+02  0.73997063329E+02  0.00000000000E+00 0. -1.
<scales pt_clust_5="13000.00000" pt_clust_6="13000.00000" pt_clust_7="13000.00000" pt_clust_8="13000.00000" pt_clust_9="22.03483"></scales>
<clustering>
<clus scale="   22.035">  1  9  2 -1</clus>
<clus scale="   77.427">  7  8 -1 -1</clus>
<clus scale="   80.214">  5  6 -1 -1</clus>
<clus scale="   93.423">  1  7  2 -1</clus>
<clus scale="   95.746">  2  5  1 -1</clus>
</clustering>
</event>
<event>
 9    2  0.2869112E-005  0.3264406E+03  0.7546771E-02  0.1072723E+00
         -1   -1    0    0    0  501 -0.00000000000E+00  0.00000000000E+00  0.12209831086E+03  0.12209831086E+03  0.00000000000E+00 0.  1.
          2   -1    0    0  502    0  0.00000000000E+00 -0.00000000000E+00 -0.73864431082E+03  0.73864431082E+03  0.00000000000E+00 0. -1.
         24    2    1    2    0    0  0.55039186669E+02  0.90931754437E+02 -0.10799581733E+03  0.17100522906E+03  0.79257780500E+02 0.  0.
         23    2    1    2    0    0  0.13956295237E+03  0.98661261207E+02 -0.18925251770E+03  0.27049223411E+03  0.90209041262E+02 0.  0.
        -11    1    3    3    0    0 -0.95399961114E+01  0.47604501415E+02 -0.68006486705E+02  0.83558855393E+02  0.00000000000E+00 0.  1.
         12    1    3    3    0    0  0.64579182780E+02  0.43327253022E+02 -0.39989330626E+02  0.87446373663E+02  0.00000000000E+00 0. -1.
        -11    1    4    4    0    0  0.86672063723E+02  0.10420374411E+03 -0.16037328044E+03  0.20997632247E+03  0.00000000000E+00 0. -1.
         11    1    4    4    0    0  0.52890888642E+02 -0.55424829029E+01 -0.28879237253E+02  0.60515911646E+02  0.00000000000E+00 0.  1.
         21    1    1    2  502  501 -0.19460213903E+03 -0.18959301564E+03 -0.31929766494E+03  0.41924515851E+03  0.00000000000E+00 0.  1.
<scales pt_clust_5="13000.00000" pt_clust_6="13000.00000" pt_clust_7="13000.00000" pt_clust_8="13000.00000" pt_clust_9="271.69009"></scales>
<clustering>
<clus scale="   79.258">  5  6 -1 -1</clus>
<clus scale="   90.209">  7  8 -1 -1</clus>
<clus scale="  101.478">  5  7 -1 -1</clus>
<clus scale="  271.690">  2  9  1 -1</clus>
<clus scale="  271.690">  2  5  1 -1</clus>
</clustering>
</event>
<event>
 9    2  0.2869112E-005  0.1044389E+03  0.7546771E-02  0.1277747E+00
          2   -1    0    0  502    0  0.00000000000E+00  0.00000000000E+00  0.13467491182E+03  0.13467491182E+03  0.00000000000E+00 0. -1.
         -1   -1    0    0    0  501 -0.00000000000E+00 -0.00000000000E+00 -0.14472415530E+03  0.14472415530E+03  0.00000000000E+00 0.  1.
         23    2    1    2    0    0 -0.45908384801E+02 -0.26991946567E+02 -0.89020039381E+02  0.13876237019E+03  0.92164434550E+02 0.  0.
         24    2    1    2    0    0  0.38020450332E+02  0.75882727143E+00  0.71021643264E+02  0.11211328398E+03  0.77969123191E+02 0.  0.
        -11    1    4    4    0    0  0.18787075369E+02 -0.73841934159E+01 -0.13998678999E+02  0.24565087564E+02  0.00000000000E+00 0.  1.
         12    1    4    4    0    0  0.19233374963E+02  0.81430206873E+01  0.85020322263E+02  0.87548196419E+02  0.00000000000E+00 0. -1.
        -11    1    3    3    0    0 -0.22331527448E+02 -0.35329653307E+02 -0.10225596469E+03  0.11046793125E+03  0.00000000000E+00 0.  1.
         11    1    3    3    0    0 -0.23576857354E+02  0.83377067397E+01  0.13235925306E+02  0.28294438942E+02  0.00000000000E+00 0. -1.
         21    1    1    2  502  501  0.78879344695E+01  0.26233119296E+02  0.79491526368E+01  0.28523412941E+02  0.00000000000E+00 0. -1.
<scales pt_clust_5="13000.00000" pt_clust_6="13000.00000" pt_clust_7="13000.00000" pt_clust_8="13000.00000" pt_clust_9="27.39336"></scales>
<clustering>
<clus scale="   27.393">  1  9  2 -1</clus>
<clus scale="   77.969">  5  6 -1 -1</clus>
<clus scale="   92.154">  1  5  2 -1</clus>
<clus scale="   92.164">  7  8 -1 -1</clus>
<clus scale="   27.393">  1  5  2 -1</clus>
</clustering>
</event>
<event>
 9    2  0.2869112E-005  0.1321286E+03  0.7546771E-02  0.1242371E+00
         -1   -1    0    0    0  501 -0.00000000000E+00  0.00000000000E+00  0.76448770692E+02  0.76448770692E+02  0.00000000000E+00 0.  1.
          2   -1    0    0  502    0  0.00000000000E+00 -0.00000000000E+00 -0.77987424142E+03  0.77987424142E+03  0.00000000000E+00 0. -1.
         23    2    1    2    0    0  0.74192615777E+02  0.28356288127E+02 -0.30523608698E+02  0.12761443927E+03  0.95105894188E+02 0.  0.
         24    2    1    2    0    0  0.25264023212E+02  0.24007688492E+02 -0.56695464820E+03  0.57424685848E+03  0.84304456484E+02 0.  0.
        -13    1    4    4    0    0 -0.19727040202E+02  0.12234029183E+02 -0.49126198609E+02  0.54334252318E+02  0.00000000000E+00 0.  1.
         14    1    4    4    0    0  0.44991063413E+02  0.11773659309E+02 -0.51782844959E+03  0.51991260616E+03  0.00000000000E+00 0. -1.
        -11    1    3    3    0    0  0.67560365909E+02  0.48213527514E+02  0.83940146023E+01  0.83423058912E+02  0.00000000000E+00 0. -1.
         11    1    3    3    0    0  0.66322498679E+01 -0.19857239387E+02 -0.38917623300E+02  0.44191380355E+02  0.00000000000E+00 0.  1.
         21    1    1    2  502  501 -0.99456638989E+02 -0.52363976619E+02 -0.10594721383E+03  0.15446171436E+03  0.00000000000E+00 0.  1.
<scales pt_clust_5="13000.00000" pt_clust_6="13000.00000" pt_clust_7="13000.00000" pt_clust_8="13000.00000" pt_clust_9="91.72153"></scales>
<clustering>
<clus scale="   84.304">  5  6 -1 -1</clus>
<clus scale="   91.224">  2  5  1 -1</clus>
<clus scale="   91.722">  2  9  1 -1</clus>
<clus scale="   95.106">  7  8 -1 -1</clus>
<clus scale="   91.224">  2  5  1 -1</clus>
</clustering>
</event>
<event>
 9    2  0.2869112E-005  0.3093750E+03  0.7546771E-02  0.1093333E+00
         -1   -1    0    0    0  501 -0.00000000000E+00  0.00000000000E+00  0.13627061645E+03  0.13627061645E+03  0.00000000000E+00 0.  1.
          2   -1    0    0  502    0  0.00000000000E+00 -0.00000000000E+00 -0.25043887211E+04  0.25043887211E+04  0.00000000000E+00 0. -1.
         23    2    1    2    0    0  0.88806994730E+02 -0.18040008365E+03 -0.15496599892E+03  0.26975225206E+03  0.91219209451E+02 0.  0.
         24    2    1    2    0    0  0.13888769830E+02 -0.26798514221E+03 -0.14743891428E+04  0.15006390542E+04  0.78008283545E+02 0.  0.
        -13    1    4    4    0    0  0.23458529679E+02 -0.23650606688E+02 -0.13042696887E+03  0.13461369923E+03  0.00000000000E+00 0.  1.
         14    1    4    4    0    0 -0.95697598486E+01 -0.24433453552E+03 -0.13439621739E+04  0.13660253550E+04  0.00000000000E+00 0. -1.
        -11    1    3    3    0    0  0.33426110515E+02 -0.33839503223E+02  0.24866194894E+01  0.47629823840E+02  0.00000000000E+00 0. -1.
         11    1    3    3    0    0  0.55380884215E+02 -0.14656058043E+03 -0.15745261841E+03  0.22212242822E+03  0.00000000000E+00 0.  1.
         21    1    1    2  502  501 -0.10269576456E+03  0.44838522587E+03 -0.73876296289E+03  0.87026803122E+03  0.00000000000E+00 0. -1.
<scales pt_clust_5="13000.00000" pt_clust_6="13000.00000" pt_clust_7="13000.00000" pt_clust_8="13000.00000" pt_clust_9="299.37869"></scales>
<clustering>
<clus scale="   78.008">  5  6 -1 -1</clus>
<clus scale="   91.219">  7  8 -1 -1</clus>
<clus scale="  220.798">  1  7  2 -1</clus>
<clus scale="  299.379">  1  9  2 -1</clus>
<clus scale="  309.375">  2  5  1 -1</clus>
</clustering>
</event>
<event>
 9    2  0.2869112E-005  0.9966010E+02  0.7546771E-02  0.1287580E+00
         -1   -1    0    0    0  501 -0.00000000000E+00  0.00000000000E+00  0.13692663934E+03  0.13692663934E+03  0.00000000000E+00 0.  1.
          2   -1    0    0  502    0  0.00000000000E+00 -0.00000000000E+00 -0.43301180498E+03  0.43301180498E+03  0.00000000000E+00 0. -1.
         23    2    1    2    0    0 -0.38774849377E+01 -0.87321714430E+02  0.38465355040E+02  0.13148020190E+03  0.90373354777E+02 0.  0.
         24    2    1    2    0    0 -0.15856030752E+00  0.39326182742E+02 -0.36911248936E+03  0.37917594824E+03  0.77355000682E+02 0.  0.
        -13    1    4    4    0    0  0.38234724056E+02  0.13762814730E+02 -0.16922413357E+03  0.17403481427E+03  0.00000000000E+00 0.  1.
         14    1    4    4    0    0 -0.38393284364E+02  0.25563368012E+02 -0.19988835579E+03  0.20514113397E+03  0.00000000000E+00 0. -1.
        -13    1    3    3    0    0 -0.39130643952E+02 -0.37733485963E+02  0.44619851255E+02  0.70327479587E+02  0.00000000000E+00 0. -1.
         13    1    3    3    0    0  0.35253159015E+02 -0.49588228466E+02 -0.61544962156E+01  0.61152722315E+02  0.00000000000E+00 0.  1.
         21    1    1    2  502  501  0.40360452452E+01  0.47995531688E+02  0.34561968688E+02  0.59282294176E+02  0.00000000000E+00 0. -1.
<scales pt_clust_5="13000.00000" pt_clust_6="13000.00000" pt_clust_7="13000.00000" pt_clust_8="13000.00000" pt_clust_9="48.16493"></scales>
<clustering>
<clus scale="   48.165">  1  9  2 -1</clus>
<clus scale="   77.355">  5  6 -1 -1</clus>
<clus scale="   88.026">  2  5  1 -1</clus>
<clus scale="   90.373">  7  8 -1 -1</clus>
<clus scale="   88.026">  2  5  1 -1</clus>
</clustering>
</event>
<event>
 9    2  0.2869112E-005  0.8124284E+02  0.7546771E-02  0.1326971E+00
         -1   -1    0    0    0  501 -0.00000000000E+00  0.00000000000E+00  0.20158640044E+02  0.20158640044E+02  0.00000000000E+00 0.  1.
          2   -1    0    0  502    0  0.00000000000E+00 -0.00000000000E+00 -0.76803455597E+03  0.76803455597E+03  0.00000000000E+00 0. -1.
         23    2    1    2    0    0 -0.64846952269E+01  0.19382990703E+02 -0.12279429292E+03  0.14722140479E+03  0.78599949450E+02 0.  0.
         24    2    1    2    0    0  0.10581773507E+02  0.17645767558E+01 -0.60817441830E+03  0.61358823355E+03  0.80618295797E+02 0.  0.
        -13    1    4    4    0    0 -0.16844177950E+02  0.23902601000E+02 -0.99858196118E+02  0.10405152568E+03  0.00000000000E+00 0.  1.
         14    1    4    4    0    0  0.27425951457E+02 -0.22138024244E+02 -0.50831622218E+03  0.50953670787E+03  0.00000000000E+00 0. -1.
        -11    1    3    3    0    0  0.23965457654E+02 -0.17594645095E+02 -0.69337256252E+02  0.75442493339E+02  0.00000000000E+00 0. -1.
         11    1    3    3    0    0 -0.30450152881E+02  0.36977635798E+02 -0.53457036670E+02  0.71778911452E+02  0.00000000000E+00 0.  1.
         21    1    1    2  502  501 -0.40970782803E+01 -0.21147567458E+02 -0.16907204702E+02  0.27383557670E+02  0.00000000000E+00 0. -1.
<scales pt_clust_5="13000.00000" pt_clust_6="13000.00000" pt_clust_7="13000.00000" pt_clust_8="13000.00000" pt_clust_9="21.54079"></scales>
<clustering>
<clus scale="   21.541">  1  9  2 -1</clus>
<clus scale="   78.600">  7  8 -1 -1</clus>
<clus scale="   79.240">  1  7  2 -1</clus>
<clus scale="   80.618">  5  6 -1 -1</clus>
<clus scale="   81.243">  2  5  1 -1</clus>
</clustering>
</event>
<event>
 9    2  0.2869112E-005  0.9970816E+02  0.7546771E-02  0.1281709E+00
          2   -1    0    0  502    0  0.00000000000E+00  0.00000000000E+00  0.70948948583E+02  0.70948948583E+02  0.00000000000E+00 0. -1.
         -1   -1    0    0    0  501 -0.00000000000E+00 -0.00000000000E+00 -0.47944268522E+03  0.47944268522E+03  0.00000000000E+00 0.  1.
         24    2    1    2    0    0 -0.41409008220E+02 -0.65799437879E+02 -0.30157647995E+03  0.32369971502E+03  0.88254519774E+02 0.  0.
         23    2    1    2    0    0  0.17592008664E+02  0.34176552506E+02  0.14611053780E+02  0.98878043976E+02  0.89921461164E+02 0.  0.
        -11    1    3    3    0    0 -0.54010500839E+02 -0.73914205652E+02 -0.29175546248E+03  0.30578046681E+03  0.00000000000E+00 0.  1.
         12    1    3    3    0    0  0.12601492619E+02  0.81147677731E+01 -0.98210174691E+01  0.17919248209E+02  0.00000000000E+00 0. -1.
        -11    1    4    4    0    0  0.43221900609E+02  0.36364095646E+02 -0.16180111064E+02  0.58756073205E+02  0.00000000000E+00 0. -1.
         11    1    4    4    0    0 -0.25629891944E+02 -0.21875431399E+01  0.30791164845E+02  0.40121970771E+02  0.00000000000E+00 0.  1.
         21    1    1    2  502  501  0.23816999556E+02  0.31622885372E+02 -0.12152831046E+03  0.12781387480E+03  0.00000000000E+00 0. -1.
<scales pt_clust_5="13000.00000" pt_clust_6="13000.00000" pt_clust_7="13000.00000" pt_clust_8="13000.00000" pt_clust_9="39.58859"></scales>
<clustering>
<clus scale="   39.589">  2  9  1 -1</clus>
<clus scale="   88.255">  5  6 -1 -1</clus>
<clus scale="   89.921">  7  8 -1 -1</clus>
<clus scale="   98.207">  2  5  1 -1</clus>
<clus scale="   99.708">  1  5  2 -1</clus>
</clustering>
</event>
<event>
 9    2  0.2869112E-005  0.1764437E+03  0.7546771E-02  0.1171921E+00
         -1   -1    0    0    0  501 -0.00000000000E+00  0.00000000000E+00  0.56040935092E+02  0.56040935092E+02  0.00000000000E+00 0.  1.
          2   -1    0    0  502    0  0.00000000000E+00 -0.00000000000E+00 -0.10928827654E+04  0.10928827654E+04  0.00000000000E+00 0. -1.
         24    2    1    2    0    0  0.10883121557E+03 -0.79313276756E+02 -0.14614345034E+03  0.21662577666E+03  0.86220587354E+02 0.  0.
         23    2    1    2    0    0 -0.13939694242E+03  0.69363560313E+02 -0.88016511333E+03  0.89847174729E+03  0.91203305352E+02 0.  0.
        -11    1    3    3    0    0  0.91071766985E+02 -0.83769989069E+02 -0.78479474561E+02  0.14652817387E+03  0.00000000000E+00 0.  1.
         12    1    3    3    0    0  0.17759448587E+02  0.44567123132E+01 -0.67663975777E+02  0.70097602789E+02  0.00000000000E+00 0. -1.
        -13    1    4    4    0    0 -0.92904969705E+02  0.82627270177E+02 -0.73568033060E+03  0.74611269122E+03  0.00000000000E+00 0.  1.
         13    1    4    4    0    0 -0.46491972714E+02 -0.13263709864E+02 -0.14448478273E+03  0.15235905607E+03  0.00000000000E+00 0. -1.
         21    1    1    2  502  501  0.30565726847E+02  0.99497164435E+01 -0.10533266681E+02  0.33826176579E+02  0.00000000000E+00 0.  1.
<scales pt_clust_5="13000.00000" pt_clust_6="13000.00000" pt_clust_7="13000.00000" pt_clust_8="13000.00000" pt_clust_9="32.14437"></scales>
<clustering>
<clus scale="   32.144">  1  9  2 -1</clus>
<clus scale="   86.221">  5  6 -1 -1</clus>
<clus scale="   91.203">  7  8 -1 -1</clus>
<clus scale="  173.920">  1  5  2 -1</clus>
<clus scale="  176.444">  2  5  1 -1</clus>
</clustering>
</event>
<event>
 9    2  0.2869112E-005  0.1472477E+03  0.7546771E-02  0.1206493E+00
          2   -1    0    0  502    0  0.00000000000E+00  0.00000000000E+00  0.15515598123E+04  0.15515598123E+04  0.00000000000E+00 0. -1.
         -1   -1    0    0    0  501 -0.00000000000E+00 -0.00000000000E+00 -0.33509927092E+02  0.33509927092E+02  0.00000000000E+00 0.  1.
         23    2    1    2    0    0  0.11875006206E+03 -0.71879736514E+00  0.31794867260E+03  0.35218173210E+03  0.94013403864E+02 0.  0.
         24    2    1    2    0    0 -0.10362233197E+03 -0.48077426272E+02  0.11587173694E+04  0.11671419645E+04  0.80903625559E+02 0.  0.
        -11    1    4    4    0    0 -0.38276050587E+02 -0.20753915887E+02  0.15705993294E+03  0.16298344581E+03  0.00000000000E+00 0.  1.
         12    1    4    4    0    0 -0.65346281386E+02 -0.27323510385E+02  0.10016574364E+04  0.10041585187E+04  0.00000000000E+00 0. -1.
        -11    1    3    3    0    0  0.74852822466E+01  0.34013069529E+02  0.68566479167E+02  0.76904358878E+02  0.00000000000E+00 0.  1.
         11    1    3    3    0    0  0.11126477981E+03 -0.34731866894E+02  0.24938219343E+03  0.27527737322E+03  0.00000000000E+00 0. -1.
         21    1    1    2  502  501 -0.15127730087E+02  0.48796223637E+02  0.41383843188E+02  0.65746042739E+02  0.00000000000E+00 0.  1.
<scales pt_clust_5="13000.00000" pt_clust_6="13000.00000" pt_clust_7="13000.00000" pt_clust_8="13000.00000" pt_clust_9="51.08737"></scales>
<clustering>
<clus scale="   51.087">  2  9  1 -1</clus>
<clus scale="   80.904">  5  6 -1 -1</clus>
<clus scale="   94.013">  7  8 -1 -1</clus>
<clus scale="  139.243">  1  5  2 -1</clus>
<clus scale="  139.243">  1  5  2 -1</clus>
</clustering>
</event>
<event>
 9    2  0.2869112E-005  0.1606475E+03  0.7546771E-02  0.1189185E+00
         -1   -1    0    0    0  501 -0.00000000000E+00  0.00000000000E+00  0.70770729269E+02  0.70770729269E+02  0.00000000000E+00 0.  1.
          2   -1    0    0  502    0  0.00000000000E+00 -0.00000000000E+00 -0.71452069265E+03  0.71452069265E+03  0.00000000000E+00 0. -1.
         24    2    1    2    0    0  0.10096587446E+03  0.60760936035E+02 -0.63351020644E+02  0.15832617413E+03  0.84663016986E+02 0.  0.
         23    2    1    2    0    0 -0.97825806874E+02 -0.93568894325E+02 -0.56895183532E+03  0.59207601707E+03  0.92318972043E+02 0.  0.
        -13    1    3    3    0    0  0.10375356102E+03  0.66341588865E+02 -0.33214548264E+02  0.12755082930E+03  0.00000000000E+00 0.  1.
         14    1    3    3    0    0 -0.27876865578E+01 -0.55806528302E+01 -0.30136472380E+02  0.30775344838E+02  0.00000000000E+00 0. -1.
        -11    1    4    4    0    0 -0.39390584505E+01 -0.62474372759E+02 -0.27109620556E+03  0.27822961040E+03  0.00000000000E+00 0. -1.
         11    1    4    4    0    0 -0.93886748423E+02 -0.31094521566E+02 -0.29785562976E+03  0.31384640667E+03  0.00000000000E+00 0.  1.
         21    1    1    2  502  501 -0.31400675894E+01  0.32807958290E+02 -0.11447107416E+02  0.34889230714E+02  0.00000000000E+00 0.  1.
<scales pt_clust_5="13000.00000" pt_clust_6="13000.00000" pt_clust_7="13000.00000" pt_clust_8="13000.00000" pt_clust_9="32.95788"></scales>
<clustering>
<clus scale="   32.958">  1  9  2 -1</clus>
<clus scale="   84.663">  5  6 -1 -1</clus>
<clus scale="   92.319">  7  8 -1 -1</clus>
<clus scale="  156.373">  1  5  2 -1</clus>
<clus scale="  160.647">  2  5  1 -1</clus>
</clustering>
</event>
<event>
 9    2  0.2869112E-005  0.1045008E+03  0.7546771E-02  0.1276136E+00
         -1   -1    0    0    0  501 -0.00000000000E+00  0.00000000000E+00  0.71851764003E+02  0.71851764003E+02  0.00000000000E+00 0.  1.
          2   -1    0    0  502    0  0.00000000000E+00 -0.00000000000E+00 -0.50204088957E+03  0.50204088957E+03  0.00000000000E+00 0. -1.
         23    2    1    2    0    0 -0.99553093518E+01  0.25507443661E+02  0.21565609002E+02  0.96949702055E+02  0.90467847164E+02 0.  0.
         24    2    1    2    0    0  0.46577296036E+02 -0.29514234317E+02 -0.41028905463E+03  0.42147560172E+03  0.79145688254E+02 0.  0.
        -13    1    4    4    0    0  0.27876883066E+02  0.23327418018E+02 -0.10579958856E+03  0.11186975454E+03  0.00000000000E+00 0.  1.
         14    1    4    4    0    0  0.18700412970E+02 -0.52841652335E+02 -0.30448946606E+03  0.30960584718E+03  0.00000000000E+00 0. -1.
        -11    1    3    3    0    0 -0.88691836897E+01 -0.32516027382E+02  0.19372209195E+02  0.38874631125E+02  0.00000000000E+00 0. -1.
         11    1    3    3    0    0 -0.10861256622E+01  0.58023471042E+02  0.21933998070E+01  0.58075070930E+02  0.00000000000E+00 0.  1.
         21    1    1    2  502  501 -0.36621986684E+02  0.40067906564E+01 -0.41465679941E+02  0.55467349793E+02  0.00000000000E+00 0.  1.
<scales pt_clust_5="13000.00000" pt_clust_6="13000.00000" pt_clust_7="13000.00000" pt_clust_8="13000.00000" pt_clust_9="36.84052"></scales>
<clustering>
<clus scale="   36.841">  1  9  2 -1</clus>
<clus scale="   79.146">  5  6 -1 -1</clus>
<clus scale="   90.468">  7  8 -1 -1</clus>
<clus scale="   94.869">  2  5  1 -1</clus>
<clus scale="   94.869">  2  5  1 -1</clus>
</clustering>
</event>
<event>
 9    2  0.2869112E-005  0.9954070E+02  0.7546771E-02  0.1286820E+00
          2   -1    0    0  502    0  0.00000000000E+00  0.00000000000E+00  0.23259642110E+02  0.23259642110E+02  0.00000000000E+00 0. -1.
         -1   -1    0    0    0  501 -0.00000000000E+00 -0.00000000000E+00 -0.69985927247E+03  0.69985927247E+03  0.00000000000E+00 0.  1.
         24    2    1    2    0    0 -0.97092930340E+01 -0.77147817902E+01 -0.36176355716E+03  0.37151810757E+03  0.83660293654E+02 0.  0.
         23    2    1    2    0    0  0.41239372392E+02 -0.12949193158E+02 -0.14884732722E+03  0.18138503349E+03  0.94215901592E+02 0.  0.
        -13    1    3    3    0    0 -0.52321298286E+01  0.36610457030E+02 -0.21444523490E+03  0.21761079825E+03  0.00000000000E+00 0.  1.
         14    1    3    3    0    0 -0.44771632054E+01 -0.44325238820E+02 -0.14731832227E+03  0.15390730932E+03  0.00000000000E+00 0. -1.
        -13    1    4    4    0    0  0.47764956576E+02 -0.47078820465E+02 -0.81034102593E+02  0.10518760476E+03  0.00000000000E+00 0. -1.
         13    1    4    4    0    0 -0.65255841841E+01  0.34129627307E+02 -0.67813224631E+02  0.76197428722E+02  0.00000000000E+00 0.  1.
         21    1    1    2  502  501 -0.31530079358E+02  0.20663974948E+02 -0.16598874598E+03  0.17021577352E+03  0.00000000000E+00 0.  1.
<scales pt_clust_5="13000.00000" pt_clust_6="13000.00000" pt_clust_7="13000.00000" pt_clust_8="13000.00000" pt_clust_9="37.69809"></scales>
<clustering>
<clus scale="   37.698">  2  9  1 -1</clus>
<clus scale="   83.660">  5  6 -1 -1</clus>
<clus scale="   89.615">  2  5  1 -1</clus>
<clus scale="   94.216">  7  8 -1 -1</clus>
<clus scale="   99.541">  1  5  2 -1</clus>
</clustering>
</event>
<event>
 9    2  0.2869112E-005  0.1013955E+03  0.7546771E-02  0.1281322E+00
          2   -1    0    0  502    0  0.00000000000E+00  0.00000000000E+00  0.99158778131E+03  0.99158778131E+03  0.00000000000E+00 0. -1.
         -1   -1    0    0    0  501 -0.00000000000E+00 -0.00000000000E+00 -0.22508440247E+02  0.22508440247E+02  0.00000000000E+00 0.  1.
         23    2    1    2    0    0 -0.50602408563E+02  0.18353877372E+02  0.36127362350E+03  0.37611666774E+03  0.89708684914E+02 0.  0.
         24    2    1    2    0    0  0.36671213609E+02  0.47799451369E+02  0.50425268288E+03  0.51431237106E+03  0.81344215434E+02 0.  0.
        -13    1    4    4    0    0  0.42505335418E+02  0.12989039048E+02  0.11232684084E+03  0.12080040500E+03  0.00000000000E+00 0.  1.
         14    1    4    4    0    0 -0.58341218085E+01  0.34810412321E+02  0.39192584204E+03  0.39351196607E+03  0.00000000000E+00 0. -1.
        -13    1    3    3    0    0  0.84619560848E+01 -0.24827754841E+02  0.15608267605E+03  0.15827136151E+03  0.00000000000E+00 0. -1.
         13    1    3    3    0    0 -0.59064364648E+02  0.43181632212E+02  0.20519094745E+03  0.21784530623E+03  0.00000000000E+00 0.  1.
         21    1    1    2  502  501  0.13931194953E+02 -0.66153328741E+02  0.10355303469E+03  0.12366718275E+03  0.00000000000E+00 0.  1.
<scales pt_clust_5="13000.00000" pt_clust_6="13000.00000" pt_clust_7="13000.00000" pt_clust_8="13000.00000" pt_clust_9="67.60430"></scales>
<clustering>
<clus scale="   67.604">  2  9  1 -1</clus>
<clus scale="   81.344">  5  6 -1 -1</clus>
<clus scale="   89.709">  7  8 -1 -1</clus>
<clus scale="   94.076">  1  5  2 -1</clus>
<clus scale="   94.076">  1  5  2 -1</clus>
</clustering>
</event>
<event>
 9    2  0.2869112E-005  0.1225765E+03  0.7546771E-02  0.1242831E+00
          2   -1    0    0  502    0  0.00000000000E+00  0.00000000000E+00  0.60854089377E+03  0.60854089377E+03  0.00000000000E+00 0. -1.
         -1   -1    0    0    0  501 -0.00000000000E+00 -0.00000000000E+00 -0.86446527194E+02  0.86446527194E+02  0.00000000000E+00 0.  1.
         23    2    1    2    0    0 -0.15065035205E+02  0.37403350625E+02  0.82527524877E+02  0.13035946506E+03  0.92503145050E+02 0.  0.
         24    2    1    2    0    0  0.67388624133E+02 -0.66381179576E+02  0.47786361750E+03  0.49360601870E+03  0.79659130674E+02 0.  0.
        -11    1    4    4    0    0  0.31719968209E+02 -0.40099625175E+02  0.92383400334E+02  0.10558801532E+03  0.00000000000E+00 0.  1.
         12    1    4    4    0    0  0.35668655924E+02 -0.26281554400E+02  0.38548021716E+03  0.38801800337E+03  0.00000000000E+00 0. -1.
        -13    1    3    3    0    0 -0.10735590524E+02  0.67163103002E+02  0.70526689737E+02  0.97980351469E+02  0.00000000000E+00 0.  1.
         13    1    3    3    0    0 -0.43294446817E+01 -0.29759752377E+02  0.12000835140E+02  0.32379113589E+02  0.00000000000E+00 0. -1.
         21    1    1    2  502  501 -0.52323588928E+02  0.28977828951E+02 -0.38296775796E+02  0.71021937212E+02  0.00000000000E+00 0.  1.
<scales pt_clust_5="13000.00000" pt_clust_6="13000.00000" pt_clust_7="13000.00000" pt_clust_8="13000.00000" pt_clust_9="59.81198"></scales>
<clustering>
<clus scale="   59.812">  2  9  1 -1</clus>
<clus scale="   79.659">  5  6 -1 -1</clus>
<clus scale="   92.503">  7  8 -1 -1</clus>
<clus scale="  113.198">  1  5  2 -1</clus>
<clus scale="  113.198">  1  5  2 -1</clus>
</clustering>
</event>
<event>
 9    2  0.2869112E-005  0.1441799E+03  0.7546771E-02  0.1210172E+00
         -1   -1    0    0    0  501 -0.00000000000E+00  0.00000000000E+00  0.28464280434E+03  0.28464280434E+03  0.00000000000E+00 0.  1.
          2   -1    0    0  502    0  0.00000000000E+00 -0.00000000000E+00 -0.19324296583E+03  0.19324296583E+03  0.00000000000E+00 0. -1.
         23    2    1    2    0    0  0.89624362552E+02  0.71487642450E+02  0.20715712917E+03  0.25424850513E+03  0.92656445045E+02 0.  0.
         24    2    1    2    0    0 -0.95449797259E+02 -0.15736737631E+02 -0.10965877339E+03  0.16725206317E+03  0.81178182684E+02 0.  0.
        -13    1    4    4    0    0 -0.56626856985E+01 -0.24256843806E+02  0.45939743196E+00  0.24913280128E+02  0.00000000000E+00 0.  1.
         14    1    4    4    0    0 -0.89787111560E+02  0.85201061747E+01 -0.11011817082E+03  0.14233878304E+03  0.00000000000E+00 0. -1.
        -11    1    3    3    0    0  0.29180276343E+02  0.78956543629E+02  0.14188122083E+03  0.16497243749E+03  0.00000000000E+00 0.  1.
         11    1    3    3    0    0  0.60444086209E+02 -0.74689011785E+01  0.65275908345E+02  0.89276067637E+02  0.00000000000E+00 0. -1.
         21    1    1    2  502  501  0.58254347063E+01 -0.55750904819E+02 -0.60985172725E+01  0.56385201876E+02  0.00000000000E+00 0.  1.
<scales pt_clust_5="13000.00000" pt_clust_6="13000.00000" pt_clust_7="13000.00000" pt_clust_8="13000.00000" pt_clust_9="56.05443"></scales>
<clustering>
<clus scale="   56.054">  2  9  1 -1</clus>
<clus scale="   81.178">  5  6 -1 -1</clus>
<clus scale="   92.656">  7  8 -1 -1</clus>
<clus scale="  137.086">  2  5  1 -1</clus>
<clus scale="   56.054">  2  5  1 -1</clus>
</clustering>
</event>
<event>
 9    2  0.2869112E-005  0.1041606E+03  0.7546771E-02  0.1277017E+00
         -1   -1    0    0    0  501 -0.00000000000E+00  0.00000000000E+00  0.47723879318E+02  0.47723879318E+02  0.00000000000E+00 0.  1.
          2   -1    0    0  502    0  0.00000000000E+00 -0.00000000000E+00 -0.95039089574E+03  0.95039089574E+03  0.00000000000E+00 0. -1.
         23    2    1    2    0    0 -0.72122799000E+02 -0.75660441914E+01 -0.31866499985E+03  0.33960935659E+03  0.92348198655E+02 0.  0.
         24    2    1    2    0    0  0.40473739277E+02 -0.47802732969E+01 -0.60939178784E+03  0.61609392212E+03  0.80946866511E+02 0.  0.
        -13    1    4    4    0    0 -0.12809238373E+02  0.24869104736E+02 -0.14085849389E+03  0.14360941563E+03  0.00000000000E+00 0.  1.
         14    1    4    4    0    0  0.53282977651E+02 -0.29649378033E+02 -0.46853329396E+03  0.47248450649E+03  0.00000000000E+00 0. -1.
        -11    1    3    3    0    0 -0.37898837290E+02  0.42202155502E+02 -0.14228904397E+03  0.15317805271E+03  0.00000000000E+00 0.  1.
         11    1    3    3    0    0 -0.34223961710E+02 -0.49768199693E+02 -0.17637595588E+03  0.18643130389E+03  0.00000000000E+00 0. -1.
         21    1    1    2  502  501  0.31649059723E+02  0.12346317488E+02  0.25389771274E+02  0.42411496345E+02  0.00000000000E+00 0. -1.
<scales pt_clust_5="13000.00000" pt_clust_6="13000.00000" pt_clust_7="13000.00000" pt_clust_8="13000.00000" pt_clust_9="33.97197"></scales>
<clustering>
<clus scale="   33.972">  1  9  2 -1</clus>
<clus scale="   80.947">  5  6 -1 -1</clus>
<clus scale="   92.348">  7  8 -1 -1</clus>
<clus scale="   94.200">  2  5  1 -1</clus>
<clus scale="   94.200">  2  5  1 -1</clus>
</clustering>
</event>
<event>
 9    2  0.2869112E-005  0.9440128E+02  0.7546771E-02  0.1295678E+00
          2   -1    0    0  502    0  0.00000000000E+00  0.00000000000E+00  0.57932005903E+03  0.57932005903E+03  0.00000000000E+00 0. -1.
         -1   -1    0    0    0  501 -0.00000000000E+00 -0.00000000000E+00 -0.58246849098E+02  0.58246849098E+02  0.00000000000E+00 0.  1.
         23    2    1    2    0    0 -0.18168674991E+02 -0.33744043318E+02  0.22881823825E+02  0.97206747629E+02  0.86352838475E+02 0.  0.
         24    2    1    2    0    0  0.35890071636E+02  0.15109454191E+02  0.50572640057E+03  0.51356329027E+03  0.80446678187E+02 0.  0.
        -13    1    4    4    0    0  0.60503149868E+01 -0.21231616968E+02  0.41907639811E+02  0.47367057593E+02  0.00000000000E+00 0.  1.
         14    1    4    4    0    0  0.29839756649E+02  0.36341071158E+02  0.46381876076E+03  0.46619623268E+03  0.00000000000E+00 0. -1.
        -11    1    3    3    0    0 -0.18751596297E+02 -0.58333492690E+02  0.34155360002E+02  0.70149892017E+02  0.00000000000E+00 0.  1.
         11    1    3    3    0    0  0.58292130542E+00  0.24589449372E+02 -0.11273536177E+02  0.27056855612E+02  0.00000000000E+00 0. -1.
         21    1    1    2  502  501 -0.17721396644E+02  0.18634589127E+02 -0.75350144659E+01  0.26796870227E+02  0.00000000000E+00 0. -1.
<scales pt_clust_5="13000.00000" pt_clust_6="13000.00000" pt_clust_7="13000.00000" pt_clust_8="13000.00000" pt_clust_9="25.71567"></scales>
<clustering>
<clus scale="   25.716">  2  9  1 -1</clus>
<clus scale="   80.447">  5  6 -1 -1</clus>
<clus scale="   86.353">  7  8 -1 -1</clus>
<clus scale="   89.031">  1  5  2 -1</clus>
<clus scale="   89.031">  1  5  2 -1</clus>
</clustering>
</event>
<event>
 9    2  0.2869112E-005  0.9716317E+02  0.7546771E-02  0.1291470E+00
         -1   -1    0    0    0  501 -0.00000000000E+00  0.00000000000E+00  0.41644007382E+02  0.41644007382E+02  0.00000000000E+00 0.  1.
          2   -1    0    0  502    0  0.00000000000E+00 -0.00000000000E+00 -0.15375583650E+04  0.15375583650E+04  0.00000000000E+00 0. -1.
         23    2    1    2    0    0  0.32166629852E+02 -0.28878304497E+02 -0.46698851673E+02  0.11085508420E+03  0.90771242131E+02 0.  0.
         24    2    1    2    0    0 -0.10189421595E+02  0.33008361929E+02 -0.14422175911E+04  0.14449159871E+04  0.81223478291E+02 0.  0.
        -11    1    4    4    0    0 -0.19122389684E+02  0.94313776130E+01 -0.91050664448E+02  0.93513850136E+02  0.00000000000E+00 0.  1.
         12    1    4    4    0    0  0.89329680886E+01  0.23576984317E+02 -0.13511669267E+04  0.13514021370E+04  0.00000000000E+00 0. -1.
        -13    1    3    3    0    0 -0.75883284422E+01 -0.23115358404E+02 -0.62976029840E+02  0.67512094154E+02  0.00000000000E+00 0. -1.
         13    1    3    3    0    0  0.39754958294E+02 -0.57629460936E+01  0.16277178168E+02  0.43342990042E+02  0.00000000000E+00 0.  1.
         21    1    1    2  502  501 -0.21977208257E+02 -0.41300574323E+01 -0.69979148071E+01  0.23431301048E+02  0.00000000000E+00 0. -1.
<scales pt_clust_5="13000.00000" pt_clust_6="13000.00000" pt_clust_7="13000.00000" pt_clust_8="13000.00000" pt_clust_9="22.36191"></scales>
<clustering>
<clus scale="   22.362">  1  9  2 -1</clus>
<clus scale="   81.223">  5  6 -1 -1</clus>
<clus scale="   88.309">  2  5  1 -1</clus>
<clus scale="   90.771">  7  8 -1 -1</clus>
<clus scale="   88.309">  2  5  1 -1</clus>
</clustering>
</event>
<event>
 9    2  0.2869112E-005  0.1695420E+03  0.7546771E-02  0.1179892E+00
         -1   -1    0    0    0  501 -0.00000000000E+00  0.00000000000E+00  0.35039959121E+02  0.35039959121E+02  0.00000000000E+00 0.  1.
          2   -1    0    0  502    0  0.00000000000E+00 -0.00000000000E+00 -0.12025505405E+04  0.12025505405E+04  0.00000000000E+00 0. -1.
         23    2    1    2    0    0  0.10599171056E+03 -0.71237818587E+02 -0.31664360591E+03  0.35351728768E+03  0.91663678854E+02 0.  0.
         24    2    1    2    0    0 -0.12179669390E+03  0.86645665595E+02 -0.84410488761E+03  0.86098804183E+03  0.80283503140E+02 0.  0.
        -13    1    4    4    0    0 -0.29361509801E+02  0.17611377663E+02 -0.65758911436E+02  0.74138339031E+02  0.00000000000E+00 0.  1.
         14    1    4    4    0    0 -0.92435184100E+02  0.69034287932E+02 -0.77834597618E+03  0.78684970280E+03  0.00000000000E+00 0. -1.
        -11    1    3    3    0    0 -0.29681554275E+01 -0.41617662306E+02 -0.59460756741E+02  0.72638979581E+02  0.00000000000E+00 0. -1.
         11    1    3    3    0    0  0.10895986598E+03 -0.29620156281E+02 -0.25718284917E+03  0.28087830810E+03  0.00000000000E+00 0.  1.
         21    1    1    2  502  501  0.15804983344E+02 -0.15407847008E+02 -0.67620878946E+01  0.23085170145E+02  0.00000000000E+00 0.  1.
<scales pt_clust_5="13000.00000" pt_clust_6="13000.00000" pt_clust_7="13000.00000" pt_clust_8="13000.00000" pt_clust_9="22.07259"></scales>
<clustering>
<clus scale="   22.073">  1  9  2 -1</clus>
<clus scale="   80.284">  5  6 -1 -1</clus>
<clus scale="   91.664">  7  8 -1 -1</clus>
<clus scale="  163.669">  2  5  1 -1</clus>
<clus scale="  163.669">  2  5  1 -1</clus>
</clustering>
</event>
<event>
 9    2  0.2869112E-005  0.1288766E+03  0.7546771E-02  0.1231857E+00
          2   -1    0    0  502    0  0.00000000000E+00  0.00000000000E+00  0.64673924333E+03  0.64673924333E+03  0.00000000000E+00 0. -1.
         -1   -1    0    0    0  501 -0.00000000000E+00 -0.00000000000E+00 -0.34594983325E+02  0.34594983325E+02  0.00000000000E+00 0.  1.
         24    2    1    2    0    0  0.52981879519E+02  0.95692154090E+02  0.21431253814E+03  0.25359449887E+03  0.80101422854E+02 0.  0.
         23    2    1    2    0    0 -0.22852559061E+02 -0.67302404027E+02  0.27394815852E+03  0.29712238158E+03  0.90455862384E+02 0.  0.
        -13    1    3    3    0    0  0.62519340836E+02  0.40318998846E+02  0.87230473260E+02  0.11464486518E+03  0.00000000000E+00 0.  1.
         14    1    3    3    0    0 -0.95374613169E+01  0.55373155243E+02  0.12708206488E+03  0.13894963369E+03  0.00000000000E+00 0. -1.
        -13    1    4    4    0    0 -0.44133887183E+02 -0.53721710100E+02  0.25813337321E+03  0.26733249054E+03  0.00000000000E+00 0. -1.
         13    1    4    4    0    0  0.21281328121E+02 -0.13580693927E+02  0.15814785311E+02  0.29789891047E+02  0.00000000000E+00 0.  1.
         21    1    1    2  502  501 -0.30129320458E+02 -0.28389750063E+02  0.12388356335E+03  0.13061734620E+03  0.00000000000E+00 0. -1.
<scales pt_clust_5="13000.00000" pt_clust_6="13000.00000" pt_clust_7="13000.00000" pt_clust_8="13000.00000" pt_clust_9="41.39751"></scales>
<clustering>
<clus scale="   41.398">  1  9  2 -1</clus>
<clus scale="   80.101">  5  6 -1 -1</clus>
<clus scale="   90.456">  7  8 -1 -1</clus>
<clus scale="  121.832">  2  5  1 -1</clus>
<clus scale="   41.398">  1  5  2 -1</clus>
</clustering>
</event>
<event>
 9    2  0.2869112E-005  0.2484688E+03  0.7546771E-02  0.1115514E+00
         -1   -1    0    0    0  501 -0.00000000000E+00  0.00000000000E+00  0.16520217377E+03  0.16520217377E+03  0.00000000000E+00 0.  1.
          2   -1    0    0  502    0  0.00000000000E+00 -0.00000000000E+00 -0.18386542150E+04  0.18386542150E+04  0.00000000000E+00 0. -1.
         23    2    1    2    0    0  0.15555452695E+03  0.22800417127E+03 -0.28525686506E+03  0.40770599540E+03  0.93110615138E+02 0.  0.
         24    2    1    2    0    0 -0.17936215947E+03 -0.13611590292E+03 -0.14588664959E+04  0.14778089693E+04  0.70210923494E+02 0.  0.
        -13    1    4    4    0    0 -0.80182040396E+02 -0.55181857649E+02 -0.42253963248E+03  0.43360574032E+03  0.00000000000E+00 0.  1.
         14    1    4    4    0    0 -0.99180119074E+02 -0.80934045273E+02 -0.10363268634E+04  0.10442032290E+04  0.00000000000E+00 0. -1.
        -13    1    3    3    0    0 -0.69727468894E+01  0.48117279060E+02 -0.53993055202E+02  0.72657702643E+02  0.00000000000E+00 0. -1.
         13    1    3    3    0    0  0.16252727384E+03  0.17988689221E+03 -0.23126380986E+03  0.33504829276E+03  0.00000000000E+00 0.  1.
         21    1    1    2  502  501  0.23807632525E+02 -0.91888268351E+02  0.70671319668E+02  0.11834142407E+03  0.00000000000E+00 0. -1.
<scales pt_clust_5="13000.00000" pt_clust_6="13000.00000" pt_clust_7="13000.00000" pt_clust_8="13000.00000" pt_clust_9="94.92237"></scales>
<clustering>
<clus scale="   70.211">  5  6 -1 -1</clus>
<clus scale="   93.111">  7  8 -1 -1</clus>
<clus scale="   94.922">  1  9  2 -1</clus>
<clus scale="  240.825">  2  5  1 -1</clus>
<clus scale="  240.825">  2  5  1 -1</clus>
</clustering>
</event>
<event>
 9    2  0.2869112E-005  0.1480545E+03  0.7546771E-02  0.1204648E+00
          2   -1    0    0  502    0  0.00000000000E+00  0.00000000000E+00  0.51509904987E+02  0.51509904987E+02  0.00000000000E+00 0. -1.
         -1   -1    0    0    0  501 -0.00000000000E+00 -0.00000000000E+00 -0.10785440311E+04  0.10785440311E+04  0.00000000000E+00 0.  1.
         23    2    1    2    0    0  0.10559548871E+03  0.10030099741E+02 -0.49728444445E+03  0.51653717939E+03  0.90927602307E+02 0.  0.
         24    2    1    2    0    0 -0.92293938643E+02 -0.84091374786E+02 -0.10564396856E+03  0.18278753830E+03  0.81615596799E+02 0.  0.
        -13    1    4    4    0    0 -0.39758656411E+02  0.62994920797E+01 -0.50520140935E+02  0.64596586598E+02  0.00000000000E+00 0.  1.
         14    1    4    4    0    0 -0.52535282232E+02 -0.90390866866E+02 -0.55123827622E+02  0.11819095170E+03  0.00000000000E+00 0. -1.
        -13    1    3    3    0    0  0.28366802955E+02  0.46155240694E+02 -0.20919700199E+03  0.21609805042E+03  0.00000000000E+00 0.  1.
         13    1    3    3    0    0  0.77228685757E+02 -0.36125140953E+02 -0.28808744246E+03  0.30043912896E+03  0.00000000000E+00 0. -1.
         21    1    1    2  502  501 -0.13301550069E+02  0.74061275045E+02 -0.42410571315E+03  0.43072921845E+03  0.00000000000E+00 0.  1.
<scales pt_clust_5="13000.00000" pt_clust_6="13000.00000" pt_clust_7="13000.00000" pt_clust_8="13000.00000" pt_clust_9="75.24629"></scales>
<clustering>
<clus scale="   75.246">  2  9  1 -1</clus>
<clus scale="   81.616">  5  6 -1 -1</clus>
<clus scale="   90.928">  7  8 -1 -1</clus>
<clus scale="  142.525">  1  5  2 -1</clus>
<clus scale="  142.525">  1  5  2 -1</clus>
</clustering>
</event>
<event>
 9    2  0.2869112E-005  0.1183903E+03  0.7546771E-02  0.1248668E+00
          2   -1    0    0  502    0  0.00000000000E+00  0.00000000000E+00  0.19399123437E+03  0.19399123437E+03  0.00000000000E+00 0. -1.
         -1   -1    0    0    0  501 -0.00000000000E+00 -0.00000000000E+00 -0.22816077202E+03  0.22816077202E+03  0.00000000000E+00 0.  1.
         24    2    1    2    0    0 -0.35469872153E+02 -0.33840350657E+02 -0.17108700855E+03  0.19606819128E+03  0.82272048564E+02 0.  0.
         23    2    1    2    0    0  0.54113407417E+02  0.57041297525E+02  0.15104695522E+03  0.19313677169E+03  0.91129904050E+02 0.  0.
        -13    1    3    3    0    0 -0.58187988243E+02 -0.41837194388E+02 -0.12971750661E+03  0.14819859761E+03  0.00000000000E+00 0.  1.
         14    1    3    3    0    0  0.22718116090E+02  0.79968437315E+01 -0.41369501931E+02  0.47869593673E+02  0.00000000000E+00 0. -1.
        -11    1    4    4    0    0  0.64620497051E+02  0.12950619414E+02  0.51108240999E+02  0.83400116788E+02  0.00000000000E+00 0. -1.
         11    1    4    4    0    0 -0.10507089634E+02  0.44090678111E+02  0.99938714223E+02  0.10973665490E+03  0.00000000000E+00 0.  1.
         21    1    1    2  502  501 -0.18643535264E+02 -0.23200946868E+02 -0.14129484326E+02  0.32947043419E+02  0.00000000000E+00 0.  1.
<scales pt_clust_5="13000.00000" pt_clust_6="13000.00000" pt_clust_7="13000.00000" pt_clust_8="13000.00000" pt_clust_9="29.76349"></scales>
<clustering>
<clus scale="   29.763">  2  9  1 -1</clus>
<clus scale="   82.272">  5  6 -1 -1</clus>
<clus scale="   91.130">  7  8 -1 -1</clus>
<clus scale="  111.715">  2  5  1 -1</clus>
<clus scale="  118.390">  1  5  2 -1</clus>
</clustering>
</event>
<event>
 9    2  0.2869112E-005  0.1642615E+03  0.7546771E-02  0.1186782E+00
         -1   -1    0    0    0  501 -0.00000000000E+00  0.00000000000E+00  0.14656051313E+03  0.14656051313E+03  0.00000000000E+00 0.  1.
          2   -1    0    0  502    0  0.00000000000E+00 -0.00000000000E+00 -0.67829732723E+03  0.67829732723E+03  0.00000000000E+00 0. -1.
         24    2    1    2    0    0 -0.12758345509E+03  0.78691877976E+02  0.66917230415E+02  0.18226481071E+03  0.79199721112E+02 0.  0.
         23    2    1    2    0    0  0.11802553221E+03 -0.56682464049E+02 -0.59662639042E+03  0.61851234087E+03  0.97219021189E+02 0.  0.
        -13    1    3    3    0    0 -0.10547194458E+03  0.55534708664E+02  0.84144085004E+02  0.14590634668E+03  0.00000000000E+00 0.  1.
         14    1    3    3    0    0 -0.22111510505E+02  0.23157169312E+02 -0.17226854589E+02  0.36358464027E+02  0.00000000000E+00 0. -1.
        -11    1    4    4    0    0  0.82035350737E+02 -0.82045546494E+02 -0.37435630043E+03  0.39192334728E+03  0.00000000000E+00 0. -1.
         11    1    4    4    0    0  0.35990181472E+02  0.25363082445E+02 -0.22227009000E+03  0.22658899360E+03  0.00000000000E+00 0.  1.
         21    1    1    2  502  501  0.95579228764E+01 -0.22009413927E+02 -0.20276540881E+01  0.24080688782E+02  0.00000000000E+00 0.  1.
<scales pt_clust_5="13000.00000" pt_clust_6="13000.00000" pt_clust_7="13000.00000" pt_clust_8="13000.00000" pt_clust_9="23.99517"></scales>
<clustering>
<clus scale="   23.995">  1  9  2 -1</clus>
<clus scale="   79.200">  5  6 -1 -1</clus>
<clus scale="   97.219">  7  8 -1 -1</clus>
<clus scale="  154.282">  1  5  2 -1</clus>
<clus scale="  164.261">  2  5  1 -1</clus>
</clustering>
</event>
<event>
 9    2  0.2869112E-005  0.1019482E+03  0.7546771E-02  0.1279564E+00
          2   -1    0    0  502    0  0.00000000000E+00  0.00000000000E+00  0.12202455487E+04  0.12202455487E+04  0.00000000000E+00 0. -1.
         -1   -1    0    0    0  501 -0.00000000000E+00 -0.00000000000E+00 -0.17892266799E+02  0.17892266799E+02  0.00000000000E+00 0.  1.
         23    2    1    2    0    0  0.72773883953E+02  0.71177097587E+01  0.23340888489E+03  0.26005775698E+03  0.88338153936E+02 0.  0.
         24    2    1    2    0    0 -0.46784816319E+02  0.27910630920E+01  0.87799828299E+03  0.88297584688E+03  0.81047838809E+02 0.  0.
        -11    1    4    4    0    0 -0.24527986702E+02  0.10379155049E+02  0.74226083457E+02  0.78859751816E+02  0.00000000000E+00 0.  1.
         12    1    4    4    0    0 -0.22256829617E+02 -0.75880919571E+01  0.80377219953E+03  0.80411609507E+03  0.00000000000E+00 0. -1.
        -13    1    3    3    0    0 -0.12064107133E+02 -0.16950508296E+02  0.18816954021E+02  0.28052453922E+02  0.00000000000E+00 0. -1.
         13    1    3    3    0    0  0.84837991086E+02  0.24068218055E+02  0.21459193087E+03  0.23200530306E+03  0.00000000000E+00 0.  1.
         21    1    1    2  502  501 -0.25989067634E+02 -0.99087728507E+01  0.90946114032E+02  0.95104211649E+02  0.00000000000E+00 0. -1.
<scales pt_clust_5="13000.00000" pt_clust_6="13000.00000" pt_clust_7="13000.00000" pt_clust_8="13000.00000" pt_clust_9="27.81394"></scales>
<clustering>
<clus scale="   27.814">  2  9  1 -1</clus>
<clus scale="   81.048">  5  6 -1 -1</clus>
<clus scale="   88.338">  7  8 -1 -1</clus>
<clus scale="   95.700">  1  5  2 -1</clus>
<clus scale="   95.700">  1  5  2 -1</clus>
</clustering>
</event>
<event>
 9    2  0.2869112E-005  0.9459179E+02  0.7546771E-02  0.1299495E+00
         -1   -1    0    0    0  501 -0.00000000000E+00  0.00000000000E+00  0.84101511905E+02  0.84101511905E+02  0.00000000000E+00 0.  1.
          2   -1    0    0  502    0  0.00000000000E+00 -0.00000000000E+00 -0.10375079961E+04  0.10375079961E+04  0.00000000000E+00 0. -1.
         23    2    1    2    0    0 -0.47598584842E+02 -0.55867518453E+01 -0.35924902632E+02  0.98703199730E+02  0.78453081091E+02 0.  0.
         24    2    1    2    0    0  0.23633436602E+02  0.22591290692E+01 -0.96499970340E+03  0.96958301789E+03  0.91121666037E+02 0.  0.
        -11    1    4    4    0    0  0.71655715700E+01  0.27856886571E+02 -0.10017219919E+03  0.10422006062E+03  0.00000000000E+00 0.  1.
         12    1    4    4    0    0  0.16467865032E+02 -0.25597757501E+02 -0.86482750422E+03  0.86536295727E+03  0.00000000000E+00 0. -1.
        -13    1    3    3    0    0 -0.64159521107E+02 -0.20643139738E+02 -0.17295330830E+02  0.69582410389E+02  0.00000000000E+00 0.  1.
         13    1    3    3    0    0  0.16560936266E+02  0.15056387892E+02 -0.18629571802E+02  0.29120789342E+02  0.00000000000E+00 0. -1.
         21    1    1    2  502  501  0.23965148240E+02  0.33276227762E+01  0.47518121794E+02  0.53323290431E+02  0.00000000000E+00 0. -1.
<scales pt_clust_5="13000.00000" pt_clust_6="13000.00000" pt_clust_7="13000.00000" pt_clust_8="13000.00000" pt_clust_9="24.19507"></scales>
<clustering>
<clus scale="   24.195">  1  9  2 -1</clus>
<clus scale="   78.453">  7  8 -1 -1</clus>
<clus scale="   82.458">  1  7  2 -1</clus>
<clus scale="   91.122">  5  6 -1 -1</clus>
<clus scale="   94.592">  2  5  1 -1</clus>
</clustering>
</event>
<event>
 9    2  0.2869112E-005  0.9126636E+02  0.7546771E-02  0.1305226E+00
          2   -1    0    0  502    0  0.00000000000E+00  0.00000000000E+00  0.10899294063E+03  0.10899294063E+03  0.00000000000E+00 0. -1.
         -1   -1    0    0    0  501 -0.00000000000E+00 -0.00000000000E+00 -0.30073278849E+03  0.30073278849E+03  0.00000000000E+00 0.  1.
         23    2    1    2    0    0  0.12887789994E+02  0.23121010811E+02 -0.25315928423E+03  0.26931137352E+03  0.87967701131E+02 0.  0.
         24    2    1    2    0    0 -0.42959022192E+01  0.28984773609E+01  0.75697193280E+02  0.10951631937E+03  0.78974066573E+02 0.  0.
        -11    1    4    4    0    0 -0.21231301718E+02  0.36089238986E+02  0.39142756611E+02  0.57318031528E+02  0.00000000000E+00 0.  1.
         12    1    4    4    0    0  0.16935399499E+02 -0.33190761625E+02  0.36554436670E+02  0.52198287842E+02  0.00000000000E+00 0. -1.
        -13    1    3    3    0    0  0.46359574446E+02  0.26030076807E+01 -0.18417272000E+03  0.18993571697E+03  0.00000000000E+00 0.  1.
         13    1    3    3    0    0 -0.33471784452E+02  0.20518003130E+02 -0.68986564236E+02  0.79375656545E+02  0.00000000000E+00 0. -1.
         21    1    1    2  502  501 -0.85918877748E+01 -0.26019488172E+02 -0.14277756911E+02  0.30898036227E+02  0.00000000000E+00 0.  1.
<scales pt_clust_5="13000.00000" pt_clust_6="13000.00000" pt_clust_7="13000.00000" pt_clust_8="13000.00000" pt_clust_9="27.40136"></scales>
<clustering>
<clus scale="   27.401">  1  9  2 -1</clus>
<clus scale="   78.974">  5  6 -1 -1</clus>
<clus scale="   82.633">  1  5  2 -1</clus>
<clus scale="   87.968">  7  8 -1 -1</clus>
<clus scale="   27.401">  1  5  2 -1</clus>
</clustering>
</event>
<event>
 9    2  0.2869112E-005  0.9244577E+02  0.7546771E-02  0.1301244E+00
          2   -1    0    0  502    0  0.00000000000E+00  0.00000000000E+00  0.31777709957E+03  0.31777709957E+03  0.00000000000E+00 0. -1.
         -1   -1    0    0    0  501 -0.00000000000E+00 -0.00000000000E+00 -0.11189497256E+03  0.11189497256E+03  0.00000000000E+00 0.  1.
         23    2    1    2    0    0  0.21408623059E+01 -0.94711429144E+01 -0.57212660576E+02  0.10505860576E+03  0.87577030523E+02 0.  0.
         24    2    1    2    0    0  0.22285569192E+02  0.22338885523E+02  0.27949997766E+03  0.29249867823E+03  0.80246911827E+02 0.  0.
        -11    1    4    4    0    0  0.40103135527E+02 -0.16236362345E+02  0.15626575968E+03  0.16214459161E+03  0.00000000000E+00 0.  1.
         12    1    4    4    0    0 -0.17817566335E+02  0.38575247867E+02  0.12323421798E+03  0.13035408662E+03  0.00000000000E+00 0. -1.
        -13    1    3    3    0    0  0.11885920824E+02  0.16734466901E+02 -0.70983997079E+02  0.73892119590E+02  0.00000000000E+00 0.  1.
         13    1    3    3    0    0 -0.97450585179E+01 -0.26205609815E+02  0.13771336502E+02  0.31166486173E+02  0.00000000000E+00 0. -1.
         21    1    1    2  502  501 -0.24426431498E+02 -0.12867742608E+02 -0.16405190064E+02  0.32114788130E+02  0.00000000000E+00 0. -1.
<scales pt_clust_5="13000.00000" pt_clust_6="13000.00000" pt_clust_7="13000.00000" pt_clust_8="13000.00000" pt_clust_9="27.60850"></scales>
<clustering>
<clus scale="   27.609">  2  9  1 -1</clus>
<clus scale="   80.247">  5  6 -1 -1</clus>
<clus scale="   85.534">  1  5  2 -1</clus>
<clus scale="   87.577">  7  8 -1 -1</clus>
<clus scale="   85.534">  1  5  2 -1</clus>
</clustering>
</event>
<event>
 9    2  0.2869112E-005  0.8605403E+02  0.7546771E-02  0.1316182E+00
          2   -1    0    0  502    0  0.00000000000E+00  0.00000000000E+00  0.48070036566E+03  0.48070036566E+03  0.00000000000E+00 0. -1.
         -1   -1    0    0    0  501 -0.00000000000E+00 -0.00000000000E+00 -0.41897675316E+02  0.41897675316E+02  0.00000000000E+00 0.  1.
         23    2    1    2    0    0 -0.12162842508E+02  0.74935665067E+00  0.41037704806E+02  0.95399206956E+02  0.85255024478E+02 0.  0.
         24    2    1    2    0    0 -0.13564890380E+02 -0.66289794523E+01  0.39177337752E+03  0.40013621089E+03  0.79966607487E+02 0.  0.
        -13    1    4    4    0    0  0.29953169602E+02 -0.15552949366E+02  0.11608951445E+03  0.12089607921E+03  0.00000000000E+00 0.  1.
         14    1    4    4    0    0 -0.43518059983E+02  0.89239699133E+01  0.27568386308E+03  0.27924013169E+03  0.00000000000E+00 0. -1.
        -11    1    3    3    0    0  0.36050523712E+02  0.56897849507E+01  0.25428785474E+02  0.44481873200E+02  0.00000000000E+00 0.  1.
         11    1    3    3    0    0 -0.48213366221E+02 -0.49404283000E+01  0.15608919332E+02  0.50917333756E+02  0.00000000000E+00 0. -1.
         21    1    1    2  502  501  0.25727732889E+02  0.58796228016E+01  0.59916080146E+01  0.27062623126E+02  0.00000000000E+00 0.  1.
<scales pt_clust_5="13000.00000" pt_clust_6="13000.00000" pt_clust_7="13000.00000" pt_clust_8="13000.00000" pt_clust_9="26.39103"></scales>
<clustering>
<clus scale="   26.391">  2  9  1 -1</clus>
<clus scale="   79.967">  5  6 -1 -1</clus>
<clus scale="   80.818">  1  5  2 -1</clus>
<clus scale="   85.255">  7  8 -1 -1</clus>
<clus scale="   80.818">  1  5  2 -1</clus>
</clustering>
</event>
<event>
 9    2  0.2869112E-005  0.9769169E+02  0.7546771E-02  0.1290342E+00
          2   -1    0    0  502    0  0.00000000000E+00  0.00000000000E+00  0.39730742847E+02  0.39730742847E+02  0.00000000000E+00 0. -1.
         -1   -1    0    0    0  501 -0.00000000000E+00 -0.00000000000E+00 -0.61203362031E+03  0.61203362031E+03  0.00000000000E+00 0.  1.
         23    2    1    2    0    0 -0.59184496148E+02  0.40030147790E+02 -0.21843903376E+03  0.24674233028E+03  0.89782786568E+02 0.  0.
         24    2    1    2    0    0  0.14993386700E+02 -0.24752129391E+02 -0.52223999737E+02  0.99779723447E+02  0.79944840412E+02 0.  0.
        -13    1    4    4    0    0 -0.87382567160E+01  0.26722643674E+02 -0.20773663980E+02  0.34957144198E+02  0.00000000000E+00 0.  1.
         14    1    4    4    0    0  0.23731643416E+02 -0.51474773064E+02 -0.31450335757E+02  0.64822579249E+02  0.00000000000E+00 0. -1.
        -13    1    3    3    0    0 -0.25408115809E+02  0.60345544173E+02 -0.18060434978E+03  0.19210697075E+03  0.00000000000E+00 0.  1.
         13    1    3    3    0    0 -0.33776380339E+02 -0.20315396383E+02 -0.37834683981E+02  0.54635359530E+02  0.00000000000E+00 0. -1.
         21    1    1    2  502  501  0.44191109449E+02 -0.15278018399E+02 -0.30163984396E+03  0.30524230943E+03  0.00000000000E+00 0. -1.
<scales pt_clust_5="13000.00000" pt_clust_6="13000.00000" pt_clust_7="13000.00000" pt_clust_8="13000.00000" pt_clust_9="46.75759"></scales>
<clustering>
<clus scale="   46.758">  2  9  1 -1</clus>
<clus scale="   79.945">  5  6 -1 -1</clus>
<clus scale="   88.735">  1  5  2 -1</clus>
<clus scale="   89.783">  7  8 -1 -1</clus>
<clus scale="   88.735">  1  5  2 -1</clus>
</clustering>
</event>
<event>
 9    2  0.2869112E-005  0.1654078E+03  0.7546771E-02  0.1184155E+00
          2   -1    0    0  502    0  0.00000000000E+00  0.00000000000E+00  0.64802902048E+03  0.64802902048E+03  0.00000000000E+00 0. -1.
         -1   -1    0    0    0  501 -0.00000000000E+00 -0.00000000000E+00 -0.67056119601E+02  0.67056119601E+02  0.00000000000E+00 0.  1.
         23    2    1    2    0    0 -0.12803200268E+03  0.10356224769E+01  0.10226220368E+03  0.18737158810E+03  0.90869618139E+02 0.  0.
         24    2    1    2    0    0  0.14068455018E+03  0.16999950190E+02  0.47861518129E+03  0.50568225690E+03  0.80999458159E+02 0.  0.
        -13    1    4    4    0    0  0.28889853518E+02 -0.19767467639E+02  0.48865944728E+02  0.60110373209E+02  0.00000000000E+00 0.  1.
         14    1    4    4    0    0  0.11179469666E+03  0.36767417829E+02  0.42974923656E+03  0.44557188369E+03  0.00000000000E+00 0. -1.
        -11    1    3    3    0    0 -0.12045509540E+03  0.22883287234E+02  0.54238432471E+02  0.13407043820E+03  0.00000000000E+00 0.  1.
         11    1    3    3    0    0 -0.75769072841E+01 -0.21847664757E+02  0.48023771214E+02  0.53301149903E+02  0.00000000000E+00 0. -1.
         21    1    1    2  502  501 -0.12652547497E+02 -0.18035572667E+02  0.95515911683E-01  0.22031295080E+02  0.00000000000E+00 0. -1.
<scales pt_clust_5="13000.00000" pt_clust_6="13000.00000" pt_clust_7="13000.00000" pt_clust_8="13000.00000" pt_clust_9="22.03109"></scales>
<clustering>
<clus scale="   22.031">  2  9  1 -1</clus>
<clus scale="   80.999">  5  6 -1 -1</clus>
<clus scale="   90.870">  7  8 -1 -1</clus>
<clus scale="  160.198">  1  5  2 -1</clus>
<clus scale="  160.198">  1  5  2 -1</clus>
</clustering>
</event>
<event>
 9    2  0.2869112E-005  0.9769191E+02  0.7546771E-02  0.1294353E+00
         -1   -1    0    0    0  501 -0.00000000000E+00  0.00000000000E+00  0.95716929262E+02  0.95716929262E+02  0.00000000000E+00 0.  1.
          2   -1    0    0  502    0  0.00000000000E+00 -0.00000000000E+00 -0.80800208323E+03  0.80800208323E+03  0.00000000000E+00 0. -1.
         23    2    1    2    0    0  0.43798422754E+02 -0.40097180375E+02  0.38022808895E+02  0.11745265899E+03  0.93932461898E+02 0.  0.
         24    2    1    2    0    0 -0.16281099106E+02  0.20167615731E+02 -0.74770293020E+03  0.75219030850E+03  0.77838174809E+02 0.  0.
        -13    1    4    4    0    0 -0.37088624298E+02 -0.88828108682E+01 -0.22018004942E+03  0.22345855218E+03  0.00000000000E+00 0.  1.
         14    1    4    4    0    0  0.20807525192E+02  0.29050426599E+02 -0.52752288078E+03  0.52873175631E+03  0.00000000000E+00 0. -1.
        -11    1    3    3    0    0 -0.19735012926E+02  0.11073249273E+02  0.26848771056E+02  0.35113303631E+02  0.00000000000E+00 0.  1.
         11    1    3    3    0    0  0.63533435681E+02 -0.51170429648E+02  0.11174037839E+02  0.82339355362E+02  0.00000000000E+00 0. -1.
         21    1    1    2  502  501 -0.27517323649E+02  0.19929564645E+02 -0.26050326632E+01  0.34076045001E+02  0.00000000000E+00 0. -1.
<scales pt_clust_5="13000.00000" pt_clust_6="13000.00000" pt_clust_7="13000.00000" pt_clust_8="13000.00000" pt_clust_9="33.97632"></scales>
<clustering>
<clus scale="   33.976">  1  9  2 -1</clus>
<clus scale="   77.838">  5  6 -1 -1</clus>
<clus scale="   82.336">  2  5  1 -1</clus>
<clus scale="   93.932">  7  8 -1 -1</clus>
<clus scale="   82.336">  2  5  1 -1</clus>
</clustering>
</event>
<event>
 9    2  0.2869112E-005  0.1046972E+03  0.7546771E-02  0.1275650E+00
         -1   -1    0    0    0  501 -0.00000000000E+00  0.00000000000E+00  0.21583014718E+03  0.21583014718E+03  0.00000000000E+00 0.  1.
          2   -1    0    0  502    0  0.00000000000E+00 -0.00000000000E+00 -0.97180977010E+02  0.97180977010E+02  0.00000000000E+00 0. -1.
         23    2    1    2    0    0 -0.20778692446E+02 -0.54935464059E+02  0.13572482900E+03  0.17370106610E+03  0.91110767133E+02 0.  0.
         24    2    1    2    0    0  0.41609641521E+02  0.13795338769E+02 -0.18762398772E+02  0.93165898765E+02  0.80038637205E+02 0.  0.
        -11    1    4    4    0    0 -0.15717889787E+02  0.27873527866E+02 -0.34767303458E+01  0.32188092037E+02  0.00000000000E+00 0.  1.
         12    1    4    4    0    0  0.57327531308E+02 -0.14078189098E+02 -0.15285668427E+02  0.60977806728E+02  0.00000000000E+00 0. -1.
        -13    1    3    3    0    0 -0.46028364461E+02 -0.61682460163E+02  0.74427071928E+02  0.10706411753E+03  0.00000000000E+00 0.  1.
         13    1    3    3    0    0  0.25249672015E+02  0.67469961040E+01  0.61297757071E+02  0.66636948573E+02  0.00000000000E+00 0. -1.
         21    1    1    2  502  501 -0.20830949075E+02  0.41140125290E+02  0.16867399491E+01  0.46144159326E+02  0.00000000000E+00 0. -1.
<scales pt_clust_5="13000.00000" pt_clust_6="13000.00000" pt_clust_7="13000.00000" pt_clust_8="13000.00000" pt_clust_9="46.11332"></scales>
<clustering>
<clus scale="   46.113">  2  9  1 -1</clus>
<clus scale="   80.039">  5  6 -1 -1</clus>
<clus scale="   91.111">  7  8 -1 -1</clus>
<clus scale="   95.218">  2  5  1 -1</clus>
<clus scale="   46.113">  2  5  1 -1</clus>
</clustering>
</event>
<event>
 9    2  0.2869112E-005  0.9257716E+02  0.7546771E-02  0.1303500E+00
          2   -1    0    0  502    0  0.00000000000E+00  0.00000000000E+00  0.19492267354E+03  0.19492267354E+03  0.00000000000E+00 0. -1.
         -1   -1    0    0    0  501 -0.00000000000E+00 -0.00000000000E+00 -0.97796345793E+02  0.97796345793E+02  0.00000000000E+00 0.  1.
         23    2    1    2    0    0  0.98920611793E+01 -0.14365182414E+02 -0.16236871739E+02  0.94644281863E+02  0.91595265955E+02 0.  0.
         24    2    1    2    0    0  0.10860749150E+02  0.10594035576E+02  0.14111473604E+03  0.16321719214E+03  0.80599588205E+02 0.  0.
        -13    1    4    4    0    0  0.18364078260E+02 -0.19626446353E+02  0.10359514585E+02  0.28805490957E+02  0.00000000000E+00 0.  1.
         14    1    4    4    0    0 -0.75033291104E+01  0.30220481930E+02  0.13075522146E+03  0.13441170118E+03  0.00000000000E+00 0. -1.
        -11    1    3    3    0    0  0.23397589377E+01 -0.41999307305E+02 -0.39528661540E+02  0.57722884276E+02  0.00000000000E+00 0.  1.
         11    1    3    3    0    0  0.75523022416E+01  0.27634124891E+02  0.23291789801E+02  0.36921397587E+02  0.00000000000E+00 0. -1.
         21    1    1    2  502  501 -0.20752810329E+02  0.37711468376E+01 -0.27751536559E+02  0.34857545330E+02  0.00000000000E+00 0.  1.
<scales pt_clust_5="13000.00000" pt_clust_6="13000.00000" pt_clust_7="13000.00000" pt_clust_8="13000.00000" pt_clust_9="21.09267"></scales>
<clustering>
<clus scale="   21.093">  2  9  1 -1</clus>
<clus scale="   80.600">  5  6 -1 -1</clus>
<clus scale="   81.714">  1  5  2 -1</clus>
<clus scale="   91.595">  7  8 -1 -1</clus>
<clus scale="   81.714">  1  5  2 -1</clus>
</clustering>
</event>
<event>
 9    2  0.2869112E-005  0.1268882E+03  0.7546771E-02  0.1236067E+00
          2   -1    0    0  502    0  0.00000000000E+00  0.00000000000E+00  0.87436239905E+03  0.87436239905E+03  0.00000000000E+00 0. -1.
         -1   -1    0    0    0  501 -0.00000000000E+00 -0.00000000000E+00 -0.28593620349E+02  0.28593620349E+02  0.00000000000E+00 0.  1.
         23    2    1    2    0    0  0.93682801205E+02  0.33099270229E+02  0.30366232610E+03  0.33237807955E+03  0.91609773156E+02 0.  0.
         24    2    1    2    0    0 -0.81921923741E+02 -0.15241630446E+02  0.53655695731E+03  0.54848698163E+03  0.77466713477E+02 0.  0.
        -11    1    4    4    0    0 -0.64797916622E+02  0.19761007353E+02  0.23989195166E+03  0.24927377696E+03  0.00000000000E+00 0.  1.
         12    1    4    4    0    0 -0.17124007119E+02 -0.35002637798E+02  0.29666500564E+03  0.29921320467E+03  0.00000000000E+00 0. -1.
        -11    1    3    3    0    0  0.99354428569E+01  0.29006208662E+02  0.20058098792E+02  0.36638783998E+02  0.00000000000E+00 0.  1.
         11    1    3    3    0    0  0.83747358348E+02  0.40930615677E+01  0.28360422731E+03  0.29573929555E+03  0.00000000000E+00 0. -1.
         21    1    1    2  502  501 -0.11760877464E+02 -0.17857639784E+02  0.55494952985E+01  0.22090958228E+02  0.00000000000E+00 0. -1.
<scales pt_clust_5="13000.00000" pt_clust_6="13000.00000" pt_clust_7="13000.00000" pt_clust_8="13000.00000" pt_clust_9="21.38255"></scales>
<clustering>
<clus scale="   21.383">  2  9  1 -1</clus>
<clus scale="   77.467">  5  6 -1 -1</clus>
<clus scale="   91.610">  7  8 -1 -1</clus>
<clus scale="  117.087">  1  5  2 -1</clus>
<clus scale="  117.087">  1  5  2 -1</clus>
</clustering>
</event>
<event>
 9    2  0.2869112E-005  0.1056349E+03  0.7546771E-02  0.1271743E+00
         -1   -1    0    0    0  501 -0.00000000000E+00  0.00000000000E+00  0.66381212394E+02  0.66381212394E+02  0.00000000000E+00 0.  1.
          2   -1    0    0  502    0  0.00000000000E+00 -0.00000000000E+00 -0.39752118954E+03  0.39752118954E+03  0.00000000000E+00 0. -1.
         23    2    1    2    0    0  0.49416862802E+02  0.33561060800E+02 -0.19642702220E+02  0.10854403354E+03  0.88473726812E+02 0.  0.
         24    2    1    2    0    0 -0.29725336000E+02 -0.50043540741E+02 -0.31395376527E+03  0.32956180432E+03  0.81584707924E+02 0.  0.
        -11    1    4    4    0    0 -0.20463853952E+02  0.79375179819E+00 -0.13118150316E+02  0.24320469325E+02  0.00000000000E+00 0.  1.
         12    1    4    4    0    0 -0.92614820483E+01 -0.50837292539E+02 -0.30083561496E+03  0.30524133500E+03  0.00000000000E+00 0. -1.
        -11    1    3    3    0    0  0.13261822345E+02  0.48704734630E+02  0.18585549157E+02  0.53790796097E+02  0.00000000000E+00 0.  1.
         11    1    3    3    0    0  0.36155040457E+02 -0.15143673830E+02 -0.38228251376E+02  0.54753237446E+02  0.00000000000E+00 0. -1.
         21    1    1    2  502  501 -0.19691526802E+02  0.16482479941E+02  0.24564903510E+01  0.25796564067E+02  0.00000000000E+00 0.  1.
<scales pt_clust_5="13000.00000" pt_clust_6="13000.00000" pt_clust_7="13000.00000" pt_clust_8="13000.00000" pt_clust_9="25.67934"></scales>
<clustering>
<clus scale="   25.679">  1  9  2 -1</clus>
<clus scale="   81.585">  5  6 -1 -1</clus>
<clus scale="   88.474">  7  8 -1 -1</clus>
<clus scale="   99.936">  2  5  1 -1</clus>
<clus scale="   99.936">  2  5  1 -1</clus>
</clustering>
</event>
<event>
 9    2  0.2869112E-005  0.1058045E+03  0.7546771E-02  0.1273774E+00
         -1   -1    0    0    0  501 -0.00000000000E+00  0.00000000000E+00  0.15780706961E+03  0.15780706961E+03  0.00000000000E+00 0.  1.
          2   -1    0    0  502    0  0.00000000000E+00 -0.00000000000E+00 -0.11359502918E+04  0.11359502918E+04  0.00000000000E+00 0. -1.
         23    2    1    2    0    0  0.26393756249E+02 -0.99385835083E+01 -0.38869058358E+02  0.10325075382E+03  0.91403001347E+02 0.  0.
         24    2    1    2    0    0 -0.54897731389E+02 -0.58310153435E+01 -0.10605400983E+04  0.10649415499E+04  0.79419412111E+02 0.  0.
        -11    1    4    4    0    0 -0.26583520446E+02  0.56309380465E+01 -0.92228205071E+02  0.96147973631E+02  0.00000000000E+00 0.  1.
         12    1    4    4    0    0 -0.28314210943E+02 -0.11461953390E+02 -0.96831189323E+03  0.96879357630E+03  0.00000000000E+00 0. -1.
        -11    1    3    3    0    0 -0.81344851950E+00 -0.34202729548E+02 -0.53881399407E+02  0.63825493411E+02  0.00000000000E+00 0. -1.
         11    1    3    3    0    0  0.27207204768E+02  0.24264146040E+02  0.15012341050E+02  0.39425260407E+02  0.00000000000E+00 0.  1.
         21    1    1    2  502  501  0.28503975140E+02  0.15769598852E+02  0.12126593446E+03  0.12556505767E+03  0.00000000000E+00 0.  1.
<scales pt_clust_5="13000.00000" pt_clust_6="13000.00000" pt_clust_7="13000.00000" pt_clust_8="13000.00000" pt_clust_9="32.57540"></scales>
<clustering>
<clus scale="   32.575">  1  9  2 -1</clus>
<clus scale="   79.419">  5  6 -1 -1</clus>
<clus scale="   91.403">  7  8 -1 -1</clus>
<clus scale="   95.643">  2  5  1 -1</clus>
<clus scale="   95.643">  2  5  1 -1</clus>
</clustering>
</event>
<event>
 9    2  0.2869112E-005  0.9609260E+02  0.7546771E-02  0.1297803E+00
         -1   -1    0    0    0  501 -0.00000000000E+00  0.00000000000E+00  0.18825893027E+03  0.18825893027E+03  0.00000000000E+00 0.  1.
          2   -1    0    0  502    0  0.00000000000E+00 -0.00000000000E+00 -0.62558061621E+03  0.62558061621E+03  0.00000000000E+00 0. -1.
         23    2    1    2    0    0 -0.31273145627E+02 -0.57956878794E+02  0.94032763539E+01  0.11599720445E+03  0.95025893298E+02 0.  0.
         24    2    1    2    0    0  0.97044106088E+01  0.72792798111E+01 -0.56321852628E+03  0.56898513495E+03  0.79886243838E+02 0.  0.
        -13    1    4    4    0    0  0.80938268007E+01  0.34142108969E+02 -0.12197171204E+03  0.12691844695E+03  0.00000000000E+00 0.  1.
         14    1    4    4    0    0  0.16105838081E+01 -0.26862829158E+02 -0.44124681423E+03  0.44206668800E+03  0.00000000000E+00 0. -1.
        -11    1    3    3    0    0  0.82582324340E+01 -0.56953418018E+02  0.36420115283E+02  0.68105176192E+02  0.00000000000E+00 0. -1.
         11    1    3    3    0    0 -0.39531378061E+02 -0.10034607758E+01 -0.27016838929E+02  0.47892028258E+02  0.00000000000E+00 0.  1.
         21    1    1    2  502  501  0.21568735019E+02  0.50677598983E+02  0.11649356398E+03  0.12885720708E+03  0.00000000000E+00 0.  1.
<scales pt_clust_5="13000.00000" pt_clust_6="13000.00000" pt_clust_7="13000.00000" pt_clust_8="13000.00000" pt_clust_9="55.07658"></scales>
<clustering>
<clus scale="   55.077">  1  9  2 -1</clus>
<clus scale="   79.886">  5  6 -1 -1</clus>
<clus scale="   81.152">  2  5  1 -1</clus>
<clus scale="   95.026">  7  8 -1 -1</clus>
<clus scale="   81.152">  2  5  1 -1</clus>
</clustering>
</event>
<event>
 9    2  0.2869112E-005  0.9222505E+02  0.7546771E-02  0.1303154E+00
         -1   -1    0    0    0  501 -0.00000000000E+00  0.00000000000E+00  0.10152569732E+03  0.10152569732E+03  0.00000000000E+00 0.  1.
          2   -1    0    0  502    0  0.00000000000E+00 -0.00000000000E+00 -0.56537685175E+03  0.56537685175E+03  0.00000000000E+00 0. -1.
         23    2    1    2    0    0  0.26467680745E+02  0.18216880541E+02  0.62659500349E+02  0.11453377622E+03  0.90329286776E+02 0.  0.
         24    2    1    2    0    0  0.60203687187E+01 -0.17957209743E+02 -0.50840217052E+03  0.51517390777E+03  0.81072079238E+02 0.  0.
        -11    1    4    4    0    0  0.21377946853E+02 -0.31768970945E+01 -0.33965709570E+02  0.40258896077E+02  0.00000000000E+00 0.  1.
         12    1    4    4    0    0 -0.15357578134E+02 -0.14780312649E+02 -0.47443646095E+03  0.47491501169E+03  0.00000000000E+00 0. -1.
        -13    1    3    3    0    0  0.49732300887E+02  0.39517779121E+02  0.34691604519E+02  0.72377234282E+02  0.00000000000E+00 0.  1.
         13    1    3    3    0    0 -0.23264620142E+02 -0.21300898580E+02  0.27967895831E+02  0.42156541934E+02  0.00000000000E+00 0. -1.
         21    1    1    2  502  501 -0.32488049464E+02 -0.25967079731E+00 -0.18108484260E+02  0.37194865090E+02  0.00000000000E+00 0. -1.
<scales pt_clust_5="13000.00000" pt_clust_6="13000.00000" pt_clust_7="13000.00000" pt_clust_8="13000.00000" pt_clust_9="32.48909"></scales>
<clustering>
<clus scale="   32.489">  1  9  2 -1</clus>
<clus scale="   81.072">  5  6 -1 -1</clus>
<clus scale="   83.179">  2  5  1 -1</clus>
<clus scale="   90.329">  7  8 -1 -1</clus>
<clus scale="   83.179">  2  5  1 -1</clus>
</clustering>
</event>
<event>
 9    2  0.2869112E-005  0.9881043E+02  0.7546771E-02  0.1287016E+00
          2   -1    0    0  502    0  0.00000000000E+00  0.00000000000E+00  0.14371582140E+03  0.14371582140E+03  0.00000000000E+00 0. -1.
         -1   -1    0    0    0  501 -0.00000000000E+00 -0.00000000000E+00 -0.89772591694E+02  0.89772591694E+02  0.00000000000E+00 0.  1.
         23    2    1    2    0    0  0.44031420254E+02  0.17195702056E+02 -0.12178139374E+02  0.10050942551E+03  0.87859998852E+02 0.  0.
         24    2    1    2    0    0 -0.28557389115E+02 -0.35303364178E+02  0.55394380582E+02  0.10685617477E+03  0.79295981559E+02 0.  0.
        -13    1    4    4    0    0  0.27857588730E+02 -0.11769164735E+02  0.19004459174E+02  0.35717334123E+02  0.00000000000E+00 0.  1.
         14    1    4    4    0    0 -0.56414977845E+02 -0.23534199444E+02  0.36389921409E+02  0.71138840649E+02  0.00000000000E+00 0. -1.
        -13    1    3    3    0    0  0.26179916150E+02 -0.30738582993E+02 -0.25369925804E+02  0.47685234920E+02  0.00000000000E+00 0.  1.
         13    1    3    3    0    0  0.17851504104E+02  0.47934285049E+02  0.13191786430E+02  0.52824190587E+02  0.00000000000E+00 0. -1.
         21    1    1    2  502  501 -0.15474031139E+02  0.18107662123E+02  0.10726988500E+02  0.26122812818E+02  0.00000000000E+00 0. -1.
<scales pt_clust_5="13000.00000" pt_clust_6="13000.00000" pt_clust_7="13000.00000" pt_clust_8="13000.00000" pt_clust_9="23.81875"></scales>
<clustering>
<clus scale="   23.819">  1  9  2 -1</clus>
<clus scale="   79.296">  5  6 -1 -1</clus>
<clus scale="   87.860">  7  8 -1 -1</clus>
<clus scale="   91.280">  1  5  2 -1</clus>
<clus scale="   23.819">  1  5  2 -1</clus>
</clustering>
</event>
<event>
 9    2  0.2869112E-005  0.1399854E+03  0.7546771E-02  0.1213474E+00
         -1   -1    0    0    0  501 -0.00000000000E+00  0.00000000000E+00  0.42168845865E+02  0.42168845865E+02  0.00000000000E+00 0.  1.
          2   -1    0    0  502    0  0.00000000000E+00 -0.00000000000E+00 -0.75521745056E+03  0.75521745056E+03  0.00000000000E+00 0. -1.
         23    2    1    2    0    0 -0.23696481206E+02 -0.95982592061E+02 -0.18026271532E+03  0.22398093408E+03  0.88874243164E+02 0.  0.
         24    2    1    2    0    0  0.74065090113E+02  0.89692790613E+02 -0.47273346163E+03  0.49477424609E+03  0.88284735866E+02 0.  0.
        -11    1    4    4    0    0  0.46642213352E+02 -0.49666704027E+01 -0.13263825342E+03  0.14068784649E+03  0.00000000000E+00 0.  1.
         12    1    4    4    0    0  0.27422876760E+02  0.94659461015E+02 -0.34009520821E+03  0.35408639960E+03  0.00000000000E+00 0. -1.
        -11    1    3    3    0    0  0.31419454172E+02 -0.46386400789E+02 -0.55580235266E+02  0.78917949991E+02  0.00000000000E+00 0.  1.
         11    1    3    3    0    0 -0.55115935378E+02 -0.49596191271E+02 -0.12468248005E+03  0.14506298409E+03  0.00000000000E+00 0. -1.
         21    1    1    2  502  501 -0.50368608906E+02  0.62898014479E+01 -0.60052427755E+02  0.78631116262E+02  0.00000000000E+00 0. -1.
<scales pt_clust_5="13000.00000" pt_clust_6="13000.00000" pt_clust_7="13000.00000" pt_clust_8="13000.00000" pt_clust_9="50.75981"></scales>
<clustering>
<clus scale="   50.760">  1  9  2 -1</clus>
<clus scale="   88.285">  5  6 -1 -1</clus>
<clus scale="   88.874">  7  8 -1 -1</clus>
<clus scale="  139.612">  2  5  1 -1</clus>
<clus scale="  139.612">  2  5  1 -1</clus>
</clustering>
</event>
<event>
 9    2  0.2869112E-005  0.1196061E+03  0.7546771E-02  0.1246589E+00
         -1   -1    0    0    0  501 -0.00000000000E+00  0.00000000000E+00  0.96479091277E+02  0.96479091277E+02  0.00000000000E+00 0.  1.
          2   -1    0    0  502    0  0.00000000000E+00 -0.00000000000E+00 -0.11228843030E+04  0.11228843030E+04  0.00000000000E+00 0. -1.
         23    2    1    2    0    0 -0.44013420311E+01  0.73143777419E+02  0.44179088591E+02  0.12541809108E+03  0.91697991877E+02 0.  0.
         24    2    1    2    0    0  0.25163159204E+02 -0.72781805540E+02 -0.10668727553E+04  0.10728512367E+04  0.82836732787E+02 0.  0.
        -11    1    4    4    0    0  0.36096566835E+02 -0.49218361201E+02 -0.33482558454E+03  0.34034332853E+03  0.00000000000E+00 0.  1.
         12    1    4    4    0    0 -0.10933407631E+02 -0.23563444339E+02 -0.73204717077E+03  0.73250790818E+03  0.00000000000E+00 0. -1.
        -13    1    3    3    0    0 -0.18084089789E+02  0.57106730904E+02  0.69969408000E+02  0.92108257360E+02  0.00000000000E+00 0.  1.
         13    1    3    3    0    0  0.13682747757E+02  0.16037046515E+02 -0.25790319410E+02  0.33309833719E+02  0.00000000000E+00 0. -1.
         21    1    1    2  502  501 -0.20761817173E+02 -0.36197187884E+00 -0.37115450466E+01  0.21094066526E+02  0.00000000000E+00 0.  1.
<scales pt_clust_5="13000.00000" pt_clust_6="13000.00000" pt_clust_7="13000.00000" pt_clust_8="13000.00000" pt_clust_9="20.76497"></scales>
<clustering>
<clus scale="   20.765">  1  9  2 -1</clus>
<clus scale="   82.837">  5  6 -1 -1</clus>
<clus scale="   91.698">  7  8 -1 -1</clus>
<clus scale="  112.956">  2  5  1 -1</clus>
<clus scale="  112.956">  2  5  1 -1</clus>
</clustering>
</event>
<event>
 9    2  0.2869112E-005  0.9914501E+02  0.7546771E-02  0.1285217E+00
          2   -1    0    0  502    0  0.00000000000E+00  0.00000000000E+00  0.39608276826E+03  0.39608276826E+03  0.00000000000E+00 0. -1.
         -1   -1    0    0    0  501 -0.00000000000E+00 -0.00000000000E+00 -0.61457371972E+02  0.61457371972E+02  0.00000000000E+00 0.  1.
         24    2    1    2    0    0 -0.30643141133E+01 -0.56297422477E+02  0.24481093776E+02  0.10153972835E+03  0.80822043296E+02 0.  0.
         23    2    1    2    0    0 -0.44452463169E+02  0.82270890966E+01  0.23603854065E+03  0.25569953942E+03  0.87317554435E+02 0.  0.
        -11    1    3    3    0    0 -0.24412186120E+02 -0.68038865457E+02  0.26736181209E+02  0.77071819944E+02  0.00000000000E+00 0.  1.
         12    1    3    3    0    0  0.21347872006E+02  0.11741442980E+02 -0.22550874330E+01  0.24467908407E+02  0.00000000000E+00 0. -1.
        -11    1    4    4    0    0  0.29843100602E+01 -0.34215365129E+02  0.72988557625E+02  0.80665524616E+02  0.00000000000E+00 0.  1.
         11    1    4    4    0    0 -0.47436773229E+02  0.42442454226E+02  0.16304998302E+03  0.17503401481E+03  0.00000000000E+00 0. -1.
         21    1    1    2  502  501  0.47516777282E+02  0.48070333381E+02  0.74105761862E+02  0.10030087246E+03  0.00000000000E+00 0. -1.
<scales pt_clust_5="13000.00000" pt_clust_6="13000.00000" pt_clust_7="13000.00000" pt_clust_8="13000.00000" pt_clust_9="67.59143"></scales>
<clustering>
<clus scale="   67.591">  1  9  2 -1</clus>
<clus scale="   80.822">  5  6 -1 -1</clus>
<clus scale="   87.318">  7  8 -1 -1</clus>
<clus scale="   93.475">  2  5  1 -1</clus>
<clus scale="   67.591">  1  5  2 -1</clus>
</clustering>
</event>
<event>
 9    2  0.2869112E-005  0.9493287E+02  0.7546771E-02  0.1298559E+00
          2   -1    0    0  502    0  0.00000000000E+00  0.00000000000E+00  0.68573967090E+03  0.68573967090E+03  0.00000000000E+00 0. -1.
         -1   -1    0    0    0  501 -0.00000000000E+00 -0.00000000000E+00 -0.50503112093E+02  0.50503112093E+02  0.00000000000E+00 0.  1.
         23    2    1    2    0    0  0.20985250450E+02  0.29006166927E+02  0.36088648290E+02  0.10512057774E+03  0.92011993095E+02 0.  0.
         24    2    1    2    0    0  0.20643470346E+02 -0.14552412348E+02  0.57467431344E+03  0.58071567422E+03  0.79637944351E+02 0.  0.
        -11    1    4    4    0    0 -0.28850257219E+02  0.12136647037E+01  0.13986865102E+03  0.14281824065E+03  0.00000000000E+00 0.  1.
         12    1    4    4    0    0  0.49493727565E+02 -0.15766077051E+02  0.43480566243E+03  0.43789743358E+03  0.00000000000E+00 0. -1.
        -13    1    3    3    0    0  0.21993481217E+02 -0.18714291684E+01 -0.26999668937E+02  0.34874024515E+02  0.00000000000E+00 0.  1.
         13    1    3    3    0    0 -0.10082307668E+01  0.30877596095E+02  0.63088317226E+02  0.70246553228E+02  0.00000000000E+00 0. -1.
         21    1    1    2  502  501 -0.41628720797E+02 -0.14453754579E+02  0.24473597071E+02  0.50406531027E+02  0.00000000000E+00 0.  1.
<scales pt_clust_5="13000.00000" pt_clust_6="13000.00000" pt_clust_7="13000.00000" pt_clust_8="13000.00000" pt_clust_9="44.06656"></scales>
<clustering>
<clus scale="   44.067">  2  9  1 -1</clus>
<clus scale="   79.638">  5  6 -1 -1</clus>
<clus scale="   82.995">  1  5  2 -1</clus>
<clus scale="   92.012">  7  8 -1 -1</clus>
<clus scale="   82.995">  1  5  2 -1</clus>
</clustering>
</event>
<event>
 9    2  0.2869112E-005  0.9614118E+02  0.7546771E-02  0.1296578E+00
          2   -1    0    0  502    0  0.00000000000E+00  0.00000000000E+00  0.10065976659E+03  0.10065976659E+03  0.00000000000E+00 0. -1.
         -1   -1    0    0    0  501 -0.00000000000E+00 -0.00000000000E+00 -0.26625489184E+03  0.26625489184E+03  0.00000000000E+00 0.  1.
         23    2    1    2    0    0 -0.16017366756E+02  0.15589306134E+01 -0.13291631643E+03  0.16373856011E+03  0.94258063793E+02 0.  0.
         24    2    1    2    0    0  0.62130905773E+01 -0.19629559159E+02  0.63560121420E+02  0.10476571705E+03  0.80697238782E+02 0.  0.
        -11    1    4    4    0    0 -0.33295238324E+02  0.36155100798E+01  0.43060639402E+02  0.54551475451E+02  0.00000000000E+00 0.  1.
         12    1    4    4    0    0  0.39508328901E+02 -0.23245069239E+02  0.20499482018E+02  0.50214241600E+02  0.00000000000E+00 0. -1.
        -11    1    3    3    0    0 -0.24164230216E+02 -0.33954668073E+02 -0.22280334277E+02  0.47257198408E+02  0.00000000000E+00 0. -1.
         11    1    3    3    0    0  0.81468634608E+01  0.35513598687E+02 -0.11063598216E+03  0.11648136170E+03  0.00000000000E+00 0.  1.
         21    1    1    2  502  501  0.98042761783E+01  0.18070628546E+02 -0.96238930238E+02  0.98410381266E+02  0.00000000000E+00 0. -1.
<scales pt_clust_5="13000.00000" pt_clust_6="13000.00000" pt_clust_7="13000.00000" pt_clust_8="13000.00000" pt_clust_9="20.55897"></scales>
<clustering>
<clus scale="   20.559">  2  9  1 -1</clus>
<clus scale="   80.697">  5  6 -1 -1</clus>
<clus scale="   82.889">  1  5  2 -1</clus>
<clus scale="   94.258">  7  8 -1 -1</clus>
<clus scale="   82.889">  1  5  2 -1</clus>
</clustering>
</event>
<event>
 9    2  0.2869112E-005  0.1172807E+03  0.7546771E-02  0.1251443E+00
          2   -1    0    0  502    0  0.00000000000E+00  0.00000000000E+00  0.26164958726E+03  0.26164958726E+03  0.00000000000E+00 0. -1.
         -1   -1    0    0    0  501 -0.00000000000E+00 -0.00000000000E+00 -0.11763913072E+03  0.11763913072E+03  0.00000000000E+00 0.  1.
         23    2    1    2    0    0  0.91793772829E+02  0.50195980869E+02  0.13963937664E+02  0.13973459226E+03  0.91569817595E+02 0.  0.
         24    2    1    2    0    0 -0.67927220935E+02  0.10443170518E+02  0.13807930354E+03  0.17389405710E+03  0.80312401760E+02 0.  0.
        -11    1    4    4    0    0 -0.10183884727E+02  0.39671888099E+02  0.51646328586E+02  0.65915957627E+02  0.00000000000E+00 0.  1.
         12    1    4    4    0    0 -0.57743336208E+02 -0.29228717581E+02  0.86432974951E+02  0.10797809948E+03  0.00000000000E+00 0. -1.
        -11    1    3    3    0    0  0.10953414721E+03  0.33190850815E+02  0.12080891468E+02  0.11508827013E+03  0.00000000000E+00 0.  1.
         11    1    3    3    0    0 -0.17740374386E+02  0.17005130054E+02  0.18830461960E+01  0.24646322129E+02  0.00000000000E+00 0. -1.
         21    1    1    2  502  501 -0.23866551893E+02 -0.60639151388E+02 -0.80327846660E+01  0.65660068609E+02  0.00000000000E+00 0. -1.
<scales pt_clust_5="13000.00000" pt_clust_6="13000.00000" pt_clust_7="13000.00000" pt_clust_8="13000.00000" pt_clust_9="65.16685"></scales>
<clustering>
<clus scale="   65.167">  2  9  1 -1</clus>
<clus scale="   80.312">  5  6 -1 -1</clus>
<clus scale="   91.570">  7  8 -1 -1</clus>
<clus scale="  108.719">  1  5  2 -1</clus>
<clus scale="  108.719">  1  5  2 -1</clus>
</clustering>
</event>
<event>
 9    2  0.2869112E-005  0.9487450E+02  0.7546771E-02  0.1300933E+00
          2   -1    0    0  502    0  0.00000000000E+00  0.00000000000E+00  0.62795253432E+03  0.62795253432E+03  0.00000000000E+00 0. -1.
         -1   -1    0    0    0  501 -0.00000000000E+00 -0.00000000000E+00 -0.56007431270E+02  0.56007431270E+02  0.00000000000E+00 0.  1.
         23    2    1    2    0    0  0.41094906685E+02 -0.14735790580E+02  0.47884998605E+02  0.11384025194E+03  0.93598584346E+02 0.  0.
         24    2    1    2    0    0 -0.13190935309E+02 -0.24212607445E+01  0.53080000781E+03  0.53667689191E+03  0.78061352380E+02 0.  0.
        -11    1    4    4    0    0 -0.21912192911E+02  0.25878935356E+02  0.11689949497E+03  0.12171834462E+03  0.00000000000E+00 0.  1.
         12    1    4    4    0    0  0.87212576022E+01 -0.28300196101E+02  0.41390051284E+03  0.41495854728E+03  0.00000000000E+00 0. -1.
        -13    1    3    3    0    0  0.54044019525E+02  0.21819950763E+02  0.90933070823E+01  0.58987748995E+02  0.00000000000E+00 0.  1.
         13    1    3    3    0    0 -0.12949112840E+02 -0.36555741343E+02  0.38791691523E+02  0.54852502948E+02  0.00000000000E+00 0. -1.
         21    1    1    2  502  501 -0.27903971377E+02  0.17157051324E+02 -0.67399033655E+01  0.33442821743E+02  0.00000000000E+00 0.  1.
<scales pt_clust_5="13000.00000" pt_clust_6="13000.00000" pt_clust_7="13000.00000" pt_clust_8="13000.00000" pt_clust_9="32.75662"></scales>
<clustering>
<clus scale="   32.757">  2  9  1 -1</clus>
<clus scale="   78.061">  5  6 -1 -1</clus>
<clus scale="   79.587">  1  5  2 -1</clus>
<clus scale="   93.599">  7  8 -1 -1</clus>
<clus scale="   79.587">  1  5  2 -1</clus>
</clustering>
</event>
<event>
 9    2  0.2869112E-005  0.1905161E+03  0.7546771E-02  0.1158012E+00
         -1   -1    0    0    0  501 -0.00000000000E+00  0.00000000000E+00  0.20410164053E+03  0.20410164053E+03  0.00000000000E+00 0.  1.
          2   -1    0    0  502    0  0.00000000000E+00 -0.00000000000E+00 -0.24683371618E+03  0.24683371618E+03  0.00000000000E+00 0. -1.
         23    2    1    2    0    0  0.14370204688E+03 -0.62755254855E+02  0.63829391715E+02  0.19400397809E+03  0.94735695368E+02 0.  0.
         24    2    1    2    0    0 -0.14606522136E+03  0.85251787735E+02 -0.12250517309E+03  0.22925683549E+03  0.94595258783E+02 0.  0.
        -11    1    4    4    0    0 -0.41225275207E+02  0.17973799928E+02  0.11371855313E+02  0.46388575026E+02  0.00000000000E+00 0.  1.
         12    1    4    4    0    0 -0.10483994615E+03  0.67277987808E+02 -0.13387702840E+03  0.18286826047E+03  0.00000000000E+00 0. -1.
        -13    1    3    3    0    0  0.87575052142E+02 -0.49370794107E+01 -0.52436905977E+01  0.87870705026E+02  0.00000000000E+00 0. -1.
         13    1    3    3    0    0  0.56126994738E+02 -0.57818175444E+02  0.69073082313E+02  0.10613327306E+03  0.00000000000E+00 0.  1.
         21    1    1    2  502  501  0.23631744772E+01 -0.22496532880E+02  0.15943705728E+02  0.27674543132E+02  0.00000000000E+00 0. -1.
<scales pt_clust_5="13000.00000" pt_clust_6="13000.00000" pt_clust_7="13000.00000" pt_clust_8="13000.00000" pt_clust_9="22.62031"></scales>
<clustering>
<clus scale="   22.620">  1  9  2 -1</clus>
<clus scale="   94.595">  5  6 -1 -1</clus>
<clus scale="   94.736">  7  8 -1 -1</clus>
<clus scale="  190.446">  2  5  1 -1</clus>
<clus scale="  190.446">  2  5  1 -1</clus>
</clustering>
</event>
<event>
 9    2  0.2869112E-005  0.9689474E+02  0.7546771E-02  0.1292674E+00
          2   -1    0    0  502    0  0.00000000000E+00  0.00000000000E+00  0.10250191656E+03  0.10250191656E+03  0.00000000000E+00 0. -1.
         -1   -1    0    0    0  501 -0.00000000000E+00 -0.00000000000E+00 -0.25001246445E+03  0.25001246445E+03  0.00000000000E+00 0.  1.
         23    2    1    2    0    0  0.56056130575E+01 -0.86201727406E+01 -0.82509460157E+02  0.12369236358E+03  0.91576522743E+02 0.  0.
         24    2    1    2    0    0 -0.36893948391E+02 -0.11902964014E+02  0.53461399950E+02  0.10459029822E+03  0.81105888922E+02 0.  0.
        -11    1    4    4    0    0 -0.26617535739E+02  0.54013521618E+01 -0.16508415300E+02  0.31783574212E+02  0.00000000000E+00 0.  1.
         12    1    4    4    0    0 -0.10276412652E+02 -0.17304316176E+02  0.69969815250E+02  0.72806724012E+02  0.00000000000E+00 0. -1.
        -13    1    3    3    0    0 -0.84477793676E+01  0.40330639299E+02 -0.38115859493E+02  0.56131490159E+02  0.00000000000E+00 0.  1.
         13    1    3    3    0    0  0.14053392425E+02 -0.48950812040E+02 -0.44393600664E+02  0.67560873425E+02  0.00000000000E+00 0. -1.
         21    1    1    2  502  501  0.31288335334E+02  0.20523136755E+02 -0.11846248768E+03  0.12423171921E+03  0.00000000000E+00 0.  1.
<scales pt_clust_5="13000.00000" pt_clust_6="13000.00000" pt_clust_7="13000.00000" pt_clust_8="13000.00000" pt_clust_9="37.41870"></scales>
<clustering>
<clus scale="   37.419">  2  9  1 -1</clus>
<clus scale="   81.106">  5  6 -1 -1</clus>
<clus scale="   87.066">  1  5  2 -1</clus>
<clus scale="   91.577">  7  8 -1 -1</clus>
<clus scale="   87.066">  1  5  2 -1</clus>
</clustering>
</event>
<event>
 9    2  0.2869112E-005  0.1017527E+03  0.7546771E-02  0.1281826E+00
          2   -1    0    0  502    0  0.00000000000E+00  0.00000000000E+00  0.11230939579E+03  0.11230939579E+03  0.00000000000E+00 0. -1.
         -1   -1    0    0    0  501 -0.00000000000E+00 -0.00000000000E+00 -0.12911428815E+03  0.12911428815E+03  0.00000000000E+00 0.  1.
         23    2    1    2    0    0  0.31814975686E+02 -0.37983987057E+02 -0.29433673840E+02  0.10984010498E+03  0.93506852988E+02 0.  0.
         24    2    1    2    0    0 -0.88148051178E+01  0.36365179780E+02  0.36770262148E+02  0.98200357546E+02  0.83012836080E+02 0.  0.
        -13    1    4    4    0    0  0.46091891480E+01 -0.25943338600E+02  0.17428939836E+02  0.31592236168E+02  0.00000000000E+00 0.  1.
         14    1    4    4    0    0 -0.13423994266E+02  0.62308518379E+02  0.19341322313E+02  0.66608121378E+02  0.00000000000E+00 0. -1.
        -13    1    3    3    0    0 -0.23953730782E+02  0.15137812937E+02 -0.12552037685E+02  0.30991744852E+02  0.00000000000E+00 0. -1.
         13    1    3    3    0    0  0.55768706468E+02 -0.53121799994E+02 -0.16881636154E+02  0.78848360128E+02  0.00000000000E+00 0.  1.
         21    1    1    2  502  501 -0.23000170568E+02  0.16188072772E+01 -0.24141480667E+02  0.33383221413E+02  0.00000000000E+00 0. -1.
<scales pt_clust_5="13000.00000" pt_clust_6="13000.00000" pt_clust_7="13000.00000" pt_clust_8="13000.00000" pt_clust_9="23.05707"></scales>
<clustering>
<clus scale="   23.057">  2  9  1 -1</clus>
<clus scale="   83.013">  5  6 -1 -1</clus>
<clus scale="   92.202">  1  5  2 -1</clus>
<clus scale="   93.507">  7  8 -1 -1</clus>
<clus scale="   92.202">  1  5  2 -1</clus>
</clustering>
</event>
<event>
 9    2  0.2869112E-005  0.9316936E+02  0.7546771E-02  0.1306063E+00
         -1   -1    0    0    0  501 -0.00000000000E+00  0.00000000000E+00  0.99165354977E+02  0.99165354977E+02  0.00000000000E+00 0.  1.
          2   -1    0    0  502    0  0.00000000000E+00 -0.00000000000E+00 -0.30142038077E+03  0.30142038077E+03  0.00000000000E+00 0. -1.
         23    2    1    2    0    0 -0.26686302830E+02  0.17314465555E+02  0.51930456108E+01  0.96943821042E+02  0.91428590930E+02 0.  0.
         24    2    1    2    0    0 -0.21627313521E+02 -0.61314826056E+01 -0.23458356561E+03  0.24711227931E+03  0.74361909336E+02 0.  0.
        -11    1    4    4    0    0  0.27651695605E+02 -0.81757555948E+00 -0.97258833942E+02  0.10111659349E+03  0.00000000000E+00 0.  1.
         12    1    4    4    0    0 -0.49279009125E+02 -0.53139070461E+01 -0.13732473167E+03  0.14599568581E+03  0.00000000000E+00 0. -1.
        -13    1    3    3    0    0 -0.10622112342E+02  0.37603320808E+02  0.38439557049E+02  0.54812759030E+02  0.00000000000E+00 0.  1.
         13    1    3    3    0    0 -0.16064190488E+02 -0.20288855253E+02 -0.33246511438E+02  0.42131062013E+02  0.00000000000E+00 0. -1.
         21    1    1    2  502  501  0.48313616351E+02 -0.11182982949E+02  0.27135494207E+02  0.56529635399E+02  0.00000000000E+00 0. -1.
<scales pt_clust_5="13000.00000" pt_clust_6="13000.00000" pt_clust_7="13000.00000" pt_clust_8="13000.00000" pt_clust_9="49.59097"></scales>
<clustering>
<clus scale="   49.591">  1  9  2 -1</clus>
<clus scale="   74.362">  5  6 -1 -1</clus>
<clus scale="   76.492">  2  5  1 -1</clus>
<clus scale="   91.429">  7  8 -1 -1</clus>
<clus scale="   76.492">  2  5  1 -1</clus>
</clustering>
</event>
<event>
 9    2  0.2869112E-005  0.1135144E+03  0.7546771E-02  0.1257535E+00
          2   -1    0    0  502    0  0.00000000000E+00  0.00000000000E+00  0.68873274524E+03  0.68873274524E+03  0.00000000000E+00 0. -1.
         -1   -1    0    0    0  501 -0.00000000000E+00 -0.00000000000E+00 -0.55113206160E+02  0.55113206160E+02  0.00000000000E+00 0.  1.
         24    2    1    2    0    0  0.90656373124E+01 -0.51223501106E+02  0.21510753634E+03  0.23580549975E+03  0.81406072736E+02 0.  0.
         23    2    1    2    0    0 -0.26496026535E+02  0.76975700954E+02  0.44854875467E+03  0.46480619750E+03  0.90672586599E+02 0.  0.
        -11    1    3    3    0    0  0.20125927887E+02  0.17666606530E+02  0.63284565836E+02  0.68717524931E+02  0.00000000000E+00 0.  1.
         12    1    3    3    0    0 -0.11060290575E+02 -0.68890107635E+02  0.15182297050E+03  0.16708797482E+03  0.00000000000E+00 0. -1.
        -11    1    4    4    0    0 -0.60325367904E+02  0.44576421042E+02  0.27836421220E+03  0.28829297938E+03  0.00000000000E+00 0. -1.
         11    1    4    4    0    0  0.33829341369E+02  0.32399279912E+02  0.17018454246E+03  0.17651321812E+03  0.00000000000E+00 0.  1.
         21    1    1    2  502  501  0.17430389223E+02 -0.25752199849E+02 -0.30036751926E+02  0.43234254148E+02  0.00000000000E+00 0.  1.
<scales pt_clust_5="13000.00000" pt_clust_6="13000.00000" pt_clust_7="13000.00000" pt_clust_8="13000.00000" pt_clust_9="31.09653"></scales>
<clustering>
<clus scale="   31.097">  2  9  1 -1</clus>
<clus scale="   81.406">  5  6 -1 -1</clus>
<clus scale="   90.673">  7  8 -1 -1</clus>
<clus scale="  106.259">  2  5  1 -1</clus>
<clus scale="  113.514">  1  5  2 -1</clus>
</clustering>
</event>
<event>
 9    2  0.2869112E-005  0.1047805E+03  0.7546771E-02  0.1275265E+00
         -1   -1    0    0    0  501 -0.00000000000E+00  0.00000000000E+00  0.76684353750E+03  0.76684353750E+03  0.00000000000E+00 0.  1.
          2   -1    0    0  502    0  0.00000000000E+00 -0.00000000000E+00 -0.75127927533E+02  0.75127927533E+02  0.00000000000E+00 0. -1.
         23    2    1    2    0    0  0.56104162999E+02 -0.74791693843E+02  0.27780008421E+03  0.30725639413E+03  0.92152755653E+02 0.  0.
         24    2    1    2    0    0 -0.41903386856E+02  0.17906603964E+02 -0.21008533817E+02  0.95856878441E+02  0.81674000489E+02 0.  0.
        -13    1    4    4    0    0  0.79689263724E+01 -0.19660064462E+02 -0.25603574633E+02  0.33250036935E+02  0.00000000000E+00 0.  1.
         14    1    4    4    0    0 -0.49872313228E+02  0.37566668426E+02  0.45950408163E+01  0.62606841507E+02  0.00000000000E+00 0. -1.
        -13    1    3    3    0    0  0.71559146474E+02 -0.27676441728E+02  0.20748286848E+03  0.22121446061E+03  0.00000000000E+00 0.  1.
         13    1    3    3    0    0 -0.15454983475E+02 -0.47115252114E+02  0.70317215729E+02  0.86041933520E+02  0.00000000000E+00 0. -1.
         21    1    1    2  502  501 -0.14200776143E+02  0.56885089879E+02  0.43492405957E+03  0.43885819245E+03  0.00000000000E+00 0.  1.
<scales pt_clust_5="13000.00000" pt_clust_6="13000.00000" pt_clust_7="13000.00000" pt_clust_8="13000.00000" pt_clust_9="58.63084"></scales>
<clustering>
<clus scale="   58.631">  1  9  2 -1</clus>
<clus scale="   81.674">  5  6 -1 -1</clus>
<clus scale="   92.153">  7  8 -1 -1</clus>
<clus scale="   95.695">  2  5  1 -1</clus>
<clus scale="   95.695">  2  5  1 -1</clus>
</clustering>
</event>
<event>
 9    2  0.2869112E-005  0.1184917E+03  0.7546771E-02  0.1261323E+00
          2   -1    0    0  502    0  0.00000000000E+00  0.00000000000E+00  0.71895031927E+03  0.71895031927E+03  0.00000000000E+00 0. -1.
         -1   -1    0    0    0  501 -0.00000000000E+00 -0.00000000000E+00 -0.83741865916E+02  0.83741865916E+02  0.00000000000E+00 0.  1.
         24    2    1    2    0    0  0.45425969657E+02  0.45804995721E+02 -0.61687923924E+01  0.10493993388E+03  0.82539198990E+02 0.  0.
         23    2    1    2    0    0  0.47574758785E+01 -0.24683856652E+02  0.63144302874E+03  0.64240634460E+03  0.11547158387E+03 0.  0.
        -11    1    3    3    0    0  0.53185911677E+02 -0.17748364457E+01 -0.16345027309E+02  0.55669122169E+02  0.00000000000E+00 0.  1.
         12    1    3    3    0    0 -0.77599420198E+01  0.47579832167E+02  0.10176234917E+02  0.49270811707E+02  0.00000000000E+00 0. -1.
        -13    1    4    4    0    0 -0.17039110181E+01 -0.71191292292E+02  0.38468846476E+03  0.39122412800E+03  0.00000000000E+00 0. -1.
         13    1    4    4    0    0  0.64613868967E+01  0.46507435640E+02  0.24675456398E+03  0.25118221660E+03  0.00000000000E+00 0.  1.
         21    1    1    2  502  501 -0.50183445536E+02 -0.21121139069E+02  0.99342169992E+01  0.55345906703E+02  0.00000000000E+00 0. -1.
<scales pt_clust_5="13000.00000" pt_clust_6="13000.00000" pt_clust_7="13000.00000" pt_clust_8="13000.00000" pt_clust_9="54.44705"></scales>
<clustering>
<clus scale="   54.447">  2  9  1 -1</clus>
<clus scale="   82.539">  5  6 -1 -1</clus>
<clus scale="   86.714">  2  5  1 -1</clus>
<clus scale="  115.472">  7  8 -1 -1</clus>
<clus scale="  118.492">  1  5  2 -1</clus>
</clustering>
</event>
<event>
 9    2  0.2869112E-005  0.1801682E+03  0.7546771E-02  0.1168790E+00
          2   -1    0    0  502    0  0.00000000000E+00  0.00000000000E+00  0.18166451851E+03  0.18166451851E+03  0.00000000000E+00 0. -1.
         -1   -1    0    0    0  501 -0.00000000000E+00 -0.00000000000E+00 -0.20836396385E+03  0.20836396385E+03  0.00000000000E+00 0.  1.
         23    2    1    2    0    0 -0.14272088260E+03  0.13887151353E+02 -0.60418884553E+02  0.17995283090E+03  0.90390687763E+02 0.  0.
         24    2    1    2    0    0  0.16174143510E+03 -0.23264555914E+02  0.42523852568E+02  0.18711405682E+03  0.80634117051E+02 0.  0.
        -11    1    4    4    0    0  0.70925195448E+02 -0.50885590654E+02  0.19815378801E+02  0.89511875874E+02  0.00000000000E+00 0.  1.
         12    1    4    4    0    0  0.90816239654E+02  0.27621034740E+02  0.22708473767E+02  0.97602180948E+02  0.00000000000E+00 0. -1.
        -11    1    3    3    0    0 -0.10500056619E+03  0.50360337418E+02 -0.48482465428E+02  0.12614211009E+03  0.00000000000E+00 0.  1.
         11    1    3    3    0    0 -0.37720316410E+02 -0.36473186064E+02 -0.11936419125E+02  0.53810720803E+02  0.00000000000E+00 0. -1.
         21    1    1    2  502  501 -0.19020552504E+02  0.93774045603E+01 -0.88044133553E+01  0.22961594639E+02  0.00000000000E+00 0. -1.
<scales pt_clust_5="13000.00000" pt_clust_6="13000.00000" pt_clust_7="13000.00000" pt_clust_8="13000.00000" pt_clust_9="21.20654"></scales>
<clustering>
<clus scale="   21.207">  2  9  1 -1</clus>
<clus scale="   80.634">  5  6 -1 -1</clus>
<clus scale="   90.391">  7  8 -1 -1</clus>
<clus scale="  175.476">  1  5  2 -1</clus>
<clus scale="  175.476">  1  5  2 -1</clus>
</clustering>
</event>
<event>
 9    2  0.2869112E-005  0.2374858E+03  0.7546771E-02  0.1149919E+00
          2   -1    0    0  502    0  0.00000000000E+00  0.00000000000E+00  0.17707856062E+03  0.17707856062E+03  0.00000000000E+00 0. -1.
         -1   -1    0    0    0  501 -0.00000000000E+00 -0.00000000000E+00 -0.51132575468E+03  0.51132575468E+03  0.00000000000E+00 0.  1.
         23    2    1    2    0    0  0.17493877911E+02  0.25420675983E+03 -0.18128700959E+03  0.32585548812E+03  0.91595342587E+02 0.  0.
         24    2    1    2    0    0  0.55059926896E+02 -0.69738780712E+02 -0.12495773495E+02  0.11960286474E+03  0.79079756025E+02 0.  0.
        -13    1    4    4    0    0  0.43938468202E+02 -0.80236580398E+02 -0.30080426273E+02  0.96298130131E+02  0.00000000000E+00 0.  1.
         14    1    4    4    0    0  0.11121458694E+02  0.10497799686E+02  0.17584652778E+02  0.23304734606E+02  0.00000000000E+00 0. -1.
        -11    1    3    3    0    0 -0.19320057818E+02  0.17731839724E+03 -0.15593224144E+03  0.23691758600E+03  0.00000000000E+00 0.  1.
         11    1    3    3    0    0  0.36813935729E+02  0.76888362598E+02 -0.25354768146E+02  0.88937902126E+02  0.00000000000E+00 0. -1.
         21    1    1    2  502  501 -0.72553804806E+02 -0.18446797912E+03 -0.14046441097E+03  0.24294596243E+03  0.00000000000E+00 0.  1.
<scales pt_clust_5="13000.00000" pt_clust_6="13000.00000" pt_clust_7="13000.00000" pt_clust_8="13000.00000" pt_clust_9="219.11134"></scales>
<clustering>
<clus scale="   79.080">  5  6 -1 -1</clus>
<clus scale="   91.595">  7  8 -1 -1</clus>
<clus scale="  118.948">  1  5  2 -1</clus>
<clus scale="  219.111">  2  9  1 -1</clus>
<clus scale="  118.948">  1  5  2 -1</clus>
</clustering>
</event>
<event>
 9    2  0.2869112E-005  0.1026975E+03  0.7546771E-02  0.1280499E+00
         -1   -1    0    0    0  501 -0.00000000000E+00  0.00000000000E+00  0.27032125831E+02  0.27032125831E+02  0.00000000000E+00 0.  1.
          2   -1    0    0  502    0  0.00000000000E+00 -0.00000000000E+00 -0.64795109492E+03  0.64795109492E+03  0.00000000000E+00 0. -1.
         24    2    1    2    0    0 -0.19869802979E+01  0.54804610656E+02 -0.12179284569E+03  0.15570989889E+03  0.80028631820E+02 0.  0.
         23    2    1    2    0    0  0.18638199960E+02 -0.39113526485E+02 -0.47589053567E+03  0.48666403215E+03  0.92156539607E+02 0.  0.
        -11    1    3    3    0    0  0.18955838949E+02  0.54328776324E+02 -0.12185951179E+03  0.13476156863E+03  0.00000000000E+00 0.  1.
         12    1    3    3    0    0 -0.20942819247E+02  0.47583433176E+00  0.66666093577E-01  0.20948330260E+02  0.00000000000E+00 0. -1.
        -13    1    4    4    0    0  0.53605158223E+02 -0.10165654864E+02 -0.21263444834E+03  0.21952280553E+03  0.00000000000E+00 0.  1.
         13    1    4    4    0    0 -0.34966958263E+02 -0.28947871621E+02 -0.26325608733E+03  0.26714122661E+03  0.00000000000E+00 0. -1.
         21    1    1    2  502  501 -0.16651219662E+02 -0.15691084171E+02 -0.23235587728E+02  0.32609289716E+02  0.00000000000E+00 0.  1.
<scales pt_clust_5="13000.00000" pt_clust_6="13000.00000" pt_clust_7="13000.00000" pt_clust_8="13000.00000" pt_clust_9="22.87954"></scales>
<clustering>
<clus scale="   22.880">  1  9  2 -1</clus>
<clus scale="   80.029">  5  6 -1 -1</clus>
<clus scale="   91.970">  1  5  2 -1</clus>
<clus scale="   92.157">  7  8 -1 -1</clus>
<clus scale="  102.697">  2  5  1 -1</clus>
</clustering>
</event>
<event>
 9    2  0.2869112E-005  0.9550477E+02  0.7546771E-02  0.1296384E+00
          2   -1    0    0  502    0  0.00000000000E+00  0.00000000000E+00  0.77221170992E+03  0.77221170992E+03  0.00000000000E+00 0. -1.
         -1   -1    0    0    0  501 -0.00000000000E+00 -0.00000000000E+00 -0.17278609129E+02  0.17278609129E+02  0.00000000000E+00 0.  1.
         23    2    1    2    0    0 -0.33019579195E+02  0.75599108537E+01  0.36393088216E+03  0.37709664875E+03  0.92783353273E+02 0.  0.
         24    2    1    2    0    0  0.14436685490E+02  0.12698756687E+02  0.36503156624E+03  0.37457552208E+03  0.81786924902E+02 0.  0.
        -11    1    4    4    0    0  0.31268075389E+02  0.21401131879E+02  0.75982502999E+02  0.84906076027E+02  0.00000000000E+00 0.  1.
         12    1    4    4    0    0 -0.16831389899E+02 -0.87023751928E+01  0.28904906324E+03  0.28966944605E+03  0.00000000000E+00 0. -1.
        -11    1    3    3    0    0 -0.54895248827E+02 -0.20916432402E+02  0.16985633705E+03  0.17972801875E+03  0.00000000000E+00 0. -1.
         11    1    3    3    0    0  0.21875669632E+02  0.28476343255E+02  0.19407454511E+03  0.19736862999E+03  0.00000000000E+00 0.  1.
         21    1    1    2  502  501  0.18582893705E+02 -0.20258667540E+02  0.25970652399E+02  0.37818148223E+02  0.00000000000E+00 0.  1.
<scales pt_clust_5="13000.00000" pt_clust_6="13000.00000" pt_clust_7="13000.00000" pt_clust_8="13000.00000" pt_clust_9="27.49068"></scales>
<clustering>
<clus scale="   27.491">  2  9  1 -1</clus>
<clus scale="   81.787">  5  6 -1 -1</clus>
<clus scale="   84.862">  1  5  2 -1</clus>
<clus scale="   92.783">  7  8 -1 -1</clus>
<clus scale="   84.862">  1  5  2 -1</clus>
</clustering>
</event>
<event>
 9    2  0.2869112E-005  0.1075460E+03  0.7546771E-02  0.1269659E+00
          4   -1    0    0  502    0  0.00000000000E+00  0.00000000000E+00  0.14113883681E+03  0.14113883681E+03  0.00000000000E+00 0. -1.
         -3   -1    0    0    0  501 -0.00000000000E+00 -0.00000000000E+00 -0.11248854890E+03  0.11248854890E+03  0.00000000000E+00 0.  1.
         23    2    1    2    0    0 -0.51971065350E+02  0.38472679569E+02 -0.20633619085E+02  0.11366861834E+03  0.91179327982E+02 0.  0.
         24    2    1    2    0    0  0.31351177714E+02 -0.45078908436E+02  0.61424806569E+02  0.11513491858E+03  0.80424115072E+02 0.  0.
        -11    1    4    4    0    0  0.32494287757E+01 -0.41967963244E+02 -0.55299965817E+01  0.42455265733E+02  0.00000000000E+00 0.  1.
         12    1    4    4    0    0  0.28101748938E+02 -0.31109451918E+01  0.66954803151E+02  0.72679652850E+02  0.00000000000E+00 0. -1.
        -11    1    3    3    0    0 -0.46468629742E+01  0.32172931725E+02 -0.48502376508E+02  0.58388110075E+02  0.00000000000E+00 0.  1.
         11    1    3    3    0    0 -0.47324202376E+02  0.62997478441E+01  0.27868757423E+02  0.55280508262E+02  0.00000000000E+00 0. -1.
         21    1    1    2  502  501  0.20619887636E+02  0.66062288674E+01 -0.12140899573E+02  0.24823848783E+02  0.00000000000E+00 0.  1.
<scales pt_clust_5="13000.00000" pt_clust_6="13000.00000" pt_clust_7="13000.00000" pt_clust_8="13000.00000" pt_clust_9="21.65230"></scales>
<clustering>
<clus scale="   21.652">  2  9  1 -1</clus>
<clus scale="   80.424">  5  6 -1 -1</clus>
<clus scale="   91.179">  7  8 -1 -1</clus>
<clus scale="   98.593">  1  5  2 -1</clus>
<clus scale="   98.593">  1  5  2 -1</clus>
</clustering>
</event>
<event>
 9    2  0.2869112E-005  0.1014830E+03  0.7546771E-02  0.1285531E+00
         -1   -1    0    0    0  501 -0.00000000000E+00  0.00000000000E+00  0.73814533530E+02  0.73814533530E+02  0.00000000000E+00 0.  1.
          2   -1    0    0  502    0  0.00000000000E+00 -0.00000000000E+00 -0.10856119821E+04  0.10856119821E+04  0.00000000000E+00 0. -1.
         23    2    1    2    0    0 -0.17477494956E+02 -0.60138449832E+02 -0.53751497408E+02  0.12692216417E+03  0.96425703553E+02 0.  0.
         24    2    1    2    0    0  0.27648140733E+02  0.13963363288E+02 -0.97754721504E+03  0.98135867773E+03  0.80665367515E+02 0.  0.
        -13    1    4    4    0    0  0.74460801067E+01 -0.20403785066E+02 -0.79111034263E+02  0.82038492771E+02  0.00000000000E+00 0.  1.
         14    1    4    4    0    0  0.20202060627E+02  0.34367148354E+02 -0.89843618078E+03  0.89932018496E+03  0.00000000000E+00 0. -1.
        -11    1    3    3    0    0  0.12803210446E+02 -0.18341043346E+02  0.24504511414E+02  0.33178112490E+02  0.00000000000E+00 0.  1.
         11    1    3    3    0    0 -0.30280705402E+02 -0.41797406486E+02 -0.78256008822E+02  0.93744051680E+02  0.00000000000E+00 0. -1.
         21    1    1    2  502  501 -0.10170645777E+02  0.46175086544E+02  0.19501263849E+02  0.51145673762E+02  0.00000000000E+00 0.  1.
<scales pt_clust_5="13000.00000" pt_clust_6="13000.00000" pt_clust_7="13000.00000" pt_clust_8="13000.00000" pt_clust_9="47.28193"></scales>
<clustering>
<clus scale="   47.282">  1  9  2 -1</clus>
<clus scale="   80.665">  5  6 -1 -1</clus>
<clus scale="   86.647">  2  5  1 -1</clus>
<clus scale="   96.426">  7  8 -1 -1</clus>
<clus scale="   86.647">  2  5  1 -1</clus>
</clustering>
</event>
<event>
 9    2  0.2869112E-005  0.9353509E+02  0.7546771E-02  0.1301672E+00
          2   -1    0    0  502    0  0.00000000000E+00  0.00000000000E+00  0.29496263767E+03  0.29496263767E+03  0.00000000000E+00 0. -1.
         -1   -1    0    0    0  501 -0.00000000000E+00 -0.00000000000E+00 -0.44698735604E+02  0.44698735604E+02  0.00000000000E+00 0.  1.
         24    2    1    2    0    0 -0.26788304163E+02 -0.11184226719E+00  0.40312640174E+02  0.93522091474E+02  0.80022789799E+02 0.  0.
         23    2    1    2    0    0  0.47345882435E+01 -0.19241345474E+02  0.18549026713E+03  0.20793911784E+03  0.91866162586E+02 0.  0.
        -13    1    3    3    0    0 -0.15122604637E+02  0.30024996710E+02  0.49580558240E+02  0.59903466960E+02  0.00000000000E+00 0.  1.
         14    1    3    3    0    0 -0.11665699526E+02 -0.30136838977E+02 -0.92679180660E+01  0.33618624514E+02  0.00000000000E+00 0. -1.
        -11    1    4    4    0    0  0.53757103399E+01 -0.55870217981E+02  0.95424227629E+02  0.11070755502E+03  0.00000000000E+00 0. -1.
         11    1    4    4    0    0 -0.64112209648E+00  0.36628872507E+02  0.90066039501E+02  0.97231562828E+02  0.00000000000E+00 0.  1.
         21    1    1    2  502  501  0.22053715920E+02  0.19353187741E+02  0.24460994766E+02  0.38200163960E+02  0.00000000000E+00 0.  1.
<scales pt_clust_5="13000.00000" pt_clust_6="13000.00000" pt_clust_7="13000.00000" pt_clust_8="13000.00000" pt_clust_9="29.34131"></scales>
<clustering>
<clus scale="   29.341">  2  9  1 -1</clus>
<clus scale="   80.023">  5  6 -1 -1</clus>
<clus scale="   81.933">  2  5  1 -1</clus>
<clus scale="   91.866">  7  8 -1 -1</clus>
<clus scale="   93.535">  1  5  2 -1</clus>
</clustering>
</event>
<event>
 9    2  0.2869112E-005  0.1010342E+03  0.7546771E-02  0.1284727E+00
         -1   -1    0    0    0  501 -0.00000000000E+00  0.00000000000E+00  0.78931167720E+02  0.78931167720E+02  0.00000000000E+00 0.  1.
          2   -1    0    0  502    0  0.00000000000E+00 -0.00000000000E+00 -0.15887982758E+04  0.15887982758E+04  0.00000000000E+00 0. -1.
         23    2    1    2    0    0 -0.66674009222E+02 -0.36912100383E+02 -0.12605116458E+03  0.17323759528E+03  0.91183560286E+02 0.  0.
         24    2    1    2    0    0  0.33524781304E+02 -0.29037794479E+02 -0.14124745892E+04  0.14153111819E+04  0.77808559269E+02 0.  0.
        -13    1    4    4    0    0  0.26029745935E+02  0.90232403671E+00 -0.13645745426E+03  0.13892083604E+03  0.00000000000E+00 0.  1.
         14    1    4    4    0    0  0.74950353689E+01 -0.29940118516E+02 -0.12760171350E+04  0.12763903459E+04  0.00000000000E+00 0. -1.
        -11    1    3    3    0    0 -0.30258176210E+02 -0.42331809136E+02 -0.12610728641E+03  0.13642062519E+03  0.00000000000E+00 0. -1.
         11    1    3    3    0    0 -0.36415833012E+02  0.54197087525E+01  0.56121828956E-01  0.36816970090E+02  0.00000000000E+00 0.  1.
         21    1    1    2  502  501  0.33149227918E+02  0.65949894862E+02  0.28658645751E+02  0.79180666328E+02  0.00000000000E+00 0.  1.
<scales pt_clust_5="13000.00000" pt_clust_6="13000.00000" pt_clust_7="13000.00000" pt_clust_8="13000.00000" pt_clust_9="73.81233"></scales>
<clustering>
<clus scale="   73.812">  1  9  2 -1</clus>
<clus scale="   77.809">  5  6 -1 -1</clus>
<clus scale="   89.150">  2  5  1 -1</clus>
<clus scale="   91.184">  7  8 -1 -1</clus>
<clus scale="   89.150">  2  5  1 -1</clus>
</clustering>
</event>
<event>
 9    2  0.2869112E-005  0.1023863E+03  0.7546771E-02  0.1280326E+00
         -1   -1    0    0    0  501 -0.00000000000E+00  0.00000000000E+00  0.32469095047E+03  0.32469095047E+03  0.00000000000E+00 0.  1.
          2   -1    0    0  502    0  0.00000000000E+00 -0.00000000000E+00 -0.76229143091E+02  0.76229143091E+02  0.00000000000E+00 0. -1.
         24    2    1    2    0    0  0.63761922882E+02 -0.20221407250E+02  0.19436721555E+03  0.22010063657E+03  0.78684100148E+02 0.  0.
         23    2    1    2    0    0 -0.39680210775E+02  0.24611195161E+02 -0.19920604941E+02  0.10286146543E+03  0.89461838313E+02 0.  0.
        -11    1    3    3    0    0  0.79491873029E+02 -0.29703653735E+02  0.16228144884E+03  0.18312982706E+03  0.00000000000E+00 0.  1.
         12    1    3    3    0    0 -0.15729950147E+02  0.94822464846E+01  0.32085766713E+02  0.36970809507E+02  0.00000000000E+00 0. -1.
        -11    1    4    4    0    0 -0.45278726211E+02  0.50691199372E+02 -0.30067736432E+02  0.74322469787E+02  0.00000000000E+00 0. -1.
         11    1    4    4    0    0  0.55985154363E+01 -0.26080004210E+02  0.10147131491E+02  0.28538995641E+02  0.00000000000E+00 0.  1.
         21    1    1    2  502  501 -0.24081712107E+02 -0.43897879107E+01  0.74015196770E+02  0.77957991564E+02  0.00000000000E+00 0.  1.
<scales pt_clust_5="13000.00000" pt_clust_6="13000.00000" pt_clust_7="13000.00000" pt_clust_8="13000.00000" pt_clust_9="24.47854"></scales>
<clustering>
<clus scale="   24.479">  1  9  2 -1</clus>
<clus scale="   78.684">  5  6 -1 -1</clus>
<clus scale="   89.462">  7  8 -1 -1</clus>
<clus scale="   93.117">  1  5  2 -1</clus>
<clus scale="  102.386">  2  5  1 -1</clus>
</clustering>
</event>
<event>
 9    2  0.2869112E-005  0.1043329E+03  0.7546771E-02  0.1276043E+00
          2   -1    0    0  502    0  0.00000000000E+00  0.00000000000E+00  0.51405859209E+03  0.51405859209E+03  0.00000000000E+00 0. -1.
         -1   -1    0    0    0  501 -0.00000000000E+00 -0.00000000000E+00 -0.39316753033E+02  0.39316753033E+02  0.00000000000E+00 0.  1.
         23    2    1    2    0    0  0.64101003804E+01  0.55014157020E+02  0.10674822285E+03  0.15054898603E+03  0.90565817255E+02 0.  0.
         24    2    1    2    0    0  0.19254811830E+02 -0.48560409815E+02  0.36360948958E+03  0.37600175960E+03  0.80228430920E+02 0.  0.
        -11    1    4    4    0    0  0.26991069265E+02 -0.31832059462E+02  0.67778857058E+02  0.79597558340E+02  0.00000000000E+00 0.  1.
         12    1    4    4    0    0 -0.77362574350E+01 -0.16728350352E+02  0.29583063252E+03  0.29640420126E+03  0.00000000000E+00 0. -1.
        -13    1    3    3    0    0 -0.25980268019E+02  0.44276596201E+02  0.10440672325E+03  0.11634498338E+03  0.00000000000E+00 0. -1.
         13    1    3    3    0    0  0.32390368400E+02  0.10737560819E+02  0.23414995999E+01  0.34204002657E+02  0.00000000000E+00 0.  1.
         21    1    1    2  502  501 -0.25664912210E+02 -0.64537472058E+01  0.43841266329E+01  0.26824599495E+02  0.00000000000E+00 0.  1.
<scales pt_clust_5="13000.00000" pt_clust_6="13000.00000" pt_clust_7="13000.00000" pt_clust_8="13000.00000" pt_clust_9="26.46391"></scales>
<clustering>
<clus scale="   26.464">  2  9  1 -1</clus>
<clus scale="   80.228">  5  6 -1 -1</clus>
<clus scale="   90.566">  7  8 -1 -1</clus>
<clus scale="   95.498">  1  5  2 -1</clus>
<clus scale="   95.498">  1  5  2 -1</clus>
</clustering>
</event>
<event>
 9    2  0.2869112E-005  0.1030057E+03  0.7546771E-02  0.1278784E+00
          2   -1    0    0  502    0  0.00000000000E+00  0.00000000000E+00  0.36834115087E+03  0.36834115087E+03  0.00000000000E+00 0. -1.
         -1   -1    0    0    0  501 -0.00000000000E+00 -0.00000000000E+00 -0.15843667119E+03  0.15843667119E+03  0.00000000000E+00 0.  1.
         23    2    1    2    0    0  0.34515800658E+02 -0.97240473324E+02  0.80845600648E+02  0.15931396007E+03  0.90542126013E+02 0.  0.
         24    2    1    2    0    0 -0.42287675414E+01  0.37814205789E+02  0.22993892844E+03  0.24652763906E+03  0.80350291681E+02 0.  0.
        -11    1    4    4    0    0 -0.88400245637E+01  0.61394677677E+02  0.13455037033E+03  0.14815955804E+03  0.00000000000E+00 0.  1.
         12    1    4    4    0    0  0.46112570222E+01 -0.23580471889E+02  0.95388558104E+02  0.98368081017E+02  0.00000000000E+00 0. -1.
        -11    1    3    3    0    0 -0.24813477648E+02 -0.64709770023E+02  0.35553327372E+02  0.77891604790E+02  0.00000000000E+00 0.  1.
         11    1    3    3    0    0  0.59329278306E+02 -0.32530703301E+02  0.45292273276E+02  0.81422355285E+02  0.00000000000E+00 0. -1.
         21    1    1    2  502  501 -0.30287033117E+02  0.59426267536E+02 -0.10088004941E+03  0.12093622293E+03  0.00000000000E+00 0.  1.
<scales pt_clust_5="13000.00000" pt_clust_6="13000.00000" pt_clust_7="13000.00000" pt_clust_8="13000.00000" pt_clust_9="66.69922"></scales>
<clustering>
<clus scale="   66.699">  2  9  1 -1</clus>
<clus scale="   80.350">  5  6 -1 -1</clus>
<clus scale="   90.542">  7  8 -1 -1</clus>
<clus scale="   94.173">  1  5  2 -1</clus>
<clus scale="   94.173">  1  5  2 -1</clus>
</clustering>
</event>
<event>
 9    2  0.2869112E-005  0.1830752E+03  0.7546771E-02  0.1166219E+00
         -1   -1    0    0    0  501 -0.00000000000E+00  0.00000000000E+00  0.48199591825E+02  0.48199591825E+02  0.00000000000E+00 0.  1.
          2   -1    0    0  502    0  0.00000000000E+00 -0.00000000000E+00 -0.14739384125E+04  0.14739384125E+04  0.00000000000E+00 0. -1.
         23    2    1    2    0    0  0.13423280512E+03 -0.57499723516E+02 -0.18380049034E+03  0.25189715255E+03  0.91350375141E+02 0.  0.
         24    2    1    2    0    0 -0.13675238962E+03  0.85693225450E+02 -0.12230637000E+04  0.12362191891E+04  0.79426220220E+02 0.  0.
        -13    1    4    4    0    0 -0.65488508535E+02  0.19428337097E+02 -0.28278912643E+03  0.29092248978E+03  0.00000000000E+00 0.  1.
         14    1    4    4    0    0 -0.71263881086E+02  0.66264888352E+02 -0.94027457353E+03  0.94529669935E+03  0.00000000000E+00 0. -1.
        -13    1    3    3    0    0  0.67390926045E+02  0.17496577660E+02 -0.56079578351E+02  0.89401265377E+02  0.00000000000E+00 0.  1.
         13    1    3    3    0    0  0.66841879070E+02 -0.74996301175E+02 -0.12772091199E+03  0.16249588717E+03  0.00000000000E+00 0. -1.
         21    1    1    2  502  501  0.25195845058E+01 -0.28193501934E+02 -0.18874630369E+02  0.34021662643E+02  0.00000000000E+00 0.  1.
<scales pt_clust_5="13000.00000" pt_clust_6="13000.00000" pt_clust_7="13000.00000" pt_clust_8="13000.00000" pt_clust_9="28.30586"></scales>
<clustering>
<clus scale="   28.306">  1  9  2 -1</clus>
<clus scale="   79.426">  5  6 -1 -1</clus>
<clus scale="   91.350">  7  8 -1 -1</clus>
<clus scale="  177.426">  2  5  1 -1</clus>
<clus scale="  177.426">  2  5  1 -1</clus>
</clustering>
</event>
<event>
 9    2  0.2869112E-005  0.1050789E+03  0.7546771E-02  0.1273111E+00
          2   -1    0    0  502    0  0.00000000000E+00  0.00000000000E+00  0.10935989810E+03  0.10935989810E+03  0.00000000000E+00 0. -1.
         -1   -1    0    0    0  501 -0.00000000000E+00 -0.00000000000E+00 -0.55372041718E+03  0.55372041718E+03  0.00000000000E+00 0.  1.
         23    2    1    2    0    0  0.42283852383E+02 -0.54367810436E+01 -0.10441574034E+03  0.14493343096E+03  0.91025105433E+02 0.  0.
         24    2    1    2    0    0  0.30760364136E+02  0.63433976756E+02  0.47690970096E+02  0.11944824367E+03  0.83805637505E+02 0.  0.
        -11    1    4    4    0    0 -0.98481479316E+01  0.35204156553E+02 -0.15072091172E+02  0.39540948251E+02  0.00000000000E+00 0.  1.
         12    1    4    4    0    0  0.40608512068E+02  0.28229820203E+02  0.62763061268E+02  0.79907295417E+02  0.00000000000E+00 0. -1.
        -13    1    3    3    0    0  0.41487667318E+02 -0.44115762055E+02 -0.52228118236E+02  0.79970015229E+02  0.00000000000E+00 0. -1.
         13    1    3    3    0    0  0.79618506426E+00  0.38678981011E+02 -0.52187622108E+02  0.64963415736E+02  0.00000000000E+00 0.  1.
         21    1    1    2  502  501 -0.73044216519E+02 -0.57997195713E+02 -0.38763574883E+03  0.39869864064E+03  0.00000000000E+00 0.  1.
<scales pt_clust_5="13000.00000" pt_clust_6="13000.00000" pt_clust_7="13000.00000" pt_clust_8="13000.00000" pt_clust_9="93.26914"></scales>
<clustering>
<clus scale="   83.806">  5  6 -1 -1</clus>
<clus scale="   91.025">  7  8 -1 -1</clus>
<clus scale="   93.269">  2  9  1 -1</clus>
<clus scale="   98.891">  1  5  2 -1</clus>
<clus scale="   98.891">  1  5  2 -1</clus>
</clustering>
</event>
<event>
 9    2  0.2869112E-005  0.1321091E+03  0.7546771E-02  0.1232547E+00
          2   -1    0    0  502    0  0.00000000000E+00  0.00000000000E+00  0.53353597504E+03  0.53353597504E+03  0.00000000000E+00 0. -1.
         -1   -1    0    0    0  501 -0.00000000000E+00 -0.00000000000E+00 -0.35460202499E+02  0.35460202499E+02  0.00000000000E+00 0.  1.
         23    2    1    2    0    0 -0.35484120752E+02 -0.80686585846E+02  0.25245920543E+03  0.28758717280E+03  0.10583611666E+03 0.  0.
         24    2    1    2    0    0  0.15328008802E+02  0.71983160053E+02  0.23144478145E+03  0.25527745335E+03  0.78634395419E+02 0.  0.
        -11    1    4    4    0    0  0.16451574146E+02  0.24555662067E+02  0.13977450870E+02  0.32695626072E+02  0.00000000000E+00 0.  1.
         12    1    4    4    0    0 -0.11235653441E+01  0.47427497986E+02  0.21746733058E+03  0.22258182728E+03  0.00000000000E+00 0. -1.
        -13    1    3    3    0    0  0.27964300689E+02 -0.38129875781E+02  0.40427741264E+02  0.62211669353E+02  0.00000000000E+00 0.  1.
         13    1    3    3    0    0 -0.63448421440E+02 -0.42556710066E+02  0.21203146417E+03  0.22537550344E+03  0.00000000000E+00 0. -1.
         21    1    1    2  502  501  0.20156111950E+02  0.87034257931E+01  0.14171785660E+02  0.26131551394E+02  0.00000000000E+00 0. -1.
<scales pt_clust_5="13000.00000" pt_clust_6="13000.00000" pt_clust_7="13000.00000" pt_clust_8="13000.00000" pt_clust_9="21.95492"></scales>
<clustering>
<clus scale="   21.955">  2  9  1 -1</clus>
<clus scale="   78.634">  5  6 -1 -1</clus>
<clus scale="  105.836">  7  8 -1 -1</clus>
<clus scale="  111.512">  1  5  2 -1</clus>
<clus scale="  111.512">  1  5  2 -1</clus>
</clustering>
</event>
<event>
 9    2  0.2869112E-005  0.9191902E+02  0.7546771E-02  0.1303618E+00
         -1   -1    0    0    0  501 -0.00000000000E+00  0.00000000000E+00  0.11691768454E+02  0.11691768454E+02  0.00000000000E+00 0.  1.
          2   -1    0    0  502    0  0.00000000000E+00 -0.00000000000E+00 -0.90823669149E+03  0.90823669149E+03  0.00000000000E+00 0. -1.
         23    2    1    2    0    0  0.49099643537E+01  0.14279780872E+02 -0.28980283047E+03  0.30371910154E+03  0.89619150856E+02 0.  0.
         24    2    1    2    0    0  0.15585722370E+02 -0.20480267373E+02 -0.52007198671E+03  0.52693323362E+03  0.80755218042E+02 0.  0.
        -13    1    4    4    0    0 -0.15254163122E+02  0.25272084761E+02 -0.17175451108E+03  0.17427271684E+03  0.00000000000E+00 0.  1.
         14    1    4    4    0    0  0.30839885492E+02 -0.45752352134E+02 -0.34831747564E+03  0.35266051678E+03  0.00000000000E+00 0. -1.
        -11    1    3    3    0    0  0.40226315065E+02 -0.85508964747E+00 -0.71348447534E+02  0.81911467864E+02  0.00000000000E+00 0.  1.
         11    1    3    3    0    0 -0.35316350712E+02  0.15134870519E+02 -0.21845438293E+03  0.22180763367E+03  0.00000000000E+00 0. -1.
         21    1    1    2  502  501 -0.20495686724E+02  0.62004865017E+01 -0.86670105855E+02  0.89276124782E+02  0.00000000000E+00 0. -1.
<scales pt_clust_5="13000.00000" pt_clust_6="13000.00000" pt_clust_7="13000.00000" pt_clust_8="13000.00000" pt_clust_9="21.41306"></scales>
<clustering>
<clus scale="   21.413">  1  9  2 -1</clus>
<clus scale="   80.755">  5  6 -1 -1</clus>
<clus scale="   83.300">  2  5  1 -1</clus>
<clus scale="   89.619">  7  8 -1 -1</clus>
<clus scale="   83.300">  2  5  1 -1</clus>
</clustering>
</event>
<event>
 9    2  0.2869112E-005  0.9239218E+02  0.7546771E-02  0.1305028E+00
         -1   -1    0    0    0  501 -0.00000000000E+00  0.00000000000E+00  0.17958881944E+02  0.17958881944E+02  0.00000000000E+00 0.  1.
          2   -1    0    0  502    0  0.00000000000E+00 -0.00000000000E+00 -0.59384021509E+03  0.59384021509E+03  0.00000000000E+00 0. -1.
         23    2    1    2    0    0 -0.74660156727E+01 -0.45810210181E+01 -0.18490812642E+03  0.20665380976E+03  0.91858884865E+02 0.  0.
         24    2    1    2    0    0  0.31629001864E-01 -0.15777727819E+02 -0.34451711695E+03  0.35388207399E+03  0.79319232983E+02 0.  0.
        -13    1    4    4    0    0 -0.32223997539E+02 -0.23388080779E+02 -0.10900295027E+03  0.11604753986E+03  0.00000000000E+00 0.  1.
         14    1    4    4    0    0  0.32255626541E+02  0.76103529597E+01 -0.23551416669E+03  0.23783453413E+03  0.00000000000E+00 0. -1.
        -13    1    3    3    0    0 -0.17828314544E+02 -0.32624911718E+02 -0.16849444316E+03  0.17254741678E+03  0.00000000000E+00 0. -1.
         13    1    3    3    0    0  0.10362298871E+02  0.28043890700E+02 -0.16413683259E+02  0.34106392973E+02  0.00000000000E+00 0.  1.
         21    1    1    2  502  501  0.74343866708E+01  0.20358748837E+02 -0.46456089783E+02  0.51263213295E+02  0.00000000000E+00 0. -1.
<scales pt_clust_5="13000.00000" pt_clust_6="13000.00000" pt_clust_7="13000.00000" pt_clust_8="13000.00000" pt_clust_9="21.67369"></scales>
<clustering>
<clus scale="   21.674">  1  9  2 -1</clus>
<clus scale="   79.319">  5  6 -1 -1</clus>
<clus scale="   79.936">  2  5  1 -1</clus>
<clus scale="   91.859">  7  8 -1 -1</clus>
<clus scale="   79.936">  2  5  1 -1</clus>
</clustering>
</event>
<event>
 9    2  0.2869112E-005  0.9372070E+02  0.7546771E-02  0.1300017E+00
         -1   -1    0    0    0  501 -0.00000000000E+00  0.00000000000E+00  0.55672077477E+02  0.55672077477E+02  0.00000000000E+00 0.  1.
          2   -1    0    0  502    0  0.00000000000E+00 -0.00000000000E+00 -0.42358307022E+03  0.42358307022E+03  0.00000000000E+00 0. -1.
         24    2    1    2    0    0  0.48108289840E+02 -0.37929234436E+01 -0.68532450398E+02  0.11590716542E+03  0.80056107938E+02 0.  0.
         23    2    1    2    0    0 -0.10785230947E+02  0.20227319694E+02 -0.30791583521E+03  0.32168282327E+03  0.90234203858E+02 0.  0.
        -11    1    3    3    0    0  0.67796642190E+02  0.80142027632E+00 -0.67485875487E+02  0.95662795051E+02  0.00000000000E+00 0.  1.
         12    1    3    3    0    0 -0.19688352351E+02 -0.45943437199E+01 -0.10465749103E+01  0.20244370367E+02  0.00000000000E+00 0. -1.
        -13    1    4    4    0    0 -0.33009682746E+02  0.36225923165E+02 -0.27272035957E+03  0.27708906725E+03  0.00000000000E+00 0. -1.
         13    1    4    4    0    0  0.22224451798E+02 -0.15998603471E+02 -0.35195475641E+02  0.44593756024E+02  0.00000000000E+00 0.  1.
         21    1    1    2  502  501 -0.37323058892E+02 -0.16434396250E+02  0.85372928703E+01  0.41665159003E+02  0.00000000000E+00 0. -1.
<scales pt_clust_5="13000.00000" pt_clust_6="13000.00000" pt_clust_7="13000.00000" pt_clust_8="13000.00000" pt_clust_9="40.78112"></scales>
<clustering>
<clus scale="   40.781">  1  9  2 -1</clus>
<clus scale="   80.056">  5  6 -1 -1</clus>
<clus scale="   83.966">  1  5  2 -1</clus>
<clus scale="   90.234">  7  8 -1 -1</clus>
<clus scale="   93.721">  2  5  1 -1</clus>
</clustering>
</event>
<event>
 9    2  0.2869112E-005  0.1673632E+03  0.7546771E-02  0.1201837E+00
          2   -1    0    0  502    0  0.00000000000E+00  0.00000000000E+00  0.10788593375E+03  0.10788593375E+03  0.00000000000E+00 0. -1.
         -1   -1    0    0    0  501 -0.00000000000E+00 -0.00000000000E+00 -0.61661098577E+03  0.61661098577E+03  0.00000000000E+00 0.  1.
         23    2    1    2    0    0 -0.15434753229E+03  0.30165650831E+02 -0.25451065556E+03  0.31204952490E+03  0.88691064844E+02 0.  0.
         24    2    1    2    0    0  0.42182619960E+02  0.50529407117E+02  0.18744982710E+02  0.10650706937E+03  0.81607518269E+02 0.  0.
        -11    1    4    4    0    0 -0.23173014528E+02  0.18396006219E+02 -0.47864104534E+01  0.29971842989E+02  0.00000000000E+00 0.  1.
         12    1    4    4    0    0  0.65355634488E+02  0.32133400897E+02  0.23531393163E+02  0.76535226378E+02  0.00000000000E+00 0. -1.
        -13    1    3    3    0    0 -0.94121438819E+02  0.41029381590E+02 -0.21753409085E+03  0.24054799122E+03  0.00000000000E+00 0.  1.
         13    1    3    3    0    0 -0.60226093470E+02 -0.10863730759E+02 -0.36976564711E+02  0.71501533679E+02  0.00000000000E+00 0. -1.
         21    1    1    2  502  501  0.11216491233E+03 -0.80695057948E+02 -0.27295937917E+03  0.30594032524E+03  0.00000000000E+00 0. -1.
<scales pt_clust_5="13000.00000" pt_clust_6="13000.00000" pt_clust_7="13000.00000" pt_clust_8="13000.00000" pt_clust_9="141.93076"></scales>
<clustering>
<clus scale="   81.608">  5  6 -1 -1</clus>
<clus scale="   88.691">  7  8 -1 -1</clus>
<clus scale="  104.845">  1  5  2 -1</clus>
<clus scale="  141.931">  2  9  1 -1</clus>
<clus scale="  104.845">  1  5  2 -1</clus>
</clustering>
</event>
<event>
 9    2  0.2869112E-005  0.1061818E+03  0.7546771E-02  0.1270261E+00
         -1   -1    0    0    0  501 -0.00000000000E+00  0.00000000000E+00  0.56756990754E+02  0.56756990754E+02  0.00000000000E+00 0.  1.
          2   -1    0    0  502    0  0.00000000000E+00 -0.00000000000E+00 -0.12013299381E+04  0.12013299381E+04  0.00000000000E+00 0. -1.
         23    2    1    2    0    0 -0.24959215487E+02  0.56515572823E+02 -0.14438517079E+02  0.11089696108E+03  0.90954344551E+02 0.  0.
         24    2    1    2    0    0 -0.56463848593E+01 -0.54534029378E+02 -0.10983930640E+04  0.11030521878E+04  0.85152592201E+02 0.  0.
        -11    1    4    4    0    0  0.22614766251E+01 -0.26319776893E+02 -0.80221167085E+02  0.84458750764E+02  0.00000000000E+00 0.  1.
         12    1    4    4    0    0 -0.79078614844E+01 -0.28214252485E+02 -0.10181718969E+04  0.10185934371E+04  0.00000000000E+00 0. -1.
        -11    1    3    3    0    0 -0.55309907752E+02  0.56071058781E+02 -0.42346729355E+01  0.78873835860E+02  0.00000000000E+00 0.  1.
         11    1    3    3    0    0  0.30350692265E+02  0.44451404208E+00 -0.10203844143E+02  0.32023125222E+02  0.00000000000E+00 0. -1.
         21    1    1    2  502  501  0.30605600347E+02 -0.19815434452E+01 -0.31741366239E+02  0.44137779936E+02  0.00000000000E+00 0. -1.
<scales pt_clust_5="13000.00000" pt_clust_6="13000.00000" pt_clust_7="13000.00000" pt_clust_8="13000.00000" pt_clust_9="30.66968"></scales>
<clustering>
<clus scale="   30.670">  1  9  2 -1</clus>
<clus scale="   85.153">  5  6 -1 -1</clus>
<clus scale="   90.954">  7  8 -1 -1</clus>
<clus scale="  101.256">  2  5  1 -1</clus>
<clus scale="  101.256">  2  5  1 -1</clus>
</clustering>
</event>
<event>
 9    2  0.2869112E-005  0.1163629E+03  0.7546771E-02  0.1253119E+00
         -1   -1    0    0    0  501 -0.00000000000E+00  0.00000000000E+00  0.12544851400E+03  0.12544851400E+03  0.00000000000E+00 0.  1.
          2   -1    0    0  502    0  0.00000000000E+00 -0.00000000000E+00 -0.14616668345E+03  0.14616668345E+03  0.00000000000E+00 0. -1.
         23    2    1    2    0    0  0.48637181191E+02 -0.54821634395E+02  0.10704502231E+02  0.11713536343E+03  0.90747561979E+02 0.  0.
         24    2    1    2    0    0 -0.31894223290E+02  0.66284873390E+02 -0.56662348706E+02  0.12209505698E+03  0.79282124463E+02 0.  0.
        -13    1    4    4    0    0  0.22309716625E+02  0.39203714713E+02 -0.11576537275E+02  0.46568990954E+02  0.00000000000E+00 0.  1.
         14    1    4    4    0    0 -0.54203939914E+02  0.27081158677E+02 -0.45085811431E+02  0.75526066030E+02  0.00000000000E+00 0. -1.
        -11    1    3    3    0    0  0.55632601169E+02  0.54869263447E+01  0.38095323643E+01  0.56032180133E+02  0.00000000000E+00 0. -1.
         11    1    3    3    0    0 -0.69954199782E+01 -0.60308560740E+02  0.68949698670E+01  0.61103183294E+02  0.00000000000E+00 0.  1.
         21    1    1    2  502  501 -0.16742957901E+02 -0.11463238995E+02  0.25239677022E+02  0.32384777037E+02  0.00000000000E+00 0.  1.
<scales pt_clust_5="13000.00000" pt_clust_6="13000.00000" pt_clust_7="13000.00000" pt_clust_8="13000.00000" pt_clust_9="20.29119"></scales>
<clustering>
<clus scale="   20.291">  1  9  2 -1</clus>
<clus scale="   79.282">  5  6 -1 -1</clus>
<clus scale="   90.748">  7  8 -1 -1</clus>
<clus scale="  107.661">  2  5  1 -1</clus>
<clus scale="  107.661">  2  5  1 -1</clus>
</clustering>
</event>
<event>
 9    2  0.2869112E-005  0.1194426E+03  0.7546771E-02  0.1251951E+00
         -1   -1    0    0    0  501 -0.00000000000E+00  0.00000000000E+00  0.16977544208E+03  0.16977544208E+03  0.00000000000E+00 0.  1.
          2   -1    0    0  502    0  0.00000000000E+00 -0.00000000000E+00 -0.36046856414E+03  0.36046856414E+03  0.00000000000E+00 0. -1.
         24    2    1    2    0    0  0.61319992707E+02 -0.42496158086E+02 -0.25573887183E+02  0.11266797959E+03  0.80461077309E+02 0.  0.
         23    2    1    2    0    0 -0.40910832591E+02  0.43210169325E+02 -0.27846991558E+03  0.30240041966E+03  0.10178263590E+03 0.  0.
        -13    1    3    3    0    0  0.35820616505E+02 -0.22305936833E+02  0.27537902999E+02  0.50388565036E+02  0.00000000000E+00 0.  1.
         14    1    3    3    0    0  0.25499376202E+02 -0.20190221253E+02 -0.53111790182E+02  0.62279414555E+02  0.00000000000E+00 0. -1.
        -13    1    4    4    0    0 -0.51749318638E+02 -0.47223087640E+01 -0.21984487087E+03  0.22590276543E+03  0.00000000000E+00 0. -1.
         13    1    4    4    0    0  0.10838486047E+02  0.47932478089E+02 -0.58625044704E+02  0.76497654226E+02  0.00000000000E+00 0.  1.
         21    1    1    2  502  501 -0.20409160115E+02 -0.71401123906E+00  0.11335068069E+03  0.11517560698E+03  0.00000000000E+00 0.  1.
<scales pt_clust_5="13000.00000" pt_clust_6="13000.00000" pt_clust_7="13000.00000" pt_clust_8="13000.00000" pt_clust_9="20.42165"></scales>
<clustering>
<clus scale="   20.422">  1  9  2 -1</clus>
<clus scale="   80.461">  5  6 -1 -1</clus>
<clus scale="  101.783">  7  8 -1 -1</clus>
<clus scale="  101.886">  1  5  2 -1</clus>
<clus scale="  119.443">  2  5  1 -1</clus>
</clustering>
</event>
<event>
 9    2  0.2869112E-005  0.9336410E+02  0.7546771E-02  0.1310980E+00
          2   -1    0    0  502    0  0.00000000000E+00  0.00000000000E+00  0.30133066550E+03  0.30133066550E+03  0.00000000000E+00 0. -1.
         -1   -1    0    0    0  501 -0.00000000000E+00 -0.00000000000E+00 -0.39937860854E+02  0.39937860854E+02  0.00000000000E+00 0.  1.
         24    2    1    2    0    0 -0.43439273025E+01  0.26192075510E+01  0.28615258220E+02  0.72922816262E+02  0.66881792559E+02 0.  0.
         23    2    1    2    0    0  0.23051607193E+02  0.12023145351E+02  0.22344719521E+03  0.24282255905E+03  0.91423265733E+02 0.  0.
        -11    1    3    3    0    0 -0.18909448458E+02 -0.20806547360E+02 -0.59111356666E+01  0.28730144081E+02  0.00000000000E+00 0.  1.
         12    1    3    3    0    0  0.14565521155E+02  0.23425754911E+02  0.34526393887E+02  0.44192672181E+02  0.00000000000E+00 0. -1.
        -11    1    4    4    0    0 -0.85358101194E+01  0.33266524776E+02  0.29803319756E+02  0.45472624661E+02  0.00000000000E+00 0.  1.
         11    1    4    4    0    0  0.31587417312E+02 -0.21243379425E+02  0.19364387545E+03  0.19734993439E+03  0.00000000000E+00 0. -1.
         21    1    1    2  502  501 -0.18707679890E+02 -0.14642352902E+02  0.93303512155E+01  0.25523151044E+02  0.00000000000E+00 0.  1.
<scales pt_clust_5="13000.00000" pt_clust_6="13000.00000" pt_clust_7="13000.00000" pt_clust_8="13000.00000" pt_clust_9="23.75659"></scales>
<clustering>
<clus scale="   23.757">  2  9  1 -1</clus>
<clus scale="   66.882">  5  6 -1 -1</clus>
<clus scale="   69.511">  2  5  1 -1</clus>
<clus scale="   91.423">  7  8 -1 -1</clus>
<clus scale="   93.364">  1  5  2 -1</clus>
</clustering>
</event>
<event>
 9    2  0.2869112E-005  0.1253383E+03  0.7546771E-02  0.1239236E+00
          2   -1    0    0  502    0  0.00000000000E+00  0.00000000000E+00  0.76486805362E+03  0.76486805362E+03  0.00000000000E+00 0. -1.
         -1   -1    0    0    0  501 -0.00000000000E+00 -0.00000000000E+00 -0.50054454552E+02  0.50054454552E+02  0.00000000000E+00 0.  1.
         23    2    1    2    0    0  0.79542746988E+02  0.33086650393E+02  0.18156873111E+03  0.22135750675E+03  0.92790983648E+02 0.  0.
         24    2    1    2    0    0 -0.71789102985E+02  0.77565529216E+02  0.39680080275E+03  0.41772130156E+03  0.76616721991E+02 0.  0.
        -11    1    4    4    0    0 -0.57525667179E+02  0.22445815617E+02  0.29195634386E+03  0.29841501930E+03  0.00000000000E+00 0.  1.
         12    1    4    4    0    0 -0.14263435806E+02  0.55119713599E+02  0.10484445888E+03  0.11930628226E+03  0.00000000000E+00 0. -1.
        -13    1    3    3    0    0  0.41063054069E+02  0.31977229529E+02  0.20806078105E+02  0.56050071400E+02  0.00000000000E+00 0.  1.
         13    1    3    3    0    0  0.38479692919E+02  0.11094208642E+01  0.16076265301E+03  0.16530743535E+03  0.00000000000E+00 0. -1.
         21    1    1    2  502  501 -0.77536440036E+01 -0.11065217961E+03  0.13644406521E+03  0.17584369985E+03  0.00000000000E+00 0. -1.
<scales pt_clust_5="13000.00000" pt_clust_6="13000.00000" pt_clust_7="13000.00000" pt_clust_8="13000.00000" pt_clust_9="110.92350"></scales>
<clustering>
<clus scale="   76.617">  5  6 -1 -1</clus>
<clus scale="   92.791">  7  8 -1 -1</clus>
<clus scale="  110.924">  2  9  1 -1</clus>
<clus scale="  113.884">  1  5  2 -1</clus>
<clus scale="  113.884">  1  5  2 -1</clus>
</clustering>
</event>
<event>
 9    2  0.2869112E-005  0.9239407E+02  0.7546771E-02  0.1303954E+00
          2   -1    0    0  502    0  0.00000000000E+00  0.00000000000E+00  0.29276965706E+03  0.29276965706E+03  0.00000000000E+00 0. -1.
         -1   -1    0    0    0  501 -0.00000000000E+00 -0.00000000000E+00 -0.41567172383E+02  0.41567172383E+02  0.00000000000E+00 0.  1.
         23    2    1    2    0    0 -0.11016542938E+02  0.34479003162E+01  0.48896214852E+02  0.10452992045E+03  0.91664672621E+02 0.  0.
         24    2    1    2    0    0 -0.15341174006E+01  0.16358105999E+02  0.17750543496E+03  0.19567659445E+03  0.80692062970E+02 0.  0.
        -13    1    4    4    0    0 -0.22969785335E+02  0.34255577323E+02  0.48417537532E+02  0.63602779473E+02  0.00000000000E+00 0.  1.
         14    1    4    4    0    0  0.21435667934E+02 -0.17897471324E+02  0.12908789743E+03  0.13207381498E+03  0.00000000000E+00 0. -1.
        -13    1    3    3    0    0  0.33395729517E+02  0.69714356352E+01  0.49327935078E+02  0.59976002233E+02  0.00000000000E+00 0.  1.
         13    1    3    3    0    0 -0.44412272455E+02 -0.35235353191E+01 -0.43172022583E+00  0.44553918213E+02  0.00000000000E+00 0. -1.
         21    1    1    2  502  501  0.12550660339E+02 -0.19806006315E+02  0.24800834856E+02  0.34130314541E+02  0.00000000000E+00 0. -1.
<scales pt_clust_5="13000.00000" pt_clust_6="13000.00000" pt_clust_7="13000.00000" pt_clust_8="13000.00000" pt_clust_9="23.44775"></scales>
<clustering>
<clus scale="   23.448">  2  9  1 -1</clus>
<clus scale="   80.692">  5  6 -1 -1</clus>
<clus scale="   81.520">  1  5  2 -1</clus>
<clus scale="   91.665">  7  8 -1 -1</clus>
<clus scale="   81.520">  1  5  2 -1</clus>
</clustering>
</event>
<event>
 9    2  0.2869112E-005  0.9540257E+02  0.7546771E-02  0.1294971E+00
         -1   -1    0    0    0  501 -0.00000000000E+00  0.00000000000E+00  0.69233339240E+02  0.69233339240E+02  0.00000000000E+00 0.  1.
          2   -1    0    0  502    0  0.00000000000E+00 -0.00000000000E+00 -0.20366566340E+03  0.20366566340E+03  0.00000000000E+00 0. -1.
         23    2    1    2    0    0 -0.13597762358E+02 -0.17387989192E+02 -0.44351690597E+02  0.10152173261E+03  0.88613477661E+02 0.  0.
         24    2    1    2    0    0  0.10344805417E+02  0.42829100347E+02 -0.10700918296E+03  0.14064605382E+03  0.79931222818E+02 0.  0.
        -11    1    4    4    0    0  0.24968398423E+02 -0.15062671265E+02 -0.51164744660E+02  0.58890882839E+02  0.00000000000E+00 0.  1.
         12    1    4    4    0    0 -0.14623593006E+02  0.57891771612E+02 -0.55844438298E+02  0.81755170978E+02  0.00000000000E+00 0. -1.
        -13    1    3    3    0    0 -0.36681348301E+02 -0.27129063131E+02  0.52765401925E+01  0.45927652411E+02  0.00000000000E+00 0.  1.
         13    1    3    3    0    0  0.23083585943E+02  0.97410739391E+01 -0.49628230789E+02  0.55594080195E+02  0.00000000000E+00 0. -1.
         21    1    1    2  502  501  0.32529569411E+01 -0.25441111155E+02  0.16928549394E+02  0.30731216218E+02  0.00000000000E+00 0. -1.
<scales pt_clust_5="13000.00000" pt_clust_6="13000.00000" pt_clust_7="13000.00000" pt_clust_8="13000.00000" pt_clust_9="25.64823"></scales>
<clustering>
<clus scale="   25.648">  1  9  2 -1</clus>
<clus scale="   79.931">  5  6 -1 -1</clus>
<clus scale="   87.397">  2  5  1 -1</clus>
<clus scale="   88.613">  7  8 -1 -1</clus>
<clus scale="   87.397">  2  5  1 -1</clus>
</clustering>
</event>
<event>
 9    2  0.2869112E-005  0.1309864E+03  0.7546771E-02  0.1228098E+00
         -1   -1    0    0    0  501 -0.00000000000E+00  0.00000000000E+00  0.81539929671E+02  0.81539929671E+02  0.00000000000E+00 0.  1.
          2   -1    0    0  502    0  0.00000000000E+00 -0.00000000000E+00 -0.66047393813E+03  0.66047393813E+03  0.00000000000E+00 0. -1.
         23    2    1    2    0    0 -0.71066903552E+02  0.20547458419E+02  0.12176782221E+02  0.11684482827E+03  0.89619958938E+02 0.  0.
         24    2    1    2    0    0  0.71440750140E+02 -0.68434374443E+02 -0.54066310909E+03  0.55561140109E+03  0.81242766494E+02 0.  0.
        -11    1    4    4    0    0  0.21063551718E+02 -0.71451745070E+02 -0.26060528437E+03  0.27104268912E+03  0.00000000000E+00 0.  1.
         12    1    4    4    0    0  0.50377198421E+02  0.30173706268E+01 -0.28005782472E+03  0.28456871197E+03  0.00000000000E+00 0. -1.
        -11    1    3    3    0    0 -0.28502783640E+02  0.51169494977E+02  0.23654423927E+02  0.63168486311E+02  0.00000000000E+00 0. -1.
         11    1    3    3    0    0 -0.42564119912E+02 -0.30622036559E+02 -0.11477641706E+02  0.53676341958E+02  0.00000000000E+00 0.  1.
         21    1    1    2  502  501 -0.37384658807E+00  0.47886916025E+02 -0.50447681593E+02  0.69557638443E+02  0.00000000000E+00 0.  1.
<scales pt_clust_5="13000.00000" pt_clust_6="13000.00000" pt_clust_7="13000.00000" pt_clust_8="13000.00000" pt_clust_9="47.88838"></scales>
<clustering>
<clus scale="   47.888">  1  9  2 -1</clus>
<clus scale="   81.243">  5  6 -1 -1</clus>
<clus scale="   89.620">  7  8 -1 -1</clus>
<clus scale="  125.404">  2  5  1 -1</clus>
<clus scale="  125.404">  2  5  1 -1</clus>
</clustering>
</event>
<event>
 9    2  0.2869112E-005  0.3940799E+03  0.7546771E-02  0.1046026E+00
         -1   -1    0    0    0  501 -0.00000000000E+00  0.00000000000E+00  0.24125369035E+03  0.24125369035E+03  0.00000000000E+00 0.  1.
          2   -1    0    0  502    0  0.00000000000E+00 -0.00000000000E+00 -0.10773617561E+04  0.10773617561E+04  0.00000000000E+00 0. -1.
         24    2    1    2    0    0  0.38376265623E+03  0.34061167137E+02 -0.30926660689E+03  0.50076141597E+03  0.81744860165E+02 0.  0.
         23    2    1    2    0    0 -0.38327686209E+03  0.18232424280E+02 -0.60599076295E+03  0.72298850439E+03  0.90851518325E+02 0.  0.
        -11    1    3    3    0    0  0.27639065712E+03  0.21581287144E+02 -0.17282244075E+03  0.32668814384E+03  0.00000000000E+00 0.  1.
         12    1    3    3    0    0  0.10737199912E+03  0.12479879993E+02 -0.13644416614E+03  0.17407327214E+03  0.00000000000E+00 0. -1.
        -11    1    4    4    0    0 -0.13097939165E+03 -0.20513411548E+02 -0.14821513566E+03  0.19885705300E+03  0.00000000000E+00 0.  1.
         11    1    4    4    0    0 -0.25229747043E+03  0.38745835829E+02 -0.45777562730E+03  0.52413145138E+03  0.00000000000E+00 0. -1.
         21    1    1    2  502  501 -0.48579414331E+00 -0.52293591417E+02  0.79149304097E+02  0.94865526080E+02  0.00000000000E+00 0.  1.
<scales pt_clust_5="13000.00000" pt_clust_6="13000.00000" pt_clust_7="13000.00000" pt_clust_8="13000.00000" pt_clust_9="52.29585"></scales>
<clustering>
<clus scale="   52.296">  1  9  2 -1</clus>
<clus scale="   81.745">  5  6 -1 -1</clus>
<clus scale="   90.852">  7  8 -1 -1</clus>
<clus scale="  392.081">  1  5  2 -1</clus>
<clus scale="  394.080">  2  5  1 -1</clus>
</clustering>
</event>
<event>
 9    2  0.2869112E-005  0.1244993E+03  0.7546771E-02  0.1239969E+00
          2   -1    0    0  502    0  0.00000000000E+00  0.00000000000E+00  0.77575759900E+03  0.77575759900E+03  0.00000000000E+00 0. -1.
         -1   -1    0    0    0  501 -0.00000000000E+00 -0.00000000000E+00 -0.24879682335E+02  0.24879682335E+02  0.00000000000E+00 0.  1.
         23    2    1    2    0    0  0.16784358845E+02  0.61391828672E+02  0.20226747077E+03  0.23240292538E+03  0.95122650635E+02 0.  0.
         24    2    1    2    0    0 -0.24642237091E+02 -0.84841303526E+02  0.49155174708E+03  0.50604658198E+03  0.81576567980E+02 0.  0.
        -13    1    4    4    0    0  0.19791548795E+02 -0.31139105498E+02  0.73684650067E+02  0.82406170584E+02  0.00000000000E+00 0.  1.
         14    1    4    4    0    0 -0.44433785886E+02 -0.53702198027E+02  0.41786709701E+03  0.42364041140E+03  0.00000000000E+00 0. -1.
        -13    1    3    3    0    0 -0.15477129409E+02  0.22834277244E+02  0.40156746339E+01  0.27876000336E+02  0.00000000000E+00 0.  1.
         13    1    3    3    0    0  0.32261488254E+02  0.38557551428E+02  0.19825179614E+03  0.20452692504E+03  0.00000000000E+00 0. -1.
         21    1    1    2  502  501  0.78578782462E+01  0.23449474854E+02  0.57058698815E+02  0.62187773974E+02  0.00000000000E+00 0.  1.
<scales pt_clust_5="13000.00000" pt_clust_6="13000.00000" pt_clust_7="13000.00000" pt_clust_8="13000.00000" pt_clust_9="24.73104"></scales>
<clustering>
<clus scale="   24.731">  2  9  1 -1</clus>
<clus scale="   81.577">  5  6 -1 -1</clus>
<clus scale="   95.123">  7  8 -1 -1</clus>
<clus scale="  114.484">  1  5  2 -1</clus>
<clus scale="  114.484">  1  5  2 -1</clus>
</clustering>
</event>
<event>
 9    2  0.2869112E-005  0.1008803E+03  0.7546771E-02  0.1284390E+00
          2   -1    0    0  502    0  0.00000000000E+00  0.00000000000E+00  0.58157346478E+03  0.58157346478E+03  0.00000000000E+00 0. -1.
         -1   -1    0    0    0  501 -0.00000000000E+00 -0.00000000000E+00 -0.80633043060E+02  0.80633043060E+02  0.00000000000E+00 0.  1.
         23    2    1    2    0    0 -0.15112510324E+02  0.63257800176E+02  0.88460054627E+00  0.11245871526E+03  0.91740083214E+02 0.  0.
         24    2    1    2    0    0  0.43324652908E+01 -0.40160420424E+02  0.51329578867E+03  0.52102506532E+03  0.79767928409E+02 0.  0.
        -11    1    4    4    0    0 -0.35193735359E+02 -0.16248762601E+02  0.15547351824E+03  0.16023306827E+03  0.00000000000E+00 0.  1.
         12    1    4    4    0    0  0.39526200650E+02 -0.23911657823E+02  0.35782227043E+03  0.36079199705E+03  0.00000000000E+00 0. -1.
        -13    1    3    3    0    0 -0.65674815240E+01  0.44201126966E+02  0.45143250416E+02  0.63519953532E+02  0.00000000000E+00 0. -1.
         13    1    3    3    0    0 -0.85450288001E+01  0.19056673210E+02 -0.44258649870E+02  0.48938761726E+02  0.00000000000E+00 0.  1.
         21    1    1    2  502  501  0.10780045033E+02 -0.23097379752E+02 -0.13239967491E+02  0.28722727265E+02  0.00000000000E+00 0.  1.
<scales pt_clust_5="13000.00000" pt_clust_6="13000.00000" pt_clust_7="13000.00000" pt_clust_8="13000.00000" pt_clust_9="25.48918"></scales>
<clustering>
<clus scale="   25.489">  2  9  1 -1</clus>
<clus scale="   79.768">  5  6 -1 -1</clus>
<clus scale="   90.131">  1  5  2 -1</clus>
<clus scale="   91.740">  7  8 -1 -1</clus>
<clus scale="   90.131">  1  5  2 -1</clus>
</clustering>
</event>
<event>
 9    2  0.2869112E-005  0.1015310E+03  0.7546771E-02  0.1279916E+00
         -1   -1    0    0    0  501 -0.00000000000E+00  0.00000000000E+00  0.79937867989E+02  0.79937867989E+02  0.00000000000E+00 0.  1.
          2   -1    0    0  502    0  0.00000000000E+00 -0.00000000000E+00 -0.16946434066E+03  0.16946434066E+03  0.00000000000E+00 0. -1.
         23    2    1    2    0    0  0.37994257283E+02  0.27669750182E+02 -0.35788828708E+02  0.11113745674E+03  0.94135622207E+02 0.  0.
         24    2    1    2    0    0 -0.32304442925E+02 -0.81502066170E+01 -0.65330457466E+02  0.11486005381E+03  0.88401133409E+02 0.  0.
        -11    1    4    4    0    0  0.27375938607E+02 -0.19558506814E+02 -0.25337909923E+02  0.42118723659E+02  0.00000000000E+00 0.  1.
         12    1    4    4    0    0 -0.59680381532E+02  0.11408300197E+02 -0.39992547544E+02  0.72741330152E+02  0.00000000000E+00 0. -1.
        -13    1    3    3    0    0  0.61642696216E+01  0.41781748234E+02 -0.56564449669E+02  0.70592136048E+02  0.00000000000E+00 0. -1.
         13    1    3    3    0    0  0.31829987661E+02 -0.14111998052E+02  0.20775620961E+02  0.40545320690E+02  0.00000000000E+00 0.  1.
         21    1    1    2  502  501 -0.56898143577E+01 -0.19519543565E+02  0.11592813502E+02  0.23404698103E+02  0.00000000000E+00 0.  1.
<scales pt_clust_5="13000.00000" pt_clust_6="13000.00000" pt_clust_7="13000.00000" pt_clust_8="13000.00000" pt_clust_9="20.33191"></scales>
<clustering>
<clus scale="   20.332">  1  9  2 -1</clus>
<clus scale="   88.401">  5  6 -1 -1</clus>
<clus scale="   94.136">  7  8 -1 -1</clus>
<clus scale="   96.238">  2  5  1 -1</clus>
<clus scale="   96.238">  2  5  1 -1</clus>
</clustering>
</event>
<event>
 9    2  0.3745430E-005  0.1019314E+03  0.7546771E-02  0.1283943E+00
          4   -1    0    0  502    0  0.00000000000E+00  0.00000000000E+00  0.59097198334E+02  0.59097198334E+02  0.00000000000E+00 0. -1.
         -3   -1    0    0    0  501 -0.00000000000E+00 -0.00000000000E+00 -0.48324117915E+03  0.48324117915E+03  0.00000000000E+00 0.  1.
         24    2    1    2    0    0  0.25109646380E+02 -0.46290780917E+02 -0.36675395800E+03  0.37938740605E+03  0.81565969716E+02 0.  0.
         23    2    1    2    0    0 -0.22717712121E+02  0.21073387656E+02 -0.10691009319E+01  0.10119593509E+03  0.96329082791E+02 0.  0.
        -13    1    3    3    0    0  0.38898086368E+02 -0.49872174396E+02 -0.35590386246E+03  0.36148008827E+03  0.00000000000E+00 0.  1.
         14    1    3    3    0    0 -0.13788439989E+02  0.35813934789E+01 -0.10850095542E+02  0.17907317774E+02  0.00000000000E+00 0. -1.
        -13    1    4    4    0    0 -0.54641664563E+02  0.36515173972E+02 -0.80464192182E-01  0.65719676741E+02  0.00000000000E+00 0.  1.
         13    1    4    4    0    0  0.31923952442E+02 -0.15441786316E+02 -0.98863673975E+00  0.35476258353E+02  0.00000000000E+00 0. -1.
         21    1    1    2  502  501 -0.23919342584E+01  0.25217393261E+02 -0.56320921879E+02  0.61755036343E+02  0.00000000000E+00 0. -1.
<scales pt_clust_5="13000.00000" pt_clust_6="13000.00000" pt_clust_7="13000.00000" pt_clust_8="13000.00000" pt_clust_9="25.33058"></scales>
<clustering>
<clus scale="   25.331">  2  9  1 -1</clus>
<clus scale="   81.566">  5  6 -1 -1</clus>
<clus scale="   88.112">  2  5  1 -1</clus>
<clus scale="   96.329">  7  8 -1 -1</clus>
<clus scale="  101.931">  1  5  2 -1</clus>
</clustering>
</event>
<event>
 9    2  0.2869112E-005  0.1513303E+03  0.7546771E-02  0.1200752E+00
          2   -1    0    0  502    0  0.00000000000E+00  0.00000000000E+00  0.32353939610E+03  0.32353939610E+03  0.00000000000E+00 0. -1.
         -1   -1    0    0    0  501 -0.00000000000E+00 -0.00000000000E+00 -0.10751560428E+03  0.10751560428E+03  0.00000000000E+00 0.  1.
         23    2    1    2    0    0  0.82692640259E+02 -0.10818796576E+03  0.92709002227E+02  0.18864498790E+03  0.91919876413E+02 0.  0.
         24    2    1    2    0    0 -0.63238071026E+02  0.91674981289E+02  0.15115066525E+03  0.20464766492E+03  0.81429646492E+02 0.  0.
        -11    1    4    4    0    0 -0.17810926986E+02  0.69369930858E+02  0.38867984347E+02  0.81487033536E+02  0.00000000000E+00 0.  1.
         12    1    4    4    0    0 -0.45427144040E+02  0.22305050431E+02  0.11228268091E+03  0.12316063138E+03  0.00000000000E+00 0. -1.
        -11    1    3    3    0    0  0.28393783748E+02 -0.99780157573E+02  0.36327458467E+02  0.10991801963E+03  0.00000000000E+00 0.  1.
         11    1    3    3    0    0  0.54298856511E+02 -0.84078081846E+01  0.56381543760E+02  0.78726968274E+02  0.00000000000E+00 0. -1.
         21    1    1    2  502  501 -0.19454569233E+02  0.16512984469E+02 -0.27835875660E+02  0.37762347568E+02  0.00000000000E+00 0. -1.
<scales pt_clust_5="13000.00000" pt_clust_6="13000.00000" pt_clust_7="13000.00000" pt_clust_8="13000.00000" pt_clust_9="25.51782"></scales>
<clustering>
<clus scale="   25.518">  2  9  1 -1</clus>
<clus scale="   81.430">  5  6 -1 -1</clus>
<clus scale="   91.920">  7  8 -1 -1</clus>
<clus scale="  145.198">  1  5  2 -1</clus>
<clus scale="  145.198">  1  5  2 -1</clus>
</clustering>
</event>
<event>
 9    2  0.2869112E-005  0.1087567E+03  0.7546771E-02  0.1266374E+00
         -1   -1    0    0    0  501 -0.00000000000E+00  0.00000000000E+00  0.13777794205E+03  0.13777794205E+03  0.00000000000E+00 0.  1.
          2   -1    0    0  502    0  0.00000000000E+00 -0.00000000000E+00 -0.15092650782E+03  0.15092650782E+03  0.00000000000E+00 0. -1.
         23    2    1    2    0    0 -0.59009484762E+02 -0.23060551022E+02  0.20533035098E+02  0.11285496361E+03  0.91108336472E+02 0.  0.
         24    2    1    2    0    0  0.59021260713E+02  0.44144502157E+00 -0.76773025693E+02  0.12718230032E+03  0.82447170661E+02 0.  0.
        -13    1    4    4    0    0  0.68044311611E+02  0.19218949952E+02 -0.31619303113E+02  0.77454352423E+02  0.00000000000E+00 0.  1.
         14    1    4    4    0    0 -0.90230508983E+01 -0.18777504930E+02 -0.45153722580E+02  0.49727947894E+02  0.00000000000E+00 0. -1.
        -11    1    3    3    0    0  0.17134298567E+02 -0.27483125847E+02  0.16816204910E+02  0.36492343598E+02  0.00000000000E+00 0. -1.
         11    1    3    3    0    0 -0.76143783329E+02  0.44225748252E+01  0.37168301876E+01  0.76362620007E+02  0.00000000000E+00 0.  1.
         21    1    1    2  502  501 -0.11775950968E-01  0.22619106000E+02  0.43091424828E+02  0.48667185953E+02  0.00000000000E+00 0.  1.
<scales pt_clust_5="13000.00000" pt_clust_6="13000.00000" pt_clust_7="13000.00000" pt_clust_8="13000.00000" pt_clust_9="22.61911"></scales>
<clustering>
<clus scale="   22.619">  1  9  2 -1</clus>
<clus scale="   82.447">  5  6 -1 -1</clus>
<clus scale="   91.108">  7  8 -1 -1</clus>
<clus scale="  101.611">  2  5  1 -1</clus>
<clus scale="  101.611">  2  5  1 -1</clus>
</clustering>
</event>
<event>
 9    2  0.2869112E-005  0.1238605E+03  0.7546771E-02  0.1237614E+00
         -1   -1    0    0    0  501 -0.00000000000E+00  0.00000000000E+00  0.17727470871E+03  0.17727470871E+03  0.00000000000E+00 0.  1.
          2   -1    0    0  502    0  0.00000000000E+00 -0.00000000000E+00 -0.22811485738E+03  0.22811485738E+03  0.00000000000E+00 0. -1.
         23    2    1    2    0    0  0.80173070166E+01 -0.10237147034E+03  0.11256663976E+03  0.17020770513E+03  0.75863161994E+02 0.  0.
         24    2    1    2    0    0 -0.35170799708E+02  0.88294422796E+02 -0.16311540492E+03  0.20459493014E+03  0.78864186209E+02 0.  0.
        -13    1    4    4    0    0 -0.35915270436E+02  0.53455259728E+02 -0.38127893394E+02  0.74840548486E+02  0.00000000000E+00 0.  1.
         14    1    4    4    0    0  0.74447072792E+00  0.34839163068E+02 -0.12498751153E+03  0.12975438165E+03  0.00000000000E+00 0. -1.
        -13    1    3    3    0    0 -0.14357096611E+02 -0.54281430376E+02  0.13365109590E+02  0.57716774521E+02  0.00000000000E+00 0. -1.
         13    1    3    3    0    0  0.22374403628E+02 -0.48090039961E+02  0.99201530168E+02  0.11249093061E+03  0.00000000000E+00 0.  1.
         21    1    1    2  502  501  0.27153492691E+02  0.14077047540E+02 -0.29138350545E+00  0.30586930822E+02  0.00000000000E+00 0.  1.
<scales pt_clust_5="13000.00000" pt_clust_6="13000.00000" pt_clust_7="13000.00000" pt_clust_8="13000.00000" pt_clust_9="30.58554"></scales>
<clustering>
<clus scale="   30.586">  1  9  2 -1</clus>
<clus scale="   75.863">  7  8 -1 -1</clus>
<clus scale="   78.864">  5  6 -1 -1</clus>
<clus scale="  121.972">  1  7  2 -1</clus>
<clus scale="  123.860">  2  5  1 -1</clus>
</clustering>
</event>
<event>
 9    2  0.2869112E-005  0.1221331E+03  0.7546771E-02  0.1250337E+00
          2   -1    0    0  502    0  0.00000000000E+00  0.00000000000E+00  0.45553828607E+03  0.45553828607E+03  0.00000000000E+00 0. -1.
         -1   -1    0    0    0  501 -0.00000000000E+00 -0.00000000000E+00 -0.56302894776E+02  0.56302894776E+02  0.00000000000E+00 0.  1.
         23    2    1    2    0    0  0.20327096210E+02 -0.43406261957E+02  0.12562813625E+03  0.16278618232E+03  0.91758477100E+02 0.  0.
         24    2    1    2    0    0  0.50741729458E+02 -0.36911044766E+02  0.18656413583E+03  0.21093131357E+03  0.75820142015E+02 0.  0.
        -11    1    4    4    0    0  0.34223564859E+02 -0.27373387114E+02  0.18678382338E+03  0.19185606946E+03  0.00000000000E+00 0.  1.
         12    1    4    4    0    0  0.16518164599E+02 -0.95376576514E+01 -0.21968755418E+00  0.19075244109E+02  0.00000000000E+00 0. -1.
        -13    1    3    3    0    0 -0.42760915478E+01 -0.43470550304E+02  0.13057777068E+03  0.13768997022E+03  0.00000000000E+00 0. -1.
         13    1    3    3    0    0  0.24603187758E+02  0.64288347672E-01 -0.49496344324E+01  0.25096212102E+02  0.00000000000E+00 0.  1.
         21    1    1    2  502  501 -0.71068825668E+02  0.80317306722E+02  0.87043119218E+02  0.13812368495E+03  0.00000000000E+00 0. -1.
<scales pt_clust_5="13000.00000" pt_clust_6="13000.00000" pt_clust_7="13000.00000" pt_clust_8="13000.00000" pt_clust_9="80.60316"></scales>
<clustering>
<clus scale="   75.820">  5  6 -1 -1</clus>
<clus scale="   91.758">  7  8 -1 -1</clus>
<clus scale="   98.417">  1  5  2 -1</clus>
<clus scale="   80.603">  1  9  2 -1</clus>
<clus scale="   98.417">  1  5  2 -1</clus>
</clustering>
</event>
<event>
 9    2  0.2869112E-005  0.9451011E+02  0.7546771E-02  0.1299274E+00
          2   -1    0    0  502    0  0.00000000000E+00  0.00000000000E+00  0.14293019224E+03  0.14293019224E+03  0.00000000000E+00 0. -1.
         -1   -1    0    0    0  501 -0.00000000000E+00 -0.00000000000E+00 -0.36612468958E+03  0.36612468958E+03  0.00000000000E+00 0.  1.
         23    2    1    2    0    0  0.19960443059E+02 -0.22576497347E+02  0.14072184144E+02  0.97507146301E+02  0.91659695034E+02 0.  0.
         24    2    1    2    0    0  0.44028438099E+02  0.44951244663E+01  0.58528449623E+02  0.10837076979E+03  0.79749199527E+02 0.  0.
        -11    1    4    4    0    0  0.30754469213E+02 -0.22616090780E+02  0.66917189639E+02  0.77040477724E+02  0.00000000000E+00 0.  1.
         12    1    4    4    0    0  0.13273968886E+02  0.27111215247E+02 -0.83887400161E+01  0.31330292070E+02  0.00000000000E+00 0. -1.
        -13    1    3    3    0    0  0.46787746995E+02  0.15718297323E+02  0.29487736651E+01  0.49445458899E+02  0.00000000000E+00 0.  1.
         13    1    3    3    0    0 -0.26827303936E+02 -0.38294794670E+02  0.11123410479E+02  0.48061687403E+02  0.00000000000E+00 0. -1.
         21    1    1    2  502  501 -0.63988881157E+02  0.18081372881E+02 -0.29579513111E+03  0.30317696573E+03  0.00000000000E+00 0.  1.
<scales pt_clust_5="13000.00000" pt_clust_6="13000.00000" pt_clust_7="13000.00000" pt_clust_8="13000.00000" pt_clust_9="66.49446"></scales>
<clustering>
<clus scale="   66.494">  2  9  1 -1</clus>
<clus scale="   79.749">  5  6 -1 -1</clus>
<clus scale="   83.010">  1  5  2 -1</clus>
<clus scale="   91.660">  7  8 -1 -1</clus>
<clus scale="   83.010">  1  5  2 -1</clus>
</clustering>
</event>
<event>
 9    2  0.2869112E-005  0.9624012E+02  0.7546771E-02  0.1288659E+00
          2   -1    0    0  502    0  0.00000000000E+00  0.00000000000E+00  0.85388917836E+03  0.85388917836E+03  0.00000000000E+00 0. -1.
         -1   -1    0    0    0  501 -0.00000000000E+00 -0.00000000000E+00 -0.31750101404E+03  0.31750101404E+03  0.00000000000E+00 0.  1.
         23    2    1    2    0    0 -0.20983270370E+02  0.29095256392E+02 -0.24073759106E+03  0.25974494575E+03  0.90697395299E+02 0.  0.
         24    2    1    2    0    0 -0.85672609289E+01 -0.29687250417E+02  0.83824472186E+03  0.84375480239E+03  0.91176872286E+02 0.  0.
        -13    1    4    4    0    0  0.99839071342E+01 -0.33319378336E+02  0.11228608538E+03  0.11755009291E+03  0.00000000000E+00 0.  1.
         14    1    4    4    0    0 -0.18551168063E+02  0.36321279185E+01  0.72595863648E+03  0.72620470948E+03  0.00000000000E+00 0. -1.
        -11    1    3    3    0    0  0.15885997847E+02 -0.26189678019E+02 -0.64757316953E+02  0.71636403185E+02  0.00000000000E+00 0. -1.
         11    1    3    3    0    0 -0.36869268217E+02  0.55284934411E+02 -0.17598027411E+03  0.18810854257E+03  0.00000000000E+00 0.  1.
         21    1    1    2  502  501  0.29550531299E+02  0.59199402538E+00 -0.61118966488E+02  0.67890444258E+02  0.00000000000E+00 0.  1.
<scales pt_clust_5="13000.00000" pt_clust_6="13000.00000" pt_clust_7="13000.00000" pt_clust_8="13000.00000" pt_clust_9="29.55646"></scales>
<clustering>
<clus scale="   29.556">  2  9  1 -1</clus>
<clus scale="   90.697">  7  8 -1 -1</clus>
<clus scale="   91.177">  5  6 -1 -1</clus>
<clus scale="   95.786">  2  7  1 -1</clus>
<clus scale="   96.240">  1  5  2 -1</clus>
</clustering>
</event>
<event>
 9    2  0.2869112E-005  0.1487524E+03  0.7546771E-02  0.1214380E+00
          4   -1    0    0  502    0  0.00000000000E+00  0.00000000000E+00  0.20395512279E+03  0.20395512279E+03  0.00000000000E+00 0. -1.
         -3   -1    0    0    0  501 -0.00000000000E+00 -0.00000000000E+00 -0.22552684945E+03  0.22552684945E+03  0.00000000000E+00 0.  1.
         24    2    1    2    0    0  0.25050094536E+01 -0.79899951550E+02 -0.56036773756E+02  0.12715278993E+03  0.81470452583E+02 0.  0.
         23    2    1    2    0    0  0.11366297207E+03  0.34097797853E+01  0.65163647692E+02  0.15989270389E+03  0.91588634441E+02 0.  0.
        -11    1    3    3    0    0 -0.23415317159E+02 -0.34371866994E+02  0.10081993124E+02  0.42794262509E+02  0.00000000000E+00 0.  1.
         12    1    3    3    0    0  0.25920326613E+02 -0.45528084556E+02 -0.66118766880E+02  0.84358527422E+02  0.00000000000E+00 0. -1.
        -11    1    4    4    0    0  0.50757922671E+02  0.12519548943E+02 -0.17937123822E+02  0.55270663381E+02  0.00000000000E+00 0.  1.
         11    1    4    4    0    0  0.62905049395E+02 -0.91097691577E+01  0.83100771514E+02  0.10462204051E+03  0.00000000000E+00 0. -1.
         21    1    1    2  502  501 -0.11616798152E+03  0.76490171765E+02 -0.30698600592E+02  0.14243647842E+03  0.00000000000E+00 0.  1.
<scales pt_clust_5="13000.00000" pt_clust_6="13000.00000" pt_clust_7="13000.00000" pt_clust_8="13000.00000" pt_clust_9="117.21259"></scales>
<clustering>
<clus scale="   81.470">  5  6 -1 -1</clus>
<clus scale="   91.589">  7  8 -1 -1</clus>
<clus scale="  114.139">  2  5  1 -1</clus>
<clus scale="  117.213">  2  9  1 -1</clus>
<clus scale="  148.752">  1  5  2 -1</clus>
</clustering>
</event>
<event>
 9    2  0.2869112E-005  0.2151733E+03  0.7546771E-02  0.1141298E+00
         -1   -1    0    0    0  501 -0.00000000000E+00  0.00000000000E+00  0.70470135918E+02  0.70470135918E+02  0.00000000000E+00 0.  1.
          2   -1    0    0  502    0  0.00000000000E+00 -0.00000000000E+00 -0.90975699726E+03  0.90975699726E+03  0.00000000000E+00 0. -1.
         24    2    1    2    0    0  0.44547044724E+01  0.17271281717E+03 -0.17783639459E+03  0.25832534062E+03  0.72502667262E+02 0.  0.
         23    2    1    2    0    0  0.15569297091E+02 -0.18660137137E+03 -0.66220872927E+03  0.69752090787E+03  0.11380923065E+03 0.  0.
        -13    1    3    3    0    0  0.34616235324E+02  0.64210288772E+02 -0.87743205756E+02  0.11410571891E+03  0.00000000000E+00 0.  1.
         14    1    3    3    0    0 -0.30161530851E+02  0.10850252839E+03 -0.90093188838E+02  0.14421962171E+03  0.00000000000E+00 0. -1.
        -11    1    4    4    0    0  0.42748823514E+02 -0.18380771893E+03 -0.61099604246E+03  0.63947549081E+03  0.00000000000E+00 0. -1.
         11    1    4    4    0    0 -0.27179526423E+02 -0.27936524384E+01 -0.51212686812E+02  0.58045417054E+02  0.00000000000E+00 0.  1.
         21    1    1    2  502  501 -0.20024001563E+02  0.13888554201E+02  0.75826251877E+00  0.24380884693E+02  0.00000000000E+00 0.  1.
<scales pt_clust_5="13000.00000" pt_clust_6="13000.00000" pt_clust_7="13000.00000" pt_clust_8="13000.00000" pt_clust_9="24.36909"></scales>
<clustering>
<clus scale="   24.369">  1  9  2 -1</clus>
<clus scale="   72.503">  5  6 -1 -1</clus>
<clus scale="  113.809">  7  8 -1 -1</clus>
<clus scale="  196.478">  1  5  2 -1</clus>
<clus scale="  215.173">  2  5  1 -1</clus>
</clustering>
</event>
<event>
 9    2  0.2869112E-005  0.1249619E+03  0.7546771E-02  0.1237930E+00
          2   -1    0    0  502    0  0.00000000000E+00  0.00000000000E+00  0.28006612286E+03  0.28006612286E+03  0.00000000000E+00 0. -1.
         -1   -1    0    0    0  501 -0.00000000000E+00 -0.00000000000E+00 -0.30541890044E+03  0.30541890044E+03  0.00000000000E+00 0.  1.
         24    2    1    2    0    0 -0.78028881009E+02 -0.22646775747E+02 -0.79539467829E+02  0.13875426339E+03  0.79528837177E+02 0.  0.
         23    2    1    2    0    0  0.70284221865E+02  0.54256282255E+02  0.23302880070E+03  0.26495166013E+03  0.89517284595E+02 0.  0.
        -11    1    3    3    0    0 -0.87027810508E+02 -0.35315606503E+02 -0.79752461295E+02  0.12321317684E+03  0.00000000000E+00 0.  1.
         12    1    3    3    0    0  0.89989294994E+01  0.12668830756E+02  0.21299346602E+00  0.15541086548E+02  0.00000000000E+00 0. -1.
        -11    1    4    4    0    0  0.32569436713E+02 -0.16282218730E+02  0.31564284079E+02  0.48189032819E+02  0.00000000000E+00 0.  1.
         11    1    4    4    0    0  0.37714785152E+02  0.70538500986E+02  0.20146451663E+03  0.21676262731E+03  0.00000000000E+00 0. -1.
         21    1    1    2  502  501  0.77446591440E+01 -0.31609506508E+02 -0.17884211045E+03  0.18177909978E+03  0.00000000000E+00 0.  1.
<scales pt_clust_5="13000.00000" pt_clust_6="13000.00000" pt_clust_7="13000.00000" pt_clust_8="13000.00000" pt_clust_9="32.54444"></scales>
<clustering>
<clus scale="   32.544">  2  9  1 -1</clus>
<clus scale="   79.529">  5  6 -1 -1</clus>
<clus scale="   89.517">  7  8 -1 -1</clus>
<clus scale="  118.013">  2  5  1 -1</clus>
<clus scale="  124.962">  1  5  2 -1</clus>
</clustering>
</event>
<event>
 9    2  0.2869112E-005  0.1098671E+03  0.7546771E-02  0.1264761E+00
         -1   -1    0    0    0  501 -0.00000000000E+00  0.00000000000E+00  0.24017487845E+03  0.24017487845E+03  0.00000000000E+00 0.  1.
          2   -1    0    0  502    0  0.00000000000E+00 -0.00000000000E+00 -0.77762359784E+02  0.77762359784E+02  0.00000000000E+00 0. -1.
         23    2    1    2    0    0 -0.55461753905E+02 -0.43969661169E+02  0.15417900291E+03  0.19299033944E+03  0.92004178851E+02 0.  0.
         24    2    1    2    0    0  0.25508852812E+02  0.28380006100E+02  0.10356078210E+02  0.91113204047E+02  0.82086791128E+02 0.  0.
        -11    1    4    4    0    0 -0.16206189550E+02  0.40959683205E+02 -0.62397994147E+01  0.44489002290E+02  0.00000000000E+00 0.  1.
         12    1    4    4    0    0  0.41715042362E+02 -0.12579677105E+02  0.16595877625E+02  0.46624201757E+02  0.00000000000E+00 0. -1.
        -13    1    3    3    0    0 -0.91206162155E+01 -0.63835552177E+02  0.72744447238E+02  0.97210688537E+02  0.00000000000E+00 0. -1.
         13    1    3    3    0    0 -0.46341137689E+02  0.19865891008E+02  0.81434555677E+02  0.95779650898E+02  0.00000000000E+00 0.  1.
         21    1    1    2  502  501  0.29952901093E+02  0.15589655069E+02 -0.21225624596E+01  0.33833694750E+02  0.00000000000E+00 0. -1.
<scales pt_clust_5="13000.00000" pt_clust_6="13000.00000" pt_clust_7="13000.00000" pt_clust_8="13000.00000" pt_clust_9="33.76705"></scales>
<clustering>
<clus scale="   33.767">  2  9  1 -1</clus>
<clus scale="   82.087">  5  6 -1 -1</clus>
<clus scale="   92.004">  7  8 -1 -1</clus>
<clus scale="  101.707">  2  5  1 -1</clus>
<clus scale="   33.767">  2  5  1 -1</clus>
</clustering>
</event>
<event>
 9    2  0.2869112E-005  0.1027971E+03  0.7546771E-02  0.1277621E+00
          2   -1    0    0  502    0  0.00000000000E+00  0.00000000000E+00  0.38090852468E+03  0.38090852468E+03  0.00000000000E+00 0. -1.
         -1   -1    0    0    0  501 -0.00000000000E+00 -0.00000000000E+00 -0.19836194920E+03  0.19836194920E+03  0.00000000000E+00 0.  1.
         23    2    1    2    0    0  0.26279531697E+02 -0.87182993309E+01 -0.16479828751E+03  0.19352588586E+03  0.97607225149E+02 0.  0.
         24    2    1    2    0    0 -0.29157826301E+02 -0.14834937790E+02  0.34872916597E+03  0.36197578802E+03  0.91346514470E+02 0.  0.
        -13    1    4    4    0    0  0.15550181545E+02  0.20512910088E+02  0.36961836252E+02  0.45041813523E+02  0.00000000000E+00 0.  1.
         14    1    4    4    0    0 -0.44708007846E+02 -0.35347847878E+02  0.31176732971E+03  0.31693397450E+03  0.00000000000E+00 0. -1.
        -11    1    3    3    0    0  0.56916933153E+02  0.15146883670E+02 -0.12356011091E+03  0.13687975151E+03  0.00000000000E+00 0.  1.
         11    1    3    3    0    0 -0.30637401456E+02 -0.23865183001E+02 -0.41238176599E+02  0.56646134350E+02  0.00000000000E+00 0. -1.
         21    1    1    2  502  501  0.28782946040E+01  0.23553237121E+02 -0.13843029830E+01  0.23768800000E+02  0.00000000000E+00 0.  1.
<scales pt_clust_5="13000.00000" pt_clust_6="13000.00000" pt_clust_7="13000.00000" pt_clust_8="13000.00000" pt_clust_9="23.72845"></scales>
<clustering>
<clus scale="   23.728">  2  9  1 -1</clus>
<clus scale="   91.347">  5  6 -1 -1</clus>
<clus scale="   96.872">  1  5  2 -1</clus>
<clus scale="   97.607">  7  8 -1 -1</clus>
<clus scale="   96.872">  1  5  2 -1</clus>
</clustering>
</event>
<event>
 9    2  0.2869112E-005  0.1131180E+03  0.7546771E-02  0.1255681E+00
          2   -1    0    0  502    0  0.00000000000E+00  0.00000000000E+00  0.89873944069E+03  0.89873944069E+03  0.00000000000E+00 0. -1.
         -1   -1    0    0    0  501 -0.00000000000E+00 -0.00000000000E+00 -0.54492360533E+02  0.54492360533E+02  0.00000000000E+00 0.  1.
         23    2    1    2    0    0 -0.81590987688E+02  0.54228600341E+02  0.91049603348E+02  0.16212947446E+03  0.91641179895E+02 0.  0.
         24    2    1    2    0    0  0.48988017676E+02 -0.39303205585E+02  0.74669908369E+03  0.75466127608E+03  0.89496101480E+02 0.  0.
        -13    1    4    4    0    0 -0.17748797072E+02  0.14651738372E+02  0.13034892382E+03  0.13236515847E+03  0.00000000000E+00 0.  1.
         14    1    4    4    0    0  0.66736814748E+02 -0.53954943957E+02  0.61635015987E+03  0.62229611761E+03  0.00000000000E+00 0. -1.
        -13    1    3    3    0    0 -0.24392079020E+02  0.13505142845E+02 -0.17450337316E+02  0.32891893753E+02  0.00000000000E+00 0.  1.
         13    1    3    3    0    0 -0.57198908668E+02  0.40723457495E+02  0.10849994066E+03  0.12923758071E+03  0.00000000000E+00 0. -1.
         21    1    1    2  502  501  0.32602970012E+02 -0.14925394756E+02  0.64983931230E+01  0.36441050690E+02  0.00000000000E+00 0.  1.
<scales pt_clust_5="13000.00000" pt_clust_6="13000.00000" pt_clust_7="13000.00000" pt_clust_8="13000.00000" pt_clust_9="35.85695"></scales>
<clustering>
<clus scale="   35.857">  2  9  1 -1</clus>
<clus scale="   89.496">  5  6 -1 -1</clus>
<clus scale="   91.641">  7  8 -1 -1</clus>
<clus scale="  111.387">  1  5  2 -1</clus>
<clus scale="  111.387">  1  5  2 -1</clus>
</clustering>
</event>
<event>
 9    2  0.2869112E-005  0.3008864E+03  0.7546771E-02  0.1123987E+00
         -1   -1    0    0    0  501 -0.00000000000E+00  0.00000000000E+00  0.24571917112E+03  0.24571917112E+03  0.00000000000E+00 0.  1.
          2   -1    0    0  502    0  0.00000000000E+00 -0.00000000000E+00 -0.74504202487E+03  0.74504202487E+03  0.00000000000E+00 0. -1.
         23    2    1    2    0    0  0.49763987299E+02  0.10977004260E+02  0.44715122446E+02  0.11847128166E+03  0.97154790657E+02 0.  0.
         24    2    1    2    0    0  0.38790051135E+02 -0.29049861450E+03 -0.48807197648E+03  0.57378306109E+03  0.71544628573E+02 0.  0.
        -11    1    4    4    0    0  0.37042912782E+02 -0.63467318232E+02 -0.14192493514E+03  0.15982166651E+03  0.00000000000E+00 0.  1.
         12    1    4    4    0    0  0.17471383531E+01 -0.22703129627E+03 -0.34614704134E+03  0.41396139458E+03  0.00000000000E+00 0. -1.
        -13    1    3    3    0    0  0.22156970067E+02 -0.40205985531E+02  0.38634432636E+02  0.60000599832E+02  0.00000000000E+00 0. -1.
         13    1    3    3    0    0  0.27607017232E+02  0.51182989791E+02  0.60806898096E+01  0.58470681824E+02  0.00000000000E+00 0.  1.
         21    1    1    2  502  501 -0.88554038434E+02  0.27952161024E+03 -0.55965999716E+02  0.29850685325E+03  0.00000000000E+00 0.  1.
<scales pt_clust_5="13000.00000" pt_clust_6="13000.00000" pt_clust_7="13000.00000" pt_clust_8="13000.00000" pt_clust_9="292.25669"></scales>
<clustering>
<clus scale="   71.545">  5  6 -1 -1</clus>
<clus scale="   97.155">  7  8 -1 -1</clus>
<clus scale="  109.709">  1  7  2 -1</clus>
<clus scale="  292.257">  1  9  2 -1</clus>
<clus scale="  300.886">  2  5  1 -1</clus>
</clustering>
</event>
<event>
 9    2  0.2869112E-005  0.1492639E+03  0.7546771E-02  0.1203318E+00
          2   -1    0    0  502    0  0.00000000000E+00  0.00000000000E+00  0.81845580570E+03  0.81845580570E+03  0.00000000000E+00 0. -1.
         -1   -1    0    0    0  501 -0.00000000000E+00 -0.00000000000E+00 -0.45658311507E+02  0.45658311507E+02  0.00000000000E+00 0.  1.
         24    2    1    2    0    0 -0.93770317357E+02  0.11467388584E+03  0.30926722999E+03  0.35242993944E+03  0.81349063659E+02 0.  0.
         23    2    1    2    0    0  0.69049780501E+02 -0.76345342329E+02  0.43849384056E+03  0.45965529445E+03  0.91704187594E+02 0.  0.
        -11    1    3    3    0    0 -0.64587577651E+02  0.50824257922E+02  0.88530983233E+02  0.12079898746E+03  0.00000000000E+00 0.  1.
         12    1    3    3    0    0 -0.29182739707E+02  0.63849627923E+02  0.22073624675E+03  0.23163095198E+03  0.00000000000E+00 0. -1.
        -11    1    4    4    0    0 -0.49753579609E+01 -0.56108751039E+02  0.24732188481E+03  0.25365539780E+03  0.00000000000E+00 0. -1.
         11    1    4    4    0    0  0.74025138462E+02 -0.20236591290E+02  0.19117195575E+03  0.20599989665E+03  0.00000000000E+00 0.  1.
         21    1    1    2  502  501  0.24720536857E+02 -0.38328543516E+02  0.25036423647E+02  0.52028883320E+02  0.00000000000E+00 0. -1.
<scales pt_clust_5="13000.00000" pt_clust_6="13000.00000" pt_clust_7="13000.00000" pt_clust_8="13000.00000" pt_clust_9="45.60901"></scales>
<clustering>
<clus scale="   45.609">  2  9  1 -1</clus>
<clus scale="   81.349">  5  6 -1 -1</clus>
<clus scale="   91.704">  7  8 -1 -1</clus>
<clus scale="  143.135">  2  5  1 -1</clus>
<clus scale="  149.264">  1  5  2 -1</clus>
</clustering>
</event>
<event>
 9    2  0.2869112E-005  0.1048403E+03  0.7546771E-02  0.1275375E+00
         -1   -1    0    0    0  501 -0.00000000000E+00  0.00000000000E+00  0.19745856043E+03  0.19745856043E+03  0.00000000000E+00 0.  1.
          2   -1    0    0  502    0  0.00000000000E+00 -0.00000000000E+00 -0.76930157881E+02  0.76930157881E+02  0.00000000000E+00 0. -1.
         23    2    1    2    0    0  0.55671814850E+02  0.33076506812E+02  0.55912170029E+02  0.12524325651E+03  0.91467460187E+02 0.  0.
         24    2    1    2    0    0 -0.42759099506E+02 -0.10726696747E+02  0.14568761181E+02  0.92833814560E+02  0.80389462678E+02 0.  0.
        -11    1    4    4    0    0  0.22319059906E+02  0.39416667237E+01 -0.52044251819E+01  0.23254316011E+02  0.00000000000E+00 0.  1.
         12    1    4    4    0    0 -0.65078159412E+02 -0.14668363471E+02  0.19773186363E+02  0.69579498549E+02  0.00000000000E+00 0. -1.
        -11    1    3    3    0    0  0.14272453270E+02 -0.14039590746E+02  0.59143186284E+02  0.62439807130E+02  0.00000000000E+00 0.  1.
         11    1    3    3    0    0  0.41399361580E+02  0.47116097557E+02 -0.32310162550E+01  0.62803449383E+02  0.00000000000E+00 0. -1.
         21    1    1    2  502  501 -0.12912715344E+02 -0.22349810064E+02  0.50047471341E+02  0.56311647242E+02  0.00000000000E+00 0. -1.
<scales pt_clust_5="13000.00000" pt_clust_6="13000.00000" pt_clust_7="13000.00000" pt_clust_8="13000.00000" pt_clust_9="25.81186"></scales>
<clustering>
<clus scale="   25.812">  1  9  2 -1</clus>
<clus scale="   80.389">  5  6 -1 -1</clus>
<clus scale="   91.467">  7  8 -1 -1</clus>
<clus scale="   95.329">  2  5  1 -1</clus>
<clus scale="   95.329">  2  5  1 -1</clus>
</clustering>
</event>
<event>
 9    2  0.2869112E-005  0.1071959E+03  0.7546771E-02  0.1270144E+00
          2   -1    0    0  502    0  0.00000000000E+00  0.00000000000E+00  0.11132247069E+03  0.11132247069E+03  0.00000000000E+00 0. -1.
         -1   -1    0    0    0  501 -0.00000000000E+00 -0.00000000000E+00 -0.18672764001E+03  0.18672764001E+03  0.00000000000E+00 0.  1.
         23    2    1    2    0    0  0.45734797281E+02  0.52540017841E+02 -0.10946725291E+03  0.15823430711E+03  0.90569814665E+02 0.  0.
         24    2    1    2    0    0 -0.46285511502E+02 -0.29954719659E+02  0.52533925891E+02  0.11063348125E+03  0.80251604333E+02 0.  0.
        -11    1    4    4    0    0 -0.21392519837E+02  0.18436609394E+01 -0.18880333732E+02  0.28592061704E+02  0.00000000000E+00 0.  1.
         12    1    4    4    0    0 -0.24892991666E+02 -0.31798380599E+02  0.71414259624E+02  0.82041419541E+02  0.00000000000E+00 0. -1.
        -11    1    3    3    0    0  0.71108302427E+02  0.42773510391E+02 -0.98808737494E+02  0.12903150960E+03  0.00000000000E+00 0.  1.
         11    1    3    3    0    0 -0.25373505146E+02  0.97665074493E+01 -0.10658515419E+02  0.29202797505E+02  0.00000000000E+00 0. -1.
         21    1    1    2  502  501  0.55071422193E+00 -0.22585298181E+02 -0.18471842296E+02  0.29182322353E+02  0.00000000000E+00 0. -1.
<scales pt_clust_5="13000.00000" pt_clust_6="13000.00000" pt_clust_7="13000.00000" pt_clust_8="13000.00000" pt_clust_9="22.59201"></scales>
<clustering>
<clus scale="   22.592">  2  9  1 -1</clus>
<clus scale="   80.252">  5  6 -1 -1</clus>
<clus scale="   90.570">  7  8 -1 -1</clus>
<clus scale="   98.633">  1  5  2 -1</clus>
<clus scale="   98.633">  1  5  2 -1</clus>
</clustering>
</event>
<event>
 9    2  0.2869112E-005  0.8855992E+02  0.7546771E-02  0.1308225E+00
          2   -1    0    0  502    0  0.00000000000E+00  0.00000000000E+00  0.18230297100E+03  0.18230297100E+03  0.00000000000E+00 0. -1.
         -1   -1    0    0    0  501 -0.00000000000E+00 -0.00000000000E+00 -0.15120751251E+03  0.15120751251E+03  0.00000000000E+00 0.  1.
         23    2    1    2    0    0  0.83889042096E+01 -0.18500524460E+02  0.56427529686E+02  0.10234525190E+03  0.82932752037E+02 0.  0.
         24    2    1    2    0    0 -0.22209907600E+02  0.33746092921E+02  0.82325673227E+02  0.12155849174E+03  0.79792679237E+02 0.  0.
        -13    1    4    4    0    0  0.24106248664E+02  0.35694783293E+02  0.40429969203E+02  0.59074623899E+02  0.00000000000E+00 0.  1.
         14    1    4    4    0    0 -0.46316156265E+02 -0.19486903724E+01  0.41895704024E+02  0.62483867845E+02  0.00000000000E+00 0. -1.
        -13    1    3    3    0    0  0.41240241947E+02 -0.29213850546E+02  0.29330601059E+02  0.58433644230E+02  0.00000000000E+00 0.  1.
         13    1    3    3    0    0 -0.32851337738E+02  0.10713326085E+02  0.27096928626E+02  0.43911607667E+02  0.00000000000E+00 0. -1.
         21    1    1    2  502  501  0.13821003391E+02 -0.15245568461E+02 -0.10765774442E+03  0.10960673987E+03  0.00000000000E+00 0.  1.
<scales pt_clust_5="13000.00000" pt_clust_6="13000.00000" pt_clust_7="13000.00000" pt_clust_8="13000.00000" pt_clust_9="20.57784"></scales>
<clustering>
<clus scale="   20.578">  2  9  1 -1</clus>
<clus scale="   79.793">  5  6 -1 -1</clus>
<clus scale="   82.933">  7  8 -1 -1</clus>
<clus scale="   85.626">  1  5  2 -1</clus>
<clus scale="   85.626">  1  5  2 -1</clus>
</clustering>
</event>
<event>
 9    2  0.2869112E-005  0.1337781E+03  0.7546771E-02  0.1222854E+00
          4   -1    0    0  502    0  0.00000000000E+00  0.00000000000E+00  0.21018629498E+03  0.21018629498E+03  0.00000000000E+00 0. -1.
         -3   -1    0    0    0  501 -0.00000000000E+00 -0.00000000000E+00 -0.21519254884E+03  0.21519254884E+03  0.00000000000E+00 0.  1.
         23    2    1    2    0    0  0.11584946406E+02  0.95922205394E+02 -0.50648384763E+02  0.14071694971E+03  0.88885997698E+02 0.  0.
         24    2    1    2    0    0  0.10237798657E+03 -0.22523556457E+02  0.65755720270E+02  0.14762369420E+03  0.80500792620E+02 0.  0.
        -13    1    4    4    0    0  0.20824567337E+02  0.23759572677E+02  0.38837164002E+02  0.50065009800E+02  0.00000000000E+00 0.  1.
         14    1    4    4    0    0  0.81553419229E+02 -0.46283129134E+02  0.26918556268E+02  0.97558684400E+02  0.00000000000E+00 0. -1.
        -13    1    3    3    0    0  0.39357728186E+02  0.92405423797E+02 -0.26827323281E+02  0.10395911884E+03  0.00000000000E+00 0.  1.
         13    1    3    3    0    0 -0.27772781780E+02  0.35167815968E+01 -0.23821061482E+02  0.36757830876E+02  0.00000000000E+00 0. -1.
         21    1    1    2  502  501 -0.11396293297E+03 -0.73398648937E+02 -0.20113589369E+02  0.13703819991E+03  0.00000000000E+00 0. -1.
<scales pt_clust_5="13000.00000" pt_clust_6="13000.00000" pt_clust_7="13000.00000" pt_clust_8="13000.00000" pt_clust_9="106.84666"></scales>
<clustering>
<clus scale="   80.501">  5  6 -1 -1</clus>
<clus scale="   88.886">  7  8 -1 -1</clus>
<clus scale="  131.286">  2  7  1 -1</clus>
<clus scale="  106.847">  2  9  1 -1</clus>
<clus scale="  133.778">  1  5  2 -1</clus>
</clustering>
</event>
<event>
 9    2  0.2869112E-005  0.9918377E+02  0.7546771E-02  0.1292000E+00
         -1   -1    0    0    0  501 -0.00000000000E+00  0.00000000000E+00  0.17464671002E+03  0.17464671002E+03  0.00000000000E+00 0.  1.
          2   -1    0    0  502    0  0.00000000000E+00 -0.00000000000E+00 -0.19303418994E+03  0.19303418994E+03  0.00000000000E+00 0. -1.
         23    2    1    2    0    0  0.36536941180E+02  0.47866988369E+02  0.78630378802E+02  0.13933845924E+03  0.98011596800E+02 0.  0.
         24    2    1    2    0    0  0.48353629905E+01 -0.11802288213E+02 -0.13760909390E+03  0.16007840535E+03  0.80784642069E+02 0.  0.
        -11    1    4    4    0    0  0.93106459308E+01  0.24317049298E+02 -0.10868933565E+02  0.28215965889E+02  0.00000000000E+00 0.  1.
         12    1    4    4    0    0 -0.44752829403E+01 -0.36119337511E+02 -0.12674016034E+03  0.13186243946E+03  0.00000000000E+00 0. -1.
        -11    1    3    3    0    0  0.66693337431E+02  0.41380597210E+02  0.35079986492E+02  0.85970695794E+02  0.00000000000E+00 0.  1.
         11    1    3    3    0    0 -0.30156396251E+02  0.64863911591E+01  0.43550392310E+02  0.53367763448E+02  0.00000000000E+00 0. -1.
         21    1    1    2  502  501 -0.41372304170E+02 -0.36064700156E+02  0.40591235180E+02  0.68264035357E+02  0.00000000000E+00 0.  1.
<scales pt_clust_5="13000.00000" pt_clust_6="13000.00000" pt_clust_7="13000.00000" pt_clust_8="13000.00000" pt_clust_9="54.88470"></scales>
<clustering>
<clus scale="   54.885">  1  9  2 -1</clus>
<clus scale="   80.785">  5  6 -1 -1</clus>
<clus scale="   82.203">  2  5  1 -1</clus>
<clus scale="   98.012">  7  8 -1 -1</clus>
<clus scale="   82.203">  2  5  1 -1</clus>
</clustering>
</event>
<event>
 9    2  0.2869112E-005  0.1043606E+03  0.7546771E-02  0.1276715E+00
         -1   -1    0    0    0  501 -0.00000000000E+00  0.00000000000E+00  0.35783354950E+02  0.35783354950E+02  0.00000000000E+00 0.  1.
          2   -1    0    0  502    0  0.00000000000E+00 -0.00000000000E+00 -0.45781696003E+03  0.45781696003E+03  0.00000000000E+00 0. -1.
         23    2    1    2    0    0  0.52222713922E+02 -0.98265313322E+01 -0.92231833559E+02  0.14029537183E+03  0.91390960537E+02 0.  0.
         24    2    1    2    0    0 -0.40865125587E+02  0.30137064562E+02 -0.30507845422E+03  0.31935269740E+03  0.79593221826E+02 0.  0.
        -13    1    4    4    0    0  0.94063800528E+01  0.41714361672E+02 -0.14400457525E+03  0.15021945829E+03  0.00000000000E+00 0.  1.
         14    1    4    4    0    0 -0.50271505639E+02 -0.11577297110E+02 -0.16107387896E+03  0.16913323911E+03  0.00000000000E+00 0. -1.
        -11    1    3    3    0    0  0.23205843690E+02 -0.16329903701E+02 -0.10438352331E+03  0.10817160845E+03  0.00000000000E+00 0. -1.
         11    1    3    3    0    0  0.29016870233E+02  0.65033723687E+01  0.12151689746E+02  0.32123763384E+02  0.00000000000E+00 0.  1.
         21    1    1    2  502  501 -0.11357588336E+02 -0.20310533230E+02 -0.24723317305E+02  0.33952245750E+02  0.00000000000E+00 0.  1.
<scales pt_clust_5="13000.00000" pt_clust_6="13000.00000" pt_clust_7="13000.00000" pt_clust_8="13000.00000" pt_clust_9="23.27042"></scales>
<clustering>
<clus scale="   23.270">  1  9  2 -1</clus>
<clus scale="   79.593">  5  6 -1 -1</clus>
<clus scale="   91.391">  7  8 -1 -1</clus>
<clus scale="   94.201">  2  5  1 -1</clus>
<clus scale="   94.201">  2  5  1 -1</clus>
</clustering>
</event>
<event>
 9    2  0.2869112E-005  0.9919999E+02  0.7546771E-02  0.1284791E+00
         -1   -1    0    0    0  501 -0.00000000000E+00  0.00000000000E+00  0.28716878851E+03  0.28716878851E+03  0.00000000000E+00 0.  1.
          2   -1    0    0  502    0  0.00000000000E+00 -0.00000000000E+00 -0.94101651731E+02  0.94101651731E+02  0.00000000000E+00 0. -1.
         23    2    1    2    0    0  0.34410545898E+02  0.25549613033E+02  0.12030936319E+03  0.15311335173E+03  0.84454053850E+02 0.  0.
         24    2    1    2    0    0 -0.54152037984E+02  0.22968111339E+02 -0.38425794311E+02  0.10525272789E+03  0.78368473918E+02 0.  0.
        -13    1    4    4    0    0 -0.61118698885E+02  0.44136288768E+02 -0.26056392376E+02  0.79764922888E+02  0.00000000000E+00 0.  1.
         14    1    4    4    0    0  0.69666609016E+01 -0.21168177428E+02 -0.12369401935E+02  0.25487805005E+02  0.00000000000E+00 0. -1.
        -13    1    3    3    0    0  0.50856086046E+02 -0.20050621056E+01  0.10677897631E+03  0.11828825616E+03  0.00000000000E+00 0.  1.
         13    1    3    3    0    0 -0.16445540149E+02  0.27554675138E+02  0.13530386880E+02  0.34825095576E+02  0.00000000000E+00 0. -1.
         21    1    1    2  502  501  0.19741492086E+02 -0.48517724372E+02  0.11118356790E+03  0.12290436062E+03  0.00000000000E+00 0. -1.
<scales pt_clust_5="13000.00000" pt_clust_6="13000.00000" pt_clust_7="13000.00000" pt_clust_8="13000.00000" pt_clust_9="52.38030"></scales>
<clustering>
<clus scale="   52.380">  1  9  2 -1</clus>
<clus scale="   78.368">  5  6 -1 -1</clus>
<clus scale="   84.454">  7  8 -1 -1</clus>
<clus scale="   94.073">  2  5  1 -1</clus>
<clus scale="   94.073">  2  5  1 -1</clus>
</clustering>
</event>
<event>
 9    2  0.2869112E-005  0.1014948E+03  0.7546771E-02  0.1284855E+00
         -1   -1    0    0    0  501 -0.00000000000E+00  0.00000000000E+00  0.42297366841E+03  0.42297366841E+03  0.00000000000E+00 0.  1.
          2   -1    0    0  502    0  0.00000000000E+00 -0.00000000000E+00 -0.48305063275E+02  0.48305063275E+02  0.00000000000E+00 0. -1.
         24    2    1    2    0    0  0.11035383807E+02  0.18946083105E+02  0.22999800549E+03  0.24458523438E+03  0.80262821929E+02 0.  0.
         23    2    1    2    0    0 -0.89216485965E+00 -0.39869762926E+02  0.26814821043E+02  0.10656577437E+03  0.95114855236E+02 0.  0.
        -13    1    3    3    0    0 -0.21710389549E+01  0.40582758252E+02  0.20497933254E+03  0.20896937682E+03  0.00000000000E+00 0.  1.
         14    1    3    3    0    0  0.13206422762E+02 -0.21636675147E+02  0.25018672950E+02  0.35615857561E+02  0.00000000000E+00 0. -1.
        -11    1    4    4    0    0 -0.27993806231E+02 -0.61584673664E+02  0.23775699847E+02  0.71705014614E+02  0.00000000000E+00 0. -1.
         11    1    4    4    0    0  0.27101641371E+02  0.21714910738E+02  0.30391211962E+01  0.34860759760E+02  0.00000000000E+00 0.  1.
         21    1    1    2  502  501 -0.10143218947E+02  0.20923679821E+02  0.11785577860E+03  0.12012772293E+03  0.00000000000E+00 0. -1.
<scales pt_clust_5="13000.00000" pt_clust_6="13000.00000" pt_clust_7="13000.00000" pt_clust_8="13000.00000" pt_clust_9="23.25264"></scales>
<clustering>
<clus scale="   23.253">  1  9  2 -1</clus>
<clus scale="   80.263">  5  6 -1 -1</clus>
<clus scale="   87.730">  1  5  2 -1</clus>
<clus scale="   95.115">  7  8 -1 -1</clus>
<clus scale="  101.495">  2  5  1 -1</clus>
</clustering>
</event>
<event>
 9    2  0.2869112E-005  0.9203454E+02  0.7546771E-02  0.1304033E+00
         -1   -1    0    0    0  501 -0.00000000000E+00  0.00000000000E+00  0.38374194509E+02  0.38374194509E+02  0.00000000000E+00 0.  1.
          2   -1    0    0  502    0  0.00000000000E+00 -0.00000000000E+00 -0.40970586875E+03  0.40970586875E+03  0.00000000000E+00 0. -1.
         23    2    1    2    0    0  0.25499210400E+02 -0.90106190487E+00 -0.13330201053E+03  0.16276897117E+03  0.89851490358E+02 0.  0.
         24    2    1    2    0    0 -0.12959585425E+02 -0.15821150724E+02 -0.24857222272E+03  0.26190126210E+03  0.79911585624E+02 0.  0.
        -11    1    4    4    0    0  0.44386441011E+01  0.25778073832E+02 -0.35418683921E+02  0.44030600980E+02  0.00000000000E+00 0.  1.
         12    1    4    4    0    0 -0.17398229526E+02 -0.41599224556E+02 -0.21315353880E+03  0.21787066112E+03  0.00000000000E+00 0. -1.
        -11    1    3    3    0    0 -0.25808742729E+02  0.24981905387E+02 -0.49721464451E+02  0.61338493829E+02  0.00000000000E+00 0.  1.
         11    1    3    3    0    0  0.51307953129E+02 -0.25882967291E+02 -0.83580546082E+02  0.10143047734E+03  0.00000000000E+00 0. -1.
         21    1    1    2  502  501 -0.12539624975E+02  0.16722212629E+02  0.10542559011E+02  0.23409829991E+02  0.00000000000E+00 0.  1.
<scales pt_clust_5="13000.00000" pt_clust_6="13000.00000" pt_clust_7="13000.00000" pt_clust_8="13000.00000" pt_clust_9="20.90155"></scales>
<clustering>
<clus scale="   20.902">  1  9  2 -1</clus>
<clus scale="   79.912">  5  6 -1 -1</clus>
<clus scale="   82.359">  2  5  1 -1</clus>
<clus scale="   89.851">  7  8 -1 -1</clus>
<clus scale="   82.359">  2  5  1 -1</clus>
</clustering>
</event>
<event>
 9    2  0.2869112E-005  0.2931798E+03  0.7546771E-02  0.1111799E+00
         -1   -1    0    0    0  501 -0.00000000000E+00  0.00000000000E+00  0.56481098733E+03  0.56481098733E+03  0.00000000000E+00 0.  1.
          2   -1    0    0  502    0  0.00000000000E+00 -0.00000000000E+00 -0.35563432603E+03  0.35563432603E+03  0.00000000000E+00 0. -1.
         23    2    1    2    0    0  0.21514894333E+03  0.20084552545E+03 -0.10901675133E+03  0.32705652637E+03  0.91941973327E+02 0.  0.
         24    2    1    2    0    0  0.56281585178E+02 -0.12744487342E+03 -0.98367892772E+01  0.16134017758E+03  0.80771764166E+02 0.  0.
        -13    1    4    4    0    0  0.14131179445E+02 -0.48553106654E+02  0.34790131008E+02  0.61379537419E+02  0.00000000000E+00 0.  1.
         14    1    4    4    0    0  0.42150405732E+02 -0.78891766770E+02 -0.44626920285E+02  0.99960640162E+02  0.00000000000E+00 0. -1.
        -11    1    3    3    0    0  0.91145191522E+02  0.14556183294E+03 -0.72833732771E+02  0.18654877586E+03  0.00000000000E+00 0.  1.
         11    1    3    3    0    0  0.12400375181E+03  0.55283692515E+02 -0.36183018562E+02  0.14050775051E+03  0.00000000000E+00 0. -1.
         21    1    1    2  502  501 -0.27143052851E+03 -0.73400652028E+02  0.32803020191E+03  0.43204860941E+03  0.00000000000E+00 0.  1.
<scales pt_clust_5="13000.00000" pt_clust_6="13000.00000" pt_clust_7="13000.00000" pt_clust_8="13000.00000" pt_clust_9="278.39012"></scales>
<clustering>
<clus scale="   80.772">  5  6 -1 -1</clus>
<clus scale="   91.942">  7  8 -1 -1</clus>
<clus scale="  161.040">  2  5  1 -1</clus>
<clus scale="  278.390">  1  9  2 -1</clus>
<clus scale="  161.040">  2  5  1 -1</clus>
</clustering>
</event>
<event>
 9    2  0.2869112E-005  0.1528897E+03  0.7546771E-02  0.1221572E+00
         -1   -1    0    0    0  501 -0.00000000000E+00  0.00000000000E+00  0.96925119359E+02  0.96925119359E+02  0.00000000000E+00 0.  1.
          2   -1    0    0  502    0  0.00000000000E+00 -0.00000000000E+00 -0.11814275688E+04  0.11814275688E+04  0.00000000000E+00 0. -1.
         23    2    1    2    0    0 -0.69081842899E+02 -0.67707495883E+02 -0.12192582536E+03  0.18059378957E+03  0.91605698099E+02 0.  0.
         24    2    1    2    0    0 -0.28204675829E+02 -0.24532865721E+02 -0.95941427517E+03  0.96365837103E+03  0.82245604227E+02 0.  0.
        -13    1    4    4    0    0 -0.20818187074E+02  0.13637119086E+02 -0.90065261519E+02  0.93440458381E+02  0.00000000000E+00 0.  1.
         14    1    4    4    0    0 -0.73864887541E+01 -0.38169984807E+02 -0.86934901365E+03  0.87021791265E+03  0.00000000000E+00 0. -1.
        -13    1    3    3    0    0 -0.59207103191E+02 -0.43901530654E+02 -0.13337942795E+03  0.15239060753E+03  0.00000000000E+00 0. -1.
         13    1    3    3    0    0 -0.98747397082E+01 -0.23805965229E+02  0.11453602594E+02  0.28203182040E+02  0.00000000000E+00 0.  1.
         21    1    1    2  502  501  0.97286518728E+02  0.92240361604E+02 -0.31623488874E+01  0.13410052754E+03  0.00000000000E+00 0. -1.
<scales pt_clust_5="13000.00000" pt_clust_6="13000.00000" pt_clust_7="13000.00000" pt_clust_8="13000.00000" pt_clust_9="122.40770"></scales>
<clustering>
<clus scale="   82.246">  5  6 -1 -1</clus>
<clus scale="   90.342">  2  5  1 -1</clus>
<clus scale="   91.606">  7  8 -1 -1</clus>
<clus scale="  122.408">  1  9  2 -1</clus>
<clus scale="   90.342">  2  5  1 -1</clus>
</clustering>
</event>
<event>
 9    2  0.2869112E-005  0.9312398E+02  0.7546771E-02  0.1302249E+00
         -1   -1    0    0    0  501 -0.00000000000E+00  0.00000000000E+00  0.43294436552E+02  0.43294436552E+02  0.00000000000E+00 0.  1.
          2   -1    0    0  502    0  0.00000000000E+00 -0.00000000000E+00 -0.61752543417E+03  0.61752543417E+03  0.00000000000E+00 0. -1.
         23    2    1    2    0    0 -0.31656604629E+02 -0.49647010089E+02 -0.65862291933E+02  0.12759198974E+03  0.92059264176E+02 0.  0.
         24    2    1    2    0    0  0.81076544635E+01  0.42808452041E+01 -0.44207664916E+03  0.44951839090E+03  0.80938003013E+02 0.  0.
        -11    1    4    4    0    0  0.13740191502E+02 -0.20490749730E+02 -0.42550872933E+02  0.49185775122E+02  0.00000000000E+00 0.  1.
         12    1    4    4    0    0 -0.56325370382E+01  0.24771594934E+02 -0.39952577622E+03  0.40033261578E+03  0.00000000000E+00 0. -1.
        -11    1    3    3    0    0 -0.17527638837E+02 -0.69619293930E+02 -0.72716906986E+02  0.10218518861E+03  0.00000000000E+00 0.  1.
         11    1    3    3    0    0 -0.14128965792E+02  0.19972283840E+02  0.68546150524E+01  0.25406801130E+02  0.00000000000E+00 0. -1.
         21    1    1    2  502  501  0.23548950165E+02  0.45366164885E+02 -0.66292056523E+02  0.83709490073E+02  0.00000000000E+00 0. -1.
<scales pt_clust_5="13000.00000" pt_clust_6="13000.00000" pt_clust_7="13000.00000" pt_clust_8="13000.00000" pt_clust_9="51.11401"></scales>
<clustering>
<clus scale="   51.114">  1  9  2 -1</clus>
<clus scale="   80.938">  5  6 -1 -1</clus>
<clus scale="   82.147">  2  5  1 -1</clus>
<clus scale="   92.059">  7  8 -1 -1</clus>
<clus scale="   82.147">  2  5  1 -1</clus>
</clustering>
</event>
<event>
 9    2  0.2869112E-005  0.1233811E+03  0.7546771E-02  0.1241255E+00
          2   -1    0    0  502    0  0.00000000000E+00  0.00000000000E+00  0.10619758207E+04  0.10619758207E+04  0.00000000000E+00 0. -1.
         -1   -1    0    0    0  501 -0.00000000000E+00 -0.00000000000E+00 -0.18189068710E+02  0.18189068710E+02  0.00000000000E+00 0.  1.
         23    2    1    2    0    0 -0.53428831478E+02 -0.77257311291E+02  0.44549898052E+03  0.46448446571E+03  0.91940986831E+02 0.  0.
         24    2    1    2    0    0  0.60926903800E+02  0.41273839279E+02  0.44207923412E+03  0.45520569520E+03  0.79765646036E+02 0.  0.
        -11    1    4    4    0    0  0.37986277235E+02 -0.19687670188E+02  0.15224704415E+03  0.15814463022E+03  0.00000000000E+00 0.  1.
         12    1    4    4    0    0  0.22940626565E+02  0.60961509467E+02  0.28983218997E+03  0.29706106498E+03  0.00000000000E+00 0. -1.
        -11    1    3    3    0    0 -0.10267085046E+02 -0.74775768498E+02  0.36876088321E+03  0.37640592128E+03  0.00000000000E+00 0. -1.
         11    1    3    3    0    0 -0.43161746432E+02 -0.24815427931E+01  0.76738097308E+02  0.88078544426E+02  0.00000000000E+00 0.  1.
         21    1    1    2  502  501 -0.74980723214E+01  0.35983472012E+02  0.15620853737E+03  0.16047472852E+03  0.00000000000E+00 0.  1.
<scales pt_clust_5="13000.00000" pt_clust_6="13000.00000" pt_clust_7="13000.00000" pt_clust_8="13000.00000" pt_clust_9="36.75638"></scales>
<clustering>
<clus scale="   36.756">  1  9  2 -1</clus>
<clus scale="   79.766">  5  6 -1 -1</clus>
<clus scale="   91.941">  7  8 -1 -1</clus>
<clus scale="  114.596">  1  5  2 -1</clus>
<clus scale="   36.756">  1  5  2 -1</clus>
</clustering>
</event>
<event>
 9    2  0.2869112E-005  0.1326010E+03  0.7546771E-02  0.1223876E+00
         -1   -1    0    0    0  501 -0.00000000000E+00  0.00000000000E+00  0.44481699530E+02  0.44481699530E+02  0.00000000000E+00 0.  1.
          2   -1    0    0  502    0  0.00000000000E+00 -0.00000000000E+00 -0.11776029802E+04  0.11776029802E+04  0.00000000000E+00 0. -1.
         23    2    1    2    0    0 -0.22339962100E+02  0.55351759036E+02 -0.14006146909E+03  0.17622248943E+03  0.88737024522E+02 0.  0.
         24    2    1    2    0    0 -0.17945752409E+01 -0.11064986932E+03 -0.97161448135E+03  0.98182892490E+03  0.87787945201E+02 0.  0.
        -11    1    4    4    0    0  0.19913393318E+02  0.67141137811E+01 -0.11029459964E+03  0.11227876588E+03  0.00000000000E+00 0.  1.
         12    1    4    4    0    0 -0.21707968559E+02 -0.11736398310E+03 -0.86131988170E+03  0.86955015902E+03  0.00000000000E+00 0. -1.
        -13    1    3    3    0    0 -0.51018376359E+02  0.51864483584E+02 -0.12232029290E+03  0.14232024957E+03  0.00000000000E+00 0.  1.
         13    1    3    3    0    0  0.28678414259E+02  0.34872754518E+01 -0.17741176195E+02  0.33902239856E+02  0.00000000000E+00 0. -1.
         21    1    1    2  502  501  0.24134537341E+02  0.55298110285E+02 -0.21445330279E+02  0.64033265452E+02  0.00000000000E+00 0.  1.
<scales pt_clust_5="13000.00000" pt_clust_6="13000.00000" pt_clust_7="13000.00000" pt_clust_8="13000.00000" pt_clust_9="60.33537"></scales>
<clustering>
<clus scale="   60.335">  1  9  2 -1</clus>
<clus scale="   87.788">  5  6 -1 -1</clus>
<clus scale="   88.737">  7  8 -1 -1</clus>
<clus scale="  131.968">  2  5  1 -1</clus>
<clus scale="  131.968">  2  5  1 -1</clus>
</clustering>
</event>
<event>
 9    2  0.2869112E-005  0.1130473E+03  0.7546771E-02  0.1258990E+00
          2   -1    0    0  502    0  0.00000000000E+00  0.00000000000E+00  0.39501192781E+03  0.39501192781E+03  0.00000000000E+00 0. -1.
         -1   -1    0    0    0  501 -0.00000000000E+00 -0.00000000000E+00 -0.22808327493E+03  0.22808327493E+03  0.00000000000E+00 0.  1.
         23    2    1    2    0    0  0.10389892664E+01  0.81013079705E+02  0.57478833838E+01  0.12134446379E+03  0.90151218217E+02 0.  0.
         24    2    1    2    0    0  0.18945927936E+02 -0.64102478907E+02  0.32227968859E+03  0.33853852413E+03  0.79221579486E+02 0.  0.
        -13    1    4    4    0    0 -0.10444319749E+02 -0.55166259522E+02  0.10473107251E+03  0.11883180363E+03  0.00000000000E+00 0.  1.
         14    1    4    4    0    0  0.29390247685E+02 -0.89362193852E+01  0.21754861608E+03  0.21970672050E+03  0.00000000000E+00 0. -1.
        -11    1    3    3    0    0 -0.22030372465E+02 -0.11283658278E+02  0.84937296037E+01  0.26168716011E+02  0.00000000000E+00 0. -1.
         11    1    3    3    0    0  0.23069361732E+02  0.92296737983E+02 -0.27458462199E+01  0.95175747775E+02  0.00000000000E+00 0.  1.
         21    1    1    2  502  501 -0.19984917203E+02 -0.16910600798E+02 -0.16109891909E+03  0.16321221482E+03  0.00000000000E+00 0.  1.
<scales pt_clust_5="13000.00000" pt_clust_6="13000.00000" pt_clust_7="13000.00000" pt_clust_8="13000.00000" pt_clust_9="26.17948"></scales>
<clustering>
<clus scale="   26.179">  2  9  1 -1</clus>
<clus scale="   79.222">  5  6 -1 -1</clus>
<clus scale="   90.151">  7  8 -1 -1</clus>
<clus scale="  104.540">  1  5  2 -1</clus>
<clus scale="  104.540">  1  5  2 -1</clus>
</clustering>
</event>
<event>
 9    2  0.2869112E-005  0.9399529E+02  0.7546771E-02  0.1302338E+00
         -3   -1    0    0    0  501 -0.00000000000E+00  0.00000000000E+00  0.58776832584E+03  0.58776832584E+03  0.00000000000E+00 0.  1.
          4   -1    0    0  502    0  0.00000000000E+00 -0.00000000000E+00 -0.36076475712E+02  0.36076475712E+02  0.00000000000E+00 0. -1.
         23    2    1    2    0    0 -0.33867916451E+02  0.14956461108E+02  0.43902635001E+03  0.45000892472E+03  0.91614217393E+02 0.  0.
         24    2    1    2    0    0  0.90883921678E+01 -0.17694812041E+02  0.25927086122E+02  0.83585802861E+02  0.76932875937E+02 0.  0.
        -13    1    4    4    0    0 -0.18980280642E+02 -0.36563863215E+02  0.27821708601E+02  0.49711312756E+02  0.00000000000E+00 0.  1.
         14    1    4    4    0    0  0.28068672810E+02  0.18869051174E+02 -0.18946224795E+01  0.33874490105E+02  0.00000000000E+00 0. -1.
        -13    1    3    3    0    0 -0.62542942150E+02  0.75185247961E+01  0.36280630302E+03  0.36823438370E+03  0.00000000000E+00 0.  1.
         13    1    3    3    0    0  0.28675025699E+02  0.74379363123E+01  0.76220046990E+02  0.81774541017E+02  0.00000000000E+00 0. -1.
         21    1    1    2  502  501  0.24779524283E+02  0.27383509323E+01  0.86738413998E+02  0.90250073974E+02  0.00000000000E+00 0. -1.
<scales pt_clust_5="13000.00000" pt_clust_6="13000.00000" pt_clust_7="13000.00000" pt_clust_8="13000.00000" pt_clust_9="24.93037"></scales>
<clustering>
<clus scale="   24.930">  1  9  2 -1</clus>
<clus scale="   76.933">  5  6 -1 -1</clus>
<clus scale="   79.753">  2  5  1 -1</clus>
<clus scale="   91.614">  7  8 -1 -1</clus>
<clus scale="   79.753">  2  5  1 -1</clus>
</clustering>
</event>
<event>
 9    2  0.2869112E-005  0.1115883E+03  0.7546771E-02  0.1263946E+00
         -1   -1    0    0    0  501 -0.00000000000E+00  0.00000000000E+00  0.62492398498E+02  0.62492398498E+02  0.00000000000E+00 0.  1.
          2   -1    0    0  502    0  0.00000000000E+00 -0.00000000000E+00 -0.75002970748E+03  0.75002970748E+03  0.00000000000E+00 0. -1.
         23    2    1    2    0    0 -0.16495331292E+01  0.19866453571E+01 -0.76936392752E+02  0.11860597925E+03  0.90230272435E+02 0.  0.
         24    2    1    2    0    0  0.45054965954E+02  0.20935575349E+02 -0.63047269125E+03  0.64096003886E+03  0.10423871036E+03 0.  0.
        -11    1    4    4    0    0  0.52622059299E+01  0.45225441965E+02 -0.11974452291E+03  0.12810847817E+03  0.00000000000E+00 0.  1.
         12    1    4    4    0    0  0.39792760024E+02 -0.24289866616E+02 -0.51072816834E+03  0.51285156070E+03  0.00000000000E+00 0. -1.
        -13    1    3    3    0    0 -0.30681493064E+02  0.86539162967E+01  0.42189859510E+01  0.32156556507E+02  0.00000000000E+00 0.  1.
         13    1    3    3    0    0  0.29031959935E+02 -0.66672709396E+01 -0.81155378703E+02  0.86449422738E+02  0.00000000000E+00 0. -1.
         21    1    1    2  502  501 -0.43405432824E+02 -0.22922220706E+02  0.19871775013E+02  0.52956087874E+02  0.00000000000E+00 0.  1.
<scales pt_clust_5="13000.00000" pt_clust_6="13000.00000" pt_clust_7="13000.00000" pt_clust_8="13000.00000" pt_clust_9="49.08625"></scales>
<clustering>
<clus scale="   49.086">  1  9  2 -1</clus>
<clus scale="   90.230">  7  8 -1 -1</clus>
<clus scale="   98.629">  1  7  2 -1</clus>
<clus scale="  104.239">  5  6 -1 -1</clus>
<clus scale="  111.588">  2  5  1 -1</clus>
</clustering>
</event>
<event>
 9    2  0.2869112E-005  0.9046924E+02  0.7546771E-02  0.1303613E+00
         -1   -1    0    0    0  501 -0.00000000000E+00  0.00000000000E+00  0.31157801733E+03  0.31157801733E+03  0.00000000000E+00 0.  1.
          2   -1    0    0  502    0  0.00000000000E+00 -0.00000000000E+00 -0.10911918585E+03  0.10911918585E+03  0.00000000000E+00 0. -1.
         23    2    1    2    0    0  0.21582325652E+01  0.79785650011E+01  0.90818553079E+02  0.12357755700E+03  0.83397167472E+02 0.  0.
         24    2    1    2    0    0 -0.51776619053E+01 -0.40262223288E+02 -0.69246508932E+02  0.11334973195E+03  0.80032667880E+02 0.  0.
        -13    1    4    4    0    0 -0.29308802311E+02 -0.24131377963E+02  0.32472092117E+00  0.37966231562E+02  0.00000000000E+00 0.  1.
         14    1    4    4    0    0  0.24131140406E+02 -0.16130845325E+02 -0.69571229853E+02  0.75383500393E+02  0.00000000000E+00 0. -1.
        -11    1    3    3    0    0  0.42315247899E+02 -0.41473420206E+00  0.52595681164E+02  0.67505984078E+02  0.00000000000E+00 0. -1.
         11    1    3    3    0    0 -0.40157015334E+02  0.83932992032E+01  0.38222871915E+02  0.56071572918E+02  0.00000000000E+00 0.  1.
         21    1    1    2  502  501  0.30194293401E+01  0.32283658287E+02  0.18088678733E+03  0.18376991424E+03  0.00000000000E+00 0.  1.
<scales pt_clust_5="13000.00000" pt_clust_6="13000.00000" pt_clust_7="13000.00000" pt_clust_8="13000.00000" pt_clust_9="32.42455"></scales>
<clustering>
<clus scale="   32.425">  1  9  2 -1</clus>
<clus scale="   80.033">  5  6 -1 -1</clus>
<clus scale="   83.397">  7  8 -1 -1</clus>
<clus scale="   87.377">  2  5  1 -1</clus>
<clus scale="   87.377">  2  5  1 -1</clus>
</clustering>
</event>
<event>
 9    2  0.2869112E-005  0.5300015E+03  0.7546771E-02  0.1006232E+00
         -1   -1    0    0    0  501 -0.00000000000E+00  0.00000000000E+00  0.25310882070E+03  0.25310882070E+03  0.00000000000E+00 0.  1.
          2   -1    0    0  502    0  0.00000000000E+00 -0.00000000000E+00 -0.10205476162E+04  0.10205476162E+04  0.00000000000E+00 0. -1.
         24    2    1    2    0    0 -0.13189327900E+03  0.27104827532E+02 -0.91857259376E+02  0.18325329384E+03  0.83746670868E+02 0.  0.
         23    2    1    2    0    0 -0.28238269811E+03 -0.22061111292E+03 -0.16728000669E+03  0.40670751449E+03  0.94969207469E+02 0.  0.
        -11    1    3    3    0    0 -0.10583327733E+03  0.55916397872E+02 -0.67999468189E+02  0.13766355296E+03  0.00000000000E+00 0.  1.
         12    1    3    3    0    0 -0.26060001677E+02 -0.28811570340E+02 -0.23857791187E+02  0.45589740876E+02  0.00000000000E+00 0. -1.
        -11    1    4    4    0    0 -0.51045106013E+02 -0.23661942185E+02  0.66023596348E+01  0.56648755579E+02  0.00000000000E+00 0. -1.
         11    1    4    4    0    0 -0.23133759210E+03 -0.19694917074E+03 -0.17388236633E+03  0.35005875891E+03  0.00000000000E+00 0.  1.
         21    1    1    2  502  501  0.41427597711E+03  0.19350628539E+03 -0.50830152944E+03  0.68369562858E+03  0.00000000000E+00 0. -1.
<scales pt_clust_5="13000.00000" pt_clust_6="13000.00000" pt_clust_7="13000.00000" pt_clust_8="13000.00000" pt_clust_9="457.24093"></scales>
<clustering>
<clus scale="   83.747">  5  6 -1 -1</clus>
<clus scale="   94.969">  7  8 -1 -1</clus>
<clus scale="  148.170">  5  7 -1 -1</clus>
<clus scale="  457.241">  2  9  1 -1</clus>
<clus scale="  457.241">  2  5  1 -1</clus>
</clustering>
</event>
<event>
 9    2  0.2869112E-005  0.1017392E+03  0.7546771E-02  0.1283184E+00
         -1   -1    0    0    0  501 -0.00000000000E+00  0.00000000000E+00  0.25536307882E+02  0.25536307882E+02  0.00000000000E+00 0.  1.
          2   -1    0    0  502    0  0.00000000000E+00 -0.00000000000E+00 -0.10401198279E+04  0.10401198279E+04  0.00000000000E+00 0. -1.
         23    2    1    2    0    0 -0.23841342992E+02 -0.54758135794E+02 -0.18654015064E+03  0.21589092387E+03  0.90800881804E+02 0.  0.
         24    2    1    2    0    0 -0.63125891804E+01  0.44351338200E+02 -0.80612705882E+03  0.81106268317E+03  0.77297807789E+02 0.  0.
        -13    1    4    4    0    0  0.20421597613E+02 -0.75825065046E+01 -0.91706037239E+02  0.94257802436E+02  0.00000000000E+00 0.  1.
         14    1    4    4    0    0 -0.26734186793E+02  0.51933844705E+02 -0.71442102158E+03  0.71680488074E+03  0.00000000000E+00 0. -1.
        -11    1    3    3    0    0  0.27663298406E+02 -0.89683341060E+01 -0.19018621667E+02  0.34747619566E+02  0.00000000000E+00 0. -1.
         11    1    3    3    0    0 -0.51504641398E+02 -0.45789801688E+02 -0.16752152897E+03  0.18114330430E+03  0.00000000000E+00 0.  1.
         21    1    1    2  502  501  0.30153932173E+02  0.10406797594E+02 -0.21916310529E+02  0.38702528714E+02  0.00000000000E+00 0.  1.
<scales pt_clust_5="13000.00000" pt_clust_6="13000.00000" pt_clust_7="13000.00000" pt_clust_8="13000.00000" pt_clust_9="31.89923"></scales>
<clustering>
<clus scale="   31.899">  1  9  2 -1</clus>
<clus scale="   77.298">  5  6 -1 -1</clus>
<clus scale="   89.894">  2  5  1 -1</clus>
<clus scale="   90.801">  7  8 -1 -1</clus>
<clus scale="   89.894">  2  5  1 -1</clus>
</clustering>
</event>
<event>
 9    2  0.2869112E-005  0.9176651E+02  0.7546771E-02  0.1305432E+00
          2   -1    0    0  502    0  0.00000000000E+00  0.00000000000E+00  0.24901764960E+03  0.24901764960E+03  0.00000000000E+00 0. -1.
         -1   -1    0    0    0  501 -0.00000000000E+00 -0.00000000000E+00 -0.53497692816E+02  0.53497692816E+02  0.00000000000E+00 0.  1.
         23    2    1    2    0    0 -0.16450007845E+02 -0.71101827575E+01  0.76876782531E+02  0.12053752805E+03  0.91093899458E+02 0.  0.
         24    2    1    2    0    0 -0.26251769803E+02  0.54721837798E+01  0.10935036180E+03  0.13824588990E+03  0.80220472656E+02 0.  0.
        -13    1    4    4    0    0 -0.44333432985E+02  0.26011590840E+02  0.93298909942E+02  0.10652109056E+03  0.00000000000E+00 0.  1.
         14    1    4    4    0    0  0.18081663182E+02 -0.20539407061E+02  0.16051451863E+02  0.31724799334E+02  0.00000000000E+00 0. -1.
        -11    1    3    3    0    0  0.22021006639E+02  0.18704506341E+02 -0.21062864410E+01  0.28969289488E+02  0.00000000000E+00 0.  1.
         11    1    3    3    0    0 -0.38471014483E+02 -0.25814689099E+02  0.78983068972E+02  0.91568238560E+02  0.00000000000E+00 0. -1.
         21    1    1    2  502  501  0.42701777647E+02  0.16379989777E+01  0.92928124489E+01  0.43731924473E+02  0.00000000000E+00 0. -1.
<scales pt_clust_5="13000.00000" pt_clust_6="13000.00000" pt_clust_7="13000.00000" pt_clust_8="13000.00000" pt_clust_9="42.73318"></scales>
<clustering>
<clus scale="   42.733">  2  9  1 -1</clus>
<clus scale="   80.220">  5  6 -1 -1</clus>
<clus scale="   80.983">  1  5  2 -1</clus>
<clus scale="   91.094">  7  8 -1 -1</clus>
<clus scale="   80.983">  1  5  2 -1</clus>
</clustering>
</event>
<event>
 9    2  0.2869112E-005  0.1075407E+03  0.7546771E-02  0.1272740E+00
          2   -1    0    0  502    0  0.00000000000E+00  0.00000000000E+00  0.37422622536E+03  0.37422622536E+03  0.00000000000E+00 0. -1.
         -1   -1    0    0    0  501 -0.00000000000E+00 -0.00000000000E+00 -0.12788592019E+03  0.12788592019E+03  0.00000000000E+00 0.  1.
         23    2    1    2    0    0 -0.81755721435E+02 -0.61428100875E+02  0.58808915664E+02  0.15272364595E+03  0.96998009803E+02 0.  0.
         24    2    1    2    0    0  0.28957446952E+02  0.23420275686E+02  0.24626351207E+03  0.26174310734E+03  0.80477908868E+02 0.  0.
        -13    1    4    4    0    0 -0.28077387788E+01 -0.28008183008E+02  0.83550319085E+02  0.88164604755E+02  0.00000000000E+00 0.  1.
         14    1    4    4    0    0  0.31765185731E+02  0.51428458694E+02  0.16271319298E+03  0.17357850258E+03  0.00000000000E+00 0. -1.
        -11    1    3    3    0    0 -0.65169576741E+02 -0.30280146022E+02 -0.12706646332E+02  0.72975474214E+02  0.00000000000E+00 0.  1.
         11    1    3    3    0    0 -0.16586144694E+02 -0.31147954853E+02  0.71515561997E+02  0.79748171735E+02  0.00000000000E+00 0. -1.
         21    1    1    2  502  501  0.52798274484E+02  0.38007825189E+02 -0.58732122569E+02  0.87645392266E+02  0.00000000000E+00 0.  1.
<scales pt_clust_5="13000.00000" pt_clust_6="13000.00000" pt_clust_7="13000.00000" pt_clust_8="13000.00000" pt_clust_9="65.05577"></scales>
<clustering>
<clus scale="   65.056">  2  9  1 -1</clus>
<clus scale="   80.478">  5  6 -1 -1</clus>
<clus scale="   92.914">  1  5  2 -1</clus>
<clus scale="   96.998">  7  8 -1 -1</clus>
<clus scale="   92.914">  1  5  2 -1</clus>
</clustering>
</event>
<event>
 9    2  0.2869112E-005  0.1080169E+03  0.7546771E-02  0.1270223E+00
          2   -1    0    0  502    0  0.00000000000E+00  0.00000000000E+00  0.31951045620E+03  0.31951045620E+03  0.00000000000E+00 0. -1.
         -1   -1    0    0    0  501 -0.00000000000E+00 -0.00000000000E+00 -0.78454037176E+02  0.78454037176E+02  0.00000000000E+00 0.  1.
         23    2    1    2    0    0 -0.43732965798E+02  0.49033142422E+02  0.44811256595E+02  0.12268521029E+03  0.93417293645E+02 0.  0.
         24    2    1    2    0    0  0.52653044359E+02 -0.11059230149E+02  0.21237381372E+03  0.23306886723E+03  0.79522389721E+02 0.  0.
        -13    1    4    4    0    0  0.36766148344E+02  0.63608308638E+01  0.26644406610E+02  0.45849037470E+02  0.00000000000E+00 0.  1.
         14    1    4    4    0    0  0.15886896015E+02 -0.17420061013E+02  0.18572940711E+03  0.18721982976E+03  0.00000000000E+00 0. -1.
        -13    1    3    3    0    0  0.18627078170E+02  0.47146587303E+02  0.11581953017E+02  0.51999138177E+02  0.00000000000E+00 0. -1.
         13    1    3    3    0    0 -0.62360043968E+02  0.18865551194E+01  0.33229303578E+02  0.70686072109E+02  0.00000000000E+00 0.  1.
         21    1    1    2  502  501 -0.89200785608E+01 -0.37973912273E+02 -0.16128651288E+02  0.42210415862E+02  0.00000000000E+00 0.  1.
<scales pt_clust_5="13000.00000" pt_clust_6="13000.00000" pt_clust_7="13000.00000" pt_clust_8="13000.00000" pt_clust_9="39.00751"></scales>
<clustering>
<clus scale="   39.008">  2  9  1 -1</clus>
<clus scale="   79.522">  5  6 -1 -1</clus>
<clus scale="   93.417">  7  8 -1 -1</clus>
<clus scale="   96.253">  1  5  2 -1</clus>
<clus scale="   96.253">  1  5  2 -1</clus>
</clustering>
</event>
<event>
 9    2  0.2869112E-005  0.9882236E+02  0.7546771E-02  0.1290416E+00
         -1   -1    0    0    0  501 -0.00000000000E+00  0.00000000000E+00  0.34321793238E+03  0.34321793238E+03  0.00000000000E+00 0.  1.
          2   -1    0    0  502    0  0.00000000000E+00 -0.00000000000E+00 -0.76141014938E+02  0.76141014938E+02  0.00000000000E+00 0. -1.
         24    2    1    2    0    0 -0.54630742283E+02  0.27803458186E+02  0.10336567974E+03  0.14348942405E+03  0.78404086482E+02 0.  0.
         23    2    1    2    0    0  0.26750944733E+02  0.30274279158E+01 -0.10233804402E+02  0.97026842897E+02  0.92653651445E+02 0.  0.
        -13    1    3    3    0    0 -0.66470828938E+02  0.31063870836E+01  0.92669856279E+02  0.11408647160E+03  0.00000000000E+00 0.  1.
         14    1    3    3    0    0  0.11840086655E+02  0.24697071102E+02  0.10695823458E+02  0.29402952445E+02  0.00000000000E+00 0. -1.
        -13    1    4    4    0    0  0.58423611590E+02  0.42554628251E+01  0.99955690233E+01  0.59425068407E+02  0.00000000000E+00 0. -1.
         13    1    4    4    0    0 -0.31672666857E+02 -0.12280349093E+01 -0.20229373425E+02  0.37601774489E+02  0.00000000000E+00 0.  1.
         21    1    1    2  502  501  0.27879797550E+02 -0.30830886102E+02  0.17394504210E+03  0.17884268037E+03  0.00000000000E+00 0. -1.
<scales pt_clust_5="13000.00000" pt_clust_6="13000.00000" pt_clust_7="13000.00000" pt_clust_8="13000.00000" pt_clust_9="41.56713"></scales>
<clustering>
<clus scale="   41.567">  1  9  2 -1</clus>
<clus scale="   78.404">  5  6 -1 -1</clus>
<clus scale="   85.606">  1  5  2 -1</clus>
<clus scale="   92.654">  7  8 -1 -1</clus>
<clus scale="   98.822">  2  5  1 -1</clus>
</clustering>
</event>
<event>
 9    2  0.2893498E-005  0.1024810E+03  0.7546771E-02  0.1277756E+00
          2   -1    0    0  502    0  0.00000000000E+00  0.00000000000E+00  0.16253990663E+03  0.16253990663E+03  0.00000000000E+00 0. -1.
         -1   -1    0    0    0  501 -0.00000000000E+00 -0.00000000000E+00 -0.16134027587E+03  0.16134027587E+03  0.00000000000E+00 0.  1.
         24    2    1    2    0    0  0.57920302709E+02 -0.33394206057E+02 -0.10998028100E+03  0.15295001959E+03  0.82632389666E+02 0.  0.
         23    2    1    2    0    0 -0.37504187127E+02  0.32598279218E+02  0.11117774952E+03  0.15049853840E+03  0.88431364416E+02 0.  0.
        -11    1    3    3    0    0  0.68933790697E+02 -0.25879430272E+02 -0.11672473869E+03  0.13800824988E+03  0.00000000000E+00 0.  1.
         12    1    3    3    0    0 -0.11013487988E+02 -0.75147757847E+01  0.67444576946E+01  0.14941769720E+02  0.00000000000E+00 0. -1.
        -11    1    4    4    0    0 -0.43504357139E+01 -0.25343885796E+02  0.63370021222E+02  0.68388584046E+02  0.00000000000E+00 0. -1.
         11    1    4    4    0    0 -0.33153751413E+02  0.57942165013E+02  0.47807728299E+02  0.82109954356E+02  0.00000000000E+00 0.  1.
         21    1    1    2  502  501 -0.20416115582E+02  0.79592683892E+00  0.21622354541E-02  0.20431624499E+02  0.00000000000E+00 0.  1.
<scales pt_clust_5="13000.00000" pt_clust_6="13000.00000" pt_clust_7="13000.00000" pt_clust_8="13000.00000" pt_clust_9="20.43162"></scales>
<clustering>
<clus scale="   20.432">  2  9  1 -1</clus>
<clus scale="   82.632">  5  6 -1 -1</clus>
<clus scale="   88.431">  7  8 -1 -1</clus>
<clus scale="   97.521">  2  5  1 -1</clus>
<clus scale="  102.481">  1  5  2 -1</clus>
</clustering>
</event>
<event>
 9    2  0.2869112E-005  0.9975276E+02  0.7546771E-02  0.1288535E+00
          2   -1    0    0  502    0  0.00000000000E+00  0.00000000000E+00  0.49376929142E+03  0.49376929142E+03  0.00000000000E+00 0. -1.
         -1   -1    0    0    0  501 -0.00000000000E+00 -0.00000000000E+00 -0.21251688428E+03  0.21251688428E+03  0.00000000000E+00 0.  1.
         23    2    1    2    0    0  0.22708182318E+01 -0.60780406388E+02 -0.16813647079E+03  0.20070822673E+03  0.91183907846E+02 0.  0.
         24    2    1    2    0    0  0.27978564523E+01  0.39925779980E+02  0.46880798747E+03  0.47663475080E+03  0.76143684229E+02 0.  0.
        -13    1    4    4    0    0 -0.15656280981E+02  0.15101082973E+02  0.31768334778E+02  0.38501804317E+02  0.00000000000E+00 0.  1.
         14    1    4    4    0    0  0.18454137433E+02  0.24824697007E+02  0.43703965269E+03  0.43813294648E+03  0.00000000000E+00 0. -1.
        -11    1    3    3    0    0  0.39601940072E+02 -0.38065543530E+01 -0.45626838617E+02  0.60536038157E+02  0.00000000000E+00 0.  1.
         11    1    3    3    0    0 -0.37331121840E+02 -0.56973852035E+02 -0.12250963218E+03  0.14017218857E+03  0.00000000000E+00 0. -1.
         21    1    1    2  502  501 -0.50686746842E+01  0.20854626407E+02 -0.19419109532E+02  0.28943198176E+02  0.00000000000E+00 0. -1.
<scales pt_clust_5="13000.00000" pt_clust_6="13000.00000" pt_clust_7="13000.00000" pt_clust_8="13000.00000" pt_clust_9="21.46175"></scales>
<clustering>
<clus scale="   21.462">  2  9  1 -1</clus>
<clus scale="   76.144">  5  6 -1 -1</clus>
<clus scale="   86.220">  1  5  2 -1</clus>
<clus scale="   91.184">  7  8 -1 -1</clus>
<clus scale="   86.220">  1  5  2 -1</clus>
</clustering>
</event>
<event>
 9    2  0.2869112E-005  0.2287255E+03  0.7546771E-02  0.1171474E+00
         -1   -1    0    0    0  501 -0.00000000000E+00  0.00000000000E+00  0.17870958042E+03  0.17870958042E+03  0.00000000000E+00 0.  1.
          2   -1    0    0  502    0  0.00000000000E+00 -0.00000000000E+00 -0.53426112627E+03  0.53426112627E+03  0.00000000000E+00 0. -1.
         24    2    1    2    0    0  0.15295297741E+01 -0.29813143800E+01  0.43469978172E+02  0.91627615262E+02  0.80590031515E+02 0.  0.
         23    2    1    2    0    0  0.13820232136E+03 -0.15431093358E+03 -0.32790289238E+03  0.39925369218E+03  0.94717780994E+02 0.  0.
        -13    1    3    3    0    0 -0.29582390448E+02  0.24217625472E+02  0.13364657126E+02  0.40499694668E+02  0.00000000000E+00 0.  1.
         14    1    3    3    0    0  0.31111920222E+02 -0.27198939852E+02  0.30105321046E+02  0.51127920594E+02  0.00000000000E+00 0. -1.
        -13    1    4    4    0    0  0.40085530749E+02 -0.25045633544E+00 -0.31032672123E+02  0.50694568180E+02  0.00000000000E+00 0. -1.
         13    1    4    4    0    0  0.98116790615E+02 -0.15406047725E+03 -0.29687022025E+03  0.34855912400E+03  0.00000000000E+00 0.  1.
         21    1    1    2  502  501 -0.13973185114E+03  0.15729224796E+03 -0.71118631649E+02  0.22208939925E+03  0.00000000000E+00 0. -1.
<scales pt_clust_5="13000.00000" pt_clust_6="13000.00000" pt_clust_7="13000.00000" pt_clust_8="13000.00000" pt_clust_9="208.19192"></scales>
<clustering>
<clus scale="   80.590">  5  6 -1 -1</clus>
<clus scale="   80.660">  1  5  2 -1</clus>
<clus scale="   94.718">  7  8 -1 -1</clus>
<clus scale="  208.192">  1  9  2 -1</clus>
<clus scale="  228.725">  2  5  1 -1</clus>
</clustering>
</event>
<event>
 9    2  0.2869112E-005  0.1348240E+03  0.7546771E-02  0.1230430E+00
         -1   -1    0    0    0  501 -0.00000000000E+00  0.00000000000E+00  0.65099216479E+02  0.65099216479E+02  0.00000000000E+00 0.  1.
          2   -1    0    0  502    0  0.00000000000E+00 -0.00000000000E+00 -0.96241048613E+03  0.96241048613E+03  0.00000000000E+00 0. -1.
         23    2    1    2    0    0  0.14583946261E+01 -0.62650710254E+02 -0.19393535578E+02  0.11128844428E+03  0.89898666276E+02 0.  0.
         24    2    1    2    0    0 -0.88752949841E+02 -0.19534919418E+02 -0.26217052516E+03  0.28890997803E+03  0.80479139935E+02 0.  0.
        -13    1    4    4    0    0 -0.41846113089E+02 -0.20033968162E+02 -0.38251615553E+02  0.60130218304E+02  0.00000000000E+00 0.  1.
         14    1    4    4    0    0 -0.46906836753E+02  0.49904874431E+00 -0.22391890960E+03  0.22877975973E+03  0.00000000000E+00 0. -1.
        -11    1    3    3    0    0  0.79070040913E+01 -0.23964167958E+02  0.35664582568E+02  0.43689409580E+02  0.00000000000E+00 0.  1.
         11    1    3    3    0    0 -0.64486094652E+01 -0.38686542296E+02 -0.55058118146E+02  0.67599034702E+02  0.00000000000E+00 0. -1.
         21    1    1    2  502  501  0.87294555215E+02  0.82185629672E+02 -0.61574720892E+03  0.62731128029E+03  0.00000000000E+00 0. -1.
<scales pt_clust_5="13000.00000" pt_clust_6="13000.00000" pt_clust_7="13000.00000" pt_clust_8="13000.00000" pt_clust_9="108.16942"></scales>
<clustering>
<clus scale="   80.479">  5  6 -1 -1</clus>
<clus scale="   89.899">  7  8 -1 -1</clus>
<clus scale="  109.586">  1  7  2 -1</clus>
<clus scale="  108.169">  2  9  1 -1</clus>
<clus scale="  108.169">  2  5  1 -1</clus>
</clustering>
</event>
<event>
 9    2  0.2869112E-005  0.9238757E+02  0.7546771E-02  0.1302936E+00
         -1   -1    0    0    0  501 -0.00000000000E+00  0.00000000000E+00  0.77023121597E+02  0.77023121597E+02  0.00000000000E+00 0.  1.
          2   -1    0    0  502    0  0.00000000000E+00 -0.00000000000E+00 -0.17312912364E+03  0.17312912364E+03  0.00000000000E+00 0. -1.
         23    2    1    2    0    0 -0.62863609828E+00 -0.14095711128E+02 -0.25030310115E+02  0.95462726407E+02  0.91035880031E+02 0.  0.
         24    2    1    2    0    0 -0.23485960794E+02 -0.30332362849E+01 -0.86586970695E+02  0.12129020159E+03  0.81567264459E+02 0.  0.
        -13    1    4    4    0    0 -0.13991362453E+02 -0.41915993325E+02 -0.37524231814E+02  0.57972206210E+02  0.00000000000E+00 0.  1.
         14    1    4    4    0    0 -0.94945983419E+01  0.38882757040E+02 -0.49062738882E+02  0.63317995382E+02  0.00000000000E+00 0. -1.
        -13    1    3    3    0    0  0.30177465551E+01  0.20828635686E+02  0.26042376903E+02  0.33483492255E+02  0.00000000000E+00 0.  1.
         13    1    3    3    0    0 -0.36463826534E+01 -0.34924346814E+02 -0.51072687018E+02  0.61979234152E+02  0.00000000000E+00 0. -1.
         21    1    1    2  502  501  0.24114596893E+02  0.17128947413E+02  0.15511278768E+02  0.33399317236E+02  0.00000000000E+00 0. -1.
<scales pt_clust_5="13000.00000" pt_clust_6="13000.00000" pt_clust_7="13000.00000" pt_clust_8="13000.00000" pt_clust_9="29.57896"></scales>
<clustering>
<clus scale="   29.579">  1  9  2 -1</clus>
<clus scale="   81.567">  5  6 -1 -1</clus>
<clus scale="   83.073">  2  5  1 -1</clus>
<clus scale="   91.036">  7  8 -1 -1</clus>
<clus scale="   83.073">  2  5  1 -1</clus>
</clustering>
</event>
<event>
 9    2  0.2869112E-005  0.1252097E+03  0.7546771E-02  0.1238883E+00
          2   -1    0    0  502    0  0.00000000000E+00  0.00000000000E+00  0.20129681694E+04  0.20129681694E+04  0.00000000000E+00 0. -1.
         -1   -1    0    0    0  501 -0.00000000000E+00 -0.00000000000E+00 -0.18727731029E+02  0.18727731029E+02  0.00000000000E+00 0.  1.
         23    2    1    2    0    0  0.35115400001E+02 -0.60659658188E+02  0.30043783169E+03  0.32222579978E+03  0.93026285983E+02 0.  0.
         24    2    1    2    0    0  0.16125724539E+02  0.88332389234E+02  0.15459649349E+04  0.15505757644E+04  0.78835089284E+02 0.  0.
        -11    1    4    4    0    0 -0.17509266164E+02  0.22798751896E+02  0.15379790949E+03  0.15646135131E+03  0.00000000000E+00 0.  1.
         12    1    4    4    0    0  0.33634990702E+02  0.65533637338E+02  0.13921670254E+04  0.13941144131E+04  0.00000000000E+00 0. -1.
        -11    1    3    3    0    0  0.49354707859E+02 -0.92858571749E+01  0.22046712540E+03  0.22611472246E+03  0.00000000000E+00 0.  1.
         11    1    3    3    0    0 -0.14239307858E+02 -0.51373801013E+02  0.79970706292E+02  0.96111077321E+02  0.00000000000E+00 0. -1.
         21    1    1    2  502  501 -0.51241124539E+02 -0.27672731046E+02  0.14783767183E+03  0.15889433627E+03  0.00000000000E+00 0. -1.
<scales pt_clust_5="13000.00000" pt_clust_6="13000.00000" pt_clust_7="13000.00000" pt_clust_8="13000.00000" pt_clust_9="58.23601"></scales>
<clustering>
<clus scale="   58.236">  2  9  1 -1</clus>
<clus scale="   78.835">  5  6 -1 -1</clus>
<clus scale="   93.026">  7  8 -1 -1</clus>
<clus scale="  115.059">  1  5  2 -1</clus>
<clus scale="  115.059">  1  5  2 -1</clus>
</clustering>
</event>
<event>
 9    2  0.2869112E-005  0.1008538E+03  0.7546771E-02  0.1284495E+00
         -1   -1    0    0    0  501 -0.00000000000E+00  0.00000000000E+00  0.11907695101E+02  0.11907695101E+02  0.00000000000E+00 0.  1.
          2   -1    0    0  502    0  0.00000000000E+00 -0.00000000000E+00 -0.10729407768E+04  0.10729407768E+04  0.00000000000E+00 0. -1.
         23    2    1    2    0    0  0.37073507937E+02  0.27218107423E+02 -0.44187614343E+03  0.45365902654E+03  0.91851596993E+02 0.  0.
         24    2    1    2    0    0 -0.41605304357E+02 -0.26733002418E+01 -0.55661990690E+03  0.56385546411E+03  0.79806740068E+02 0.  0.
        -11    1    4    4    0    0 -0.40383635182E+01  0.19986736890E+02 -0.35868481551E+02  0.41259253509E+02  0.00000000000E+00 0.  1.
         12    1    4    4    0    0 -0.37566940839E+02 -0.22660037131E+02 -0.52075142535E+03  0.52259621060E+03  0.00000000000E+00 0. -1.
        -13    1    3    3    0    0  0.52943904445E+02 -0.13681245630E+02 -0.17963773537E+03  0.18777632830E+03  0.00000000000E+00 0.  1.
         13    1    3    3    0    0 -0.15870396508E+02  0.40899353053E+02 -0.26223840806E+03  0.26588269824E+03  0.00000000000E+00 0. -1.
         21    1    1    2  502  501  0.45317964203E+01 -0.24544807181E+02 -0.62537031348E+02  0.67333981229E+02  0.00000000000E+00 0.  1.
<scales pt_clust_5="13000.00000" pt_clust_6="13000.00000" pt_clust_7="13000.00000" pt_clust_8="13000.00000" pt_clust_9="24.95966"></scales>
<clustering>
<clus scale="   24.960">  1  9  2 -1</clus>
<clus scale="   79.807">  5  6 -1 -1</clus>
<clus scale="   90.022">  2  5  1 -1</clus>
<clus scale="   91.852">  7  8 -1 -1</clus>
<clus scale="   90.022">  2  5  1 -1</clus>
</clustering>
</event>
<event>
 9    2  0.2869112E-005  0.9261781E+02  0.7546771E-02  0.1304486E+00
         -1   -1    0    0    0  501 -0.00000000000E+00  0.00000000000E+00  0.14494933485E+03  0.14494933485E+03  0.00000000000E+00 0.  1.
          2   -1    0    0  502    0  0.00000000000E+00 -0.00000000000E+00 -0.10941537523E+03  0.10941537523E+03  0.00000000000E+00 0. -1.
         23    2    1    2    0    0 -0.27810666141E+02 -0.70794940611E+01  0.88314667684E+02  0.13038246114E+03  0.91523512053E+02 0.  0.
         24    2    1    2    0    0  0.70899288899E+01  0.10330391056E+02 -0.61964538161E+02  0.10108552387E+03  0.78877722306E+02 0.  0.
        -11    1    4    4    0    0 -0.32854880731E+02  0.19566067088E+02 -0.36244150500E+02  0.52686930207E+02  0.00000000000E+00 0.  1.
         12    1    4    4    0    0  0.39944809621E+02 -0.92356760325E+01 -0.25720387660E+02  0.48398593666E+02  0.00000000000E+00 0. -1.
        -13    1    3    3    0    0 -0.36607231903E+01 -0.38773305453E+02  0.80991742388E+02  0.89868973762E+02  0.00000000000E+00 0.  1.
         13    1    3    3    0    0 -0.24149942951E+02  0.31693811392E+02  0.73229252970E+01  0.40513487383E+02  0.00000000000E+00 0. -1.
         21    1    1    2  502  501  0.20720737251E+02 -0.32508969949E+01  0.91838300954E+01  0.22896725065E+02  0.00000000000E+00 0. -1.
<scales pt_clust_5="13000.00000" pt_clust_6="13000.00000" pt_clust_7="13000.00000" pt_clust_8="13000.00000" pt_clust_9="20.97421"></scales>
<clustering>
<clus scale="   20.974">  1  9  2 -1</clus>
<clus scale="   78.878">  5  6 -1 -1</clus>
<clus scale="   80.145">  2  5  1 -1</clus>
<clus scale="   91.524">  7  8 -1 -1</clus>
<clus scale="   80.145">  2  5  1 -1</clus>
</clustering>
</event>
<event>
 9    2  0.2869112E-005  0.1508851E+03  0.7546771E-02  0.1211365E+00
          2   -1    0    0  502    0  0.00000000000E+00  0.00000000000E+00  0.58925488336E+03  0.58925488336E+03  0.00000000000E+00 0. -1.
         -1   -1    0    0    0  501 -0.00000000000E+00 -0.00000000000E+00 -0.73898847251E+02  0.73898847251E+02  0.00000000000E+00 0.  1.
         23    2    1    2    0    0 -0.99109217105E+02 -0.71211184734E+02  0.10447403633E+03  0.18717748668E+03  0.96056845178E+02 0.  0.
         24    2    1    2    0    0  0.63881344722E+02 -0.47083060806E+02  0.18903191302E+03  0.22210227419E+03  0.85432518634E+02 0.  0.
        -13    1    4    4    0    0 -0.75371292591E+01 -0.38736151662E+02  0.10100578688E+03  0.10844107500E+03  0.00000000000E+00 0.  1.
         14    1    4    4    0    0  0.71418473981E+02 -0.83469091441E+01  0.88026126138E+02  0.11366119919E+03  0.00000000000E+00 0. -1.
        -11    1    3    3    0    0 -0.47071943625E+02 -0.86448545691E+02  0.83363387551E+02  0.12899059389E+03  0.00000000000E+00 0.  1.
         11    1    3    3    0    0 -0.52037273480E+02  0.15237360957E+02  0.21110648781E+02  0.58186892786E+02  0.00000000000E+00 0. -1.
         21    1    1    2  502  501  0.35227872383E+02  0.11829424554E+03  0.22185008676E+03  0.25387396975E+03  0.00000000000E+00 0. -1.
<scales pt_clust_5="13000.00000" pt_clust_6="13000.00000" pt_clust_7="13000.00000" pt_clust_8="13000.00000" pt_clust_9="116.35892"></scales>
<clustering>
<clus scale="   85.433">  5  6 -1 -1</clus>
<clus scale="   96.057">  7  8 -1 -1</clus>
<clus scale="  116.603">  1  5  2 -1</clus>
<clus scale="  116.359">  1  9  2 -1</clus>
<clus scale="  116.603">  1  5  2 -1</clus>
</clustering>
</event>
<event>
 9    2  0.2869112E-005  0.9190158E+02  0.7546771E-02  0.1300709E+00
          2   -1    0    0  502    0  0.00000000000E+00  0.00000000000E+00  0.24177697769E+03  0.24177697769E+03  0.00000000000E+00 0. -1.
         -1   -1    0    0    0  501 -0.00000000000E+00 -0.00000000000E+00 -0.63191712848E+02  0.63191712848E+02  0.00000000000E+00 0.  1.
         23    2    1    2    0    0 -0.15961663500E+02 -0.70505287329E+00  0.31457046133E+02  0.98140968888E+02  0.91579649604E+02 0.  0.
         24    2    1    2    0    0 -0.87304917916E+01 -0.10171703447E+02  0.15515793679E+03  0.17867665180E+03  0.87588101412E+02 0.  0.
        -11    1    4    4    0    0  0.15926314469E+02  0.30251925862E+02  0.32394059199E+02  0.47097787446E+02  0.00000000000E+00 0.  1.
         12    1    4    4    0    0 -0.24656806261E+02 -0.40423629308E+02  0.12276387760E+03  0.13157886435E+03  0.00000000000E+00 0. -1.
        -13    1    3    3    0    0 -0.85256254485E+01 -0.39594051702E+02 -0.90470849335E+01  0.41499698376E+02  0.00000000000E+00 0.  1.
         13    1    3    3    0    0 -0.74360380517E+01  0.38888998829E+02  0.40504131067E+02  0.56641270513E+02  0.00000000000E+00 0. -1.
         21    1    1    2  502  501  0.24692155292E+02  0.10876756320E+02 -0.80297180911E+01  0.28151069849E+02  0.00000000000E+00 0.  1.
<scales pt_clust_5="13000.00000" pt_clust_6="13000.00000" pt_clust_7="13000.00000" pt_clust_8="13000.00000" pt_clust_9="26.98159"></scales>
<clustering>
<clus scale="   26.982">  2  9  1 -1</clus>
<clus scale="   87.588">  5  6 -1 -1</clus>
<clus scale="   87.925">  1  5  2 -1</clus>
<clus scale="   91.580">  7  8 -1 -1</clus>
<clus scale="   87.925">  1  5  2 -1</clus>
</clustering>
</event>
<event>
 9    2  0.2869112E-005  0.1163145E+03  0.7546771E-02  0.1253531E+00
          2   -1    0    0  502    0  0.00000000000E+00  0.00000000000E+00  0.25408590330E+03  0.25408590330E+03  0.00000000000E+00 0. -1.
         -1   -1    0    0    0  501 -0.00000000000E+00 -0.00000000000E+00 -0.11463746016E+03  0.11463746016E+03  0.00000000000E+00 0.  1.
         23    2    1    2    0    0 -0.10253665172E+02  0.16476013070E+02 -0.17527079292E+02  0.95425552603E+02  0.91772767883E+02 0.  0.
         24    2    1    2    0    0  0.27066437866E+02 -0.85720099865E+02  0.16228427940E+03  0.20184435899E+03  0.79526287088E+02 0.  0.
        -13    1    4    4    0    0 -0.28454121787E+02 -0.30257743387E+02  0.55010746440E+02  0.68930039210E+02  0.00000000000E+00 0.  1.
         14    1    4    4    0    0  0.55520559653E+02 -0.55462356478E+02  0.10727353296E+03  0.13291431978E+03  0.00000000000E+00 0. -1.
        -11    1    3    3    0    0 -0.23794926148E+02 -0.27825630113E+02 -0.30130905775E+02  0.47416618230E+02  0.00000000000E+00 0.  1.
         11    1    3    3    0    0  0.13541260976E+02  0.44301643183E+02  0.12603826483E+02  0.48008934372E+02  0.00000000000E+00 0. -1.
         21    1    1    2  502  501 -0.16812772694E+02  0.69244086795E+02 -0.53087569703E+01  0.71453451858E+02  0.00000000000E+00 0. -1.
<scales pt_clust_5="13000.00000" pt_clust_6="13000.00000" pt_clust_7="13000.00000" pt_clust_8="13000.00000" pt_clust_9="71.25597"></scales>
<clustering>
<clus scale="   71.256">  2  9  1 -1</clus>
<clus scale="   79.526">  5  6 -1 -1</clus>
<clus scale="   91.773">  7  8 -1 -1</clus>
<clus scale="  106.917">  1  5  2 -1</clus>
<clus scale="  106.917">  1  5  2 -1</clus>
</clustering>
</event>
<event>
 9    2  0.3998644E-005  0.1016750E+03  0.7546771E-02  0.1284133E+00
          4   -1    0    0  502    0  0.00000000000E+00  0.00000000000E+00  0.62829621320E+02  0.62829621320E+02  0.00000000000E+00 0. -1.
         -3   -1    0    0    0  501 -0.00000000000E+00 -0.00000000000E+00 -0.31410694601E+03  0.31410694601E+03  0.00000000000E+00 0.  1.
         24    2    1    2    0    0 -0.45695875271E+01  0.41348461806E+02 -0.23389747428E+03  0.25050759998E+03  0.79469822874E+02 0.  0.
         23    2    1    2    0    0 -0.80859838032E+01 -0.23327597574E+02  0.18940098907E+01  0.97164710586E+02  0.93956552550E+02 0.  0.
        -11    1    3    3    0    0 -0.21095176730E+02  0.58818007657E+02 -0.13549590329E+03  0.14921026879E+03  0.00000000000E+00 0.  1.
         12    1    3    3    0    0  0.16525589203E+02 -0.17469545852E+02 -0.98401570994E+02  0.10129733118E+03  0.00000000000E+00 0. -1.
        -13    1    4    4    0    0 -0.41769412911E+02 -0.33216791641E+02  0.20818058537E+02  0.57283773122E+02  0.00000000000E+00 0. -1.
         13    1    4    4    0    0  0.33683429108E+02  0.98891940671E+01 -0.18924048646E+02  0.39880937463E+02  0.00000000000E+00 0.  1.
         21    1    1    2  502  501  0.12655571330E+02 -0.18020864232E+02 -0.19273860306E+02  0.29264256772E+02  0.00000000000E+00 0.  1.
<scales pt_clust_5="13000.00000" pt_clust_6="13000.00000" pt_clust_7="13000.00000" pt_clust_8="13000.00000" pt_clust_9="22.02079"></scales>
<clustering>
<clus scale="   22.021">  1  9  2 -1</clus>
<clus scale="   79.470">  5  6 -1 -1</clus>
<clus scale="   88.461">  2  5  1 -1</clus>
<clus scale="   93.957">  7  8 -1 -1</clus>
<clus scale="   22.021">  1  5  2 -1</clus>
</clustering>
</event>
<event>
 9    2  0.2869112E-005  0.1537892E+03  0.7546771E-02  0.1196002E+00
          2   -1    0    0  502    0  0.00000000000E+00  0.00000000000E+00  0.90560052046E+03  0.90560052046E+03  0.00000000000E+00 0. -1.
         -1   -1    0    0    0  501 -0.00000000000E+00 -0.00000000000E+00 -0.41762924216E+02  0.41762924216E+02  0.00000000000E+00 0.  1.
         23    2    1    2    0    0  0.12638672622E+03 -0.56802222322E+02  0.27566062826E+03  0.31885308145E+03  0.80488561643E+02 0.  0.
         24    2    1    2    0    0 -0.10533194362E+03  0.72228241797E+02  0.58244770864E+03  0.60178789403E+03  0.81188661974E+02 0.  0.
        -13    1    4    4    0    0 -0.33529468301E+02  0.55699232381E+02  0.15572750526E+03  0.16875332775E+03  0.00000000000E+00 0.  1.
         14    1    4    4    0    0 -0.71802475314E+02  0.16529009416E+02  0.42672020338E+03  0.43303456627E+03  0.00000000000E+00 0. -1.
        -11    1    3    3    0    0  0.27976321176E+02  0.20164995123E+02  0.73768648484E+02  0.81431658917E+02  0.00000000000E+00 0. -1.
         11    1    3    3    0    0  0.98410405041E+02 -0.76967217445E+02  0.20189197977E+03  0.23742142254E+03  0.00000000000E+00 0.  1.
         21    1    1    2  502  501 -0.21054782601E+02 -0.15426019475E+02  0.57292593383E+01  0.26722469194E+02  0.00000000000E+00 0. -1.
<scales pt_clust_5="13000.00000" pt_clust_6="13000.00000" pt_clust_7="13000.00000" pt_clust_8="13000.00000" pt_clust_9="26.10107"></scales>
<clustering>
<clus scale="   26.101">  2  9  1 -1</clus>
<clus scale="   80.489">  7  8 -1 -1</clus>
<clus scale="   81.189">  5  6 -1 -1</clus>
<clus scale="  153.421">  2  7  1 -1</clus>
<clus scale="  153.789">  1  5  2 -1</clus>
</clustering>
</event>
<event>
 9    2  0.2869112E-005  0.4539626E+03  0.7546771E-02  0.1077334E+00
         -1   -1    0    0    0  501 -0.00000000000E+00  0.00000000000E+00  0.54575885559E+03  0.54575885559E+03  0.00000000000E+00 0.  1.
          2   -1    0    0  502    0  0.00000000000E+00 -0.00000000000E+00 -0.71204827303E+03  0.71204827303E+03  0.00000000000E+00 0. -1.
         23    2    1    2    0    0  0.38596045354E+03  0.13281202481E+03 -0.18543527560E+03  0.46443623711E+03  0.12128590714E+03 0.  0.
         24    2    1    2    0    0  0.48323638225E+02 -0.17708611319E+02 -0.24837664223E+03  0.27047534136E+03  0.93899866613E+02 0.  0.
        -11    1    4    4    0    0  0.55934392916E+01 -0.44183752783E+02 -0.55521155140E+02  0.71176465501E+02  0.00000000000E+00 0.  1.
         12    1    4    4    0    0  0.42730198933E+02  0.26475141464E+02 -0.19285548709E+03  0.19929887586E+03  0.00000000000E+00 0. -1.
        -13    1    3    3    0    0  0.25327142160E+03  0.98829196455E+02 -0.59362041942E+02  0.27827589744E+03  0.00000000000E+00 0.  1.
         13    1    3    3    0    0  0.13268903194E+03  0.33982828354E+02 -0.12607323366E+03  0.18616033967E+03  0.00000000000E+00 0. -1.
         21    1    1    2  502  501 -0.43428409177E+03 -0.11510341349E+03  0.26752250039E+03  0.52289555016E+03  0.00000000000E+00 0. -1.
<scales pt_clust_5="13000.00000" pt_clust_6="13000.00000" pt_clust_7="13000.00000" pt_clust_8="13000.00000" pt_clust_9="437.46055"></scales>
<clustering>
<clus scale="   93.900">  5  6 -1 -1</clus>
<clus scale="  107.079">  2  5  1 -1</clus>
<clus scale="  121.286">  7  8 -1 -1</clus>
<clus scale="  437.461">  1  9  2 -1</clus>
<clus scale="  107.079">  2  5  1 -1</clus>
</clustering>
</event>
<event>
 9    2  0.2869112E-005  0.1227812E+03  0.7546771E-02  0.1241103E+00
          4   -1    0    0  502    0  0.00000000000E+00  0.00000000000E+00  0.80459801899E+03  0.80459801899E+03  0.00000000000E+00 0. -1.
         -3   -1    0    0    0  501 -0.00000000000E+00 -0.00000000000E+00 -0.10245147496E+03  0.10245147496E+03  0.00000000000E+00 0.  1.
         24    2    1    2    0    0  0.11620601110E+03 -0.16079585260E+02  0.32762576904E+02  0.14631786111E+03  0.81074903371E+02 0.  0.
         23    2    1    2    0    0 -0.34281789375E+02  0.78466125900E+02  0.64243201166E+03  0.65428884793E+03  0.89681842722E+02 0.  0.
        -11    1    3    3    0    0  0.84634533540E+02  0.29276157409E+00 -0.15828427914E+02  0.86102433805E+02  0.00000000000E+00 0.  1.
         12    1    3    3    0    0  0.31571477555E+02 -0.16372346834E+02  0.48591004818E+02  0.60215427302E+02  0.00000000000E+00 0. -1.
        -13    1    4    4    0    0  0.29398261959E+02  0.39784041669E+02  0.25053447910E+03  0.25537140207E+03  0.00000000000E+00 0.  1.
         13    1    4    4    0    0 -0.63680051334E+02  0.38682084231E+02  0.39189753257E+03  0.39891744586E+03  0.00000000000E+00 0. -1.
         21    1    1    2  502  501 -0.81924221720E+02 -0.62386540641E+02  0.26951955465E+02  0.10644278492E+03  0.00000000000E+00 0.  1.
<scales pt_clust_5="13000.00000" pt_clust_6="13000.00000" pt_clust_7="13000.00000" pt_clust_8="13000.00000" pt_clust_9="102.97407"></scales>
<clustering>
<clus scale="   81.075">  5  6 -1 -1</clus>
<clus scale="   89.682">  7  8 -1 -1</clus>
<clus scale="  102.974">  2  9  1 -1</clus>
<clus scale="  116.643">  2  5  1 -1</clus>
<clus scale="  122.781">  1  5  2 -1</clus>
</clustering>
</event>
<event>
 9    2  0.2869112E-005  0.1456188E+03  0.7546771E-02  0.1208233E+00
          2   -1    0    0  502    0  0.00000000000E+00  0.00000000000E+00  0.10035018562E+04  0.10035018562E+04  0.00000000000E+00 0. -1.
         -1   -1    0    0    0  501 -0.00000000000E+00 -0.00000000000E+00 -0.36432176703E+02  0.36432176703E+02  0.00000000000E+00 0.  1.
         23    2    1    2    0    0 -0.54574357867E+02  0.79485161234E+02  0.33487802371E+03  0.36046884215E+03  0.92185920843E+02 0.  0.
         24    2    1    2    0    0  0.70511581246E+02 -0.10139836017E+03  0.63527520494E+03  0.65219448025E+03  0.80805590909E+02 0.  0.
        -13    1    4    4    0    0  0.73804615734E+02 -0.84767021720E+02  0.61744127635E+03  0.62758768234E+03  0.00000000000E+00 0.  1.
         14    1    4    4    0    0 -0.32930344880E+01 -0.16631338450E+02  0.17833928588E+02  0.24606797916E+02  0.00000000000E+00 0. -1.
        -13    1    3    3    0    0  0.21563940358E+02 -0.22629652258E+01  0.54019553075E+02  0.58208561654E+02  0.00000000000E+00 0.  1.
         13    1    3    3    0    0 -0.76138298225E+02  0.81748126460E+02  0.28085847064E+03  0.30226028050E+03  0.00000000000E+00 0. -1.
         21    1    1    2  502  501 -0.15937223379E+02  0.21913198936E+02 -0.30835491454E+01  0.27270710515E+02  0.00000000000E+00 0.  1.
<scales pt_clust_5="13000.00000" pt_clust_6="13000.00000" pt_clust_7="13000.00000" pt_clust_8="13000.00000" pt_clust_9="27.09582"></scales>
<clustering>
<clus scale="   27.096">  2  9  1 -1</clus>
<clus scale="   80.806">  5  6 -1 -1</clus>
<clus scale="   92.186">  7  8 -1 -1</clus>
<clus scale="  138.694">  1  5  2 -1</clus>
<clus scale="  138.694">  1  5  2 -1</clus>
</clustering>
</event>
<event>
 9    2  0.2869112E-005  0.1502364E+03  0.7546771E-02  0.1202643E+00
         -1   -1    0    0    0  501 -0.00000000000E+00  0.00000000000E+00  0.10099616142E+03  0.10099616142E+03  0.00000000000E+00 0.  1.
          2   -1    0    0  502    0  0.00000000000E+00 -0.00000000000E+00 -0.39822834849E+03  0.39822834849E+03  0.00000000000E+00 0. -1.
         24    2    1    2    0    0 -0.12994193577E+03 -0.30019766050E+02 -0.43353457973E+02  0.16148155782E+03  0.80066710771E+02 0.  0.
         23    2    1    2    0    0  0.10590145140E+03  0.39898413604E+02 -0.26993723714E+03  0.30719122141E+03  0.93238048588E+02 0.  0.
        -11    1    3    3    0    0 -0.10609340205E+03 -0.24153848804E+02  0.31911184640E+01  0.10885495674E+03  0.00000000000E+00 0.  1.
         12    1    3    3    0    0 -0.23848533723E+02 -0.58659172459E+01 -0.46544576437E+02  0.52626601083E+02  0.00000000000E+00 0. -1.
        -11    1    4    4    0    0  0.21754109220E+01  0.38540622576E+02 -0.43716070191E+02  0.58319866205E+02  0.00000000000E+00 0.  1.
         11    1    4    4    0    0  0.10372604048E+03  0.13577910277E+01 -0.22622116694E+03  0.24887135521E+03  0.00000000000E+00 0. -1.
         21    1    1    2  502  501  0.24040484372E+02 -0.98786475541E+01  0.16058508040E+02  0.30551730668E+02  0.00000000000E+00 0. -1.
<scales pt_clust_5="13000.00000" pt_clust_6="13000.00000" pt_clust_7="13000.00000" pt_clust_8="13000.00000" pt_clust_9="25.99101"></scales>
<clustering>
<clus scale="   25.991">  1  9  2 -1</clus>
<clus scale="   80.067">  5  6 -1 -1</clus>
<clus scale="   93.238">  7  8 -1 -1</clus>
<clus scale="  142.437">  1  5  2 -1</clus>
<clus scale="  150.236">  2  5  1 -1</clus>
</clustering>
</event>
<event>
 9    2  0.2869112E-005  0.1168031E+03  0.7546771E-02  0.1253384E+00
          2   -1    0    0  502    0  0.00000000000E+00  0.00000000000E+00  0.72585252981E+03  0.72585252981E+03  0.00000000000E+00 0. -1.
         -1   -1    0    0    0  501 -0.00000000000E+00 -0.00000000000E+00 -0.68495345041E+02  0.68495345041E+02  0.00000000000E+00 0.  1.
         23    2    1    2    0    0 -0.11431270134E+02  0.58296624829E+02  0.23056845326E+03  0.25605216724E+03  0.94189863092E+02 0.  0.
         24    2    1    2    0    0  0.66633818434E+02 -0.46281654238E+02  0.45919712654E+03  0.47316518538E+03  0.80257300911E+02 0.  0.
        -11    1    4    4    0    0  0.39561032685E+02 -0.26647385374E+02  0.84936939434E+02  0.97413767686E+02  0.00000000000E+00 0.  1.
         12    1    4    4    0    0  0.27072785749E+02 -0.19634268864E+02  0.37426018711E+03  0.37575141769E+03  0.00000000000E+00 0. -1.
        -11    1    3    3    0    0 -0.38729176191E+02  0.64336819102E+02  0.11648377917E+03  0.13859165267E+03  0.00000000000E+00 0.  1.
         11    1    3    3    0    0  0.27297906056E+02 -0.60401942725E+01  0.11408467409E+03  0.11746051457E+03  0.00000000000E+00 0. -1.
         21    1    1    2  502  501 -0.55202548299E+02 -0.12014970591E+02 -0.32408395034E+02  0.65130522228E+02  0.00000000000E+00 0.  1.
<scales pt_clust_5="13000.00000" pt_clust_6="13000.00000" pt_clust_7="13000.00000" pt_clust_8="13000.00000" pt_clust_9="56.49496"></scales>
<clustering>
<clus scale="   56.495">  2  9  1 -1</clus>
<clus scale="   80.257">  5  6 -1 -1</clus>
<clus scale="   94.190">  7  8 -1 -1</clus>
<clus scale="  105.889">  1  5  2 -1</clus>
<clus scale="  105.889">  1  5  2 -1</clus>
</clustering>
</event>
<event>
 9    2  0.2869112E-005  0.9959481E+02  0.7546771E-02  0.1287899E+00
         -1   -1    0    0    0  501 -0.00000000000E+00  0.00000000000E+00  0.15757646460E+03  0.15757646460E+03  0.00000000000E+00 0.  1.
          2   -1    0    0  502    0  0.00000000000E+00 -0.00000000000E+00 -0.33518993314E+03  0.33518993314E+03  0.00000000000E+00 0. -1.
         23    2    1    2    0    0 -0.34639257037E+02 -0.45032843658E+02  0.60381055077E+02  0.12462243433E+03  0.93043238280E+02 0.  0.
         24    2    1    2    0    0  0.25221576297E+02  0.22989938688E+02 -0.29431385375E+03  0.30693571792E+03  0.80151264727E+02 0.  0.
        -11    1    4    4    0    0  0.28597689362E+02  0.22979107019E+01 -0.28995466378E+02  0.40790259878E+02  0.00000000000E+00 0.  1.
         12    1    4    4    0    0 -0.33761130650E+01  0.20692027986E+02 -0.26531838737E+03  0.26614545804E+03  0.00000000000E+00 0. -1.
        -11    1    3    3    0    0  0.64904904631E+01 -0.27814799173E+02  0.72911996106E+02  0.78306760217E+02  0.00000000000E+00 0.  1.
         11    1    3    3    0    0 -0.41129747500E+02 -0.17218044485E+02 -0.12530941029E+02  0.46315674111E+02  0.00000000000E+00 0. -1.
         21    1    1    2  502  501  0.94176807402E+01  0.22042904970E+02  0.56319330126E+02  0.61208245490E+02  0.00000000000E+00 0.  1.
<scales pt_clust_5="13000.00000" pt_clust_6="13000.00000" pt_clust_7="13000.00000" pt_clust_8="13000.00000" pt_clust_9="23.97045"></scales>
<clustering>
<clus scale="   23.970">  1  9  2 -1</clus>
<clus scale="   80.151">  5  6 -1 -1</clus>
<clus scale="   87.672">  2  5  1 -1</clus>
<clus scale="   93.043">  7  8 -1 -1</clus>
<clus scale="   87.672">  2  5  1 -1</clus>
</clustering>
</event>
<event>
 9    2  0.2869112E-005  0.1093852E+03  0.7546771E-02  0.1266770E+00
          2   -1    0    0  502    0  0.00000000000E+00  0.00000000000E+00  0.10792780399E+04  0.10792780399E+04  0.00000000000E+00 0. -1.
         -1   -1    0    0    0  501 -0.00000000000E+00 -0.00000000000E+00 -0.31069251106E+02  0.31069251106E+02  0.00000000000E+00 0.  1.
         23    2    1    2    0    0 -0.60118886054E+02 -0.40465292059E+01  0.15389978814E+03  0.18902534198E+03  0.91732111392E+02 0.  0.
         24    2    1    2    0    0  0.46395027443E+02 -0.88386104096E+02  0.54899135783E+03  0.56358404156E+03  0.79188755272E+02 0.  0.
        -13    1    4    4    0    0 -0.69062771283E+01 -0.29255151482E+02  0.50446249776E+02  0.58722948398E+02  0.00000000000E+00 0.  1.
         14    1    4    4    0    0  0.53301304572E+02 -0.59130952614E+02  0.49854510805E+03  0.50486109316E+03  0.00000000000E+00 0. -1.
        -13    1    3    3    0    0 -0.66869271400E+01 -0.25133704940E+02  0.13772724795E+01  0.26044481145E+02  0.00000000000E+00 0.  1.
         13    1    3    3    0    0 -0.53431958914E+02  0.21087175735E+02  0.15252251566E+03  0.16298086083E+03  0.00000000000E+00 0. -1.
         21    1    1    2  502  501  0.13723858611E+02  0.92432633302E+02  0.34531764282E+03  0.35773790747E+03  0.00000000000E+00 0. -1.
<scales pt_clust_5="13000.00000" pt_clust_6="13000.00000" pt_clust_7="13000.00000" pt_clust_8="13000.00000" pt_clust_9="93.44590"></scales>
<clustering>
<clus scale="   79.189">  5  6 -1 -1</clus>
<clus scale="   91.732">  7  8 -1 -1</clus>
<clus scale="   93.446">  1  9  2 -1</clus>
<clus scale="   99.102">  1  5  2 -1</clus>
<clus scale="   93.446">  1  5  2 -1</clus>
</clustering>
</event>
<event>
 9    2  0.2869112E-005  0.1082516E+03  0.7546771E-02  0.1268249E+00
         -1   -1    0    0    0  501 -0.00000000000E+00  0.00000000000E+00  0.81552023369E+02  0.81552023369E+02  0.00000000000E+00 0.  1.
          2   -1    0    0  502    0  0.00000000000E+00 -0.00000000000E+00 -0.91127362286E+03  0.91127362286E+03  0.00000000000E+00 0. -1.
         23    2    1    2    0    0  0.62493363999E+02  0.16479233357E+02  0.20437546497E+01  0.11192209956E+03  0.91353126719E+02 0.  0.
         24    2    1    2    0    0 -0.47361368584E+02 -0.33375501357E+02 -0.84750259766E+03  0.85329698964E+03  0.80610645462E+02 0.  0.
        -11    1    4    4    0    0 -0.42149884546E+01 -0.26842225077E+02 -0.78728093205E+02  0.83284955631E+02  0.00000000000E+00 0.  1.
         12    1    4    4    0    0 -0.43146380130E+02 -0.65332762797E+01 -0.76877450445E+03  0.77001203401E+03  0.00000000000E+00 0. -1.
        -11    1    3    3    0    0  0.86219858131E+02  0.87064127408E+01  0.48720277539E+01  0.86795173906E+02  0.00000000000E+00 0.  1.
         11    1    3    3    0    0 -0.23726494132E+02  0.77728206166E+01 -0.28282731042E+01  0.25126925656E+02  0.00000000000E+00 0. -1.
         21    1    1    2  502  501 -0.15131995415E+02  0.16896268000E+02  0.15737243517E+02  0.27606557030E+02  0.00000000000E+00 0. -1.
<scales pt_clust_5="13000.00000" pt_clust_6="13000.00000" pt_clust_7="13000.00000" pt_clust_8="13000.00000" pt_clust_9="22.68174"></scales>
<clustering>
<clus scale="   22.682">  1  9  2 -1</clus>
<clus scale="   80.611">  5  6 -1 -1</clus>
<clus scale="   91.353">  7  8 -1 -1</clus>
<clus scale="   99.353">  2  5  1 -1</clus>
<clus scale="   99.353">  2  5  1 -1</clus>
</clustering>
</event>
<event>
 9    2  0.2869112E-005  0.1157984E+03  0.7546771E-02  0.1253128E+00
         -1   -1    0    0    0  501 -0.00000000000E+00  0.00000000000E+00  0.76291498333E+02  0.76291498333E+02  0.00000000000E+00 0.  1.
          2   -1    0    0  502    0  0.00000000000E+00 -0.00000000000E+00 -0.67573655762E+03  0.67573655762E+03  0.00000000000E+00 0. -1.
         23    2    1    2    0    0  0.80788173362E+01 -0.95513332986E+02 -0.18283874878E+02  0.13219721864E+03  0.89183745530E+02 0.  0.
         24    2    1    2    0    0  0.46597832146E+02  0.57563214033E+02 -0.51314418441E+03  0.52466750501E+03  0.80462135507E+02 0.  0.
        -13    1    4    4    0    0  0.31759217341E+02  0.32152476140E+01 -0.59352983350E+02  0.67392598524E+02  0.00000000000E+00 0.  1.
         14    1    4    4    0    0  0.14838614805E+02  0.54347966419E+02 -0.45379120106E+03  0.45727490648E+03  0.00000000000E+00 0. -1.
        -11    1    3    3    0    0 -0.13614354967E+02 -0.83151209338E+02  0.19898243683E+02  0.86576061225E+02  0.00000000000E+00 0.  1.
         11    1    3    3    0    0  0.21693172303E+02 -0.12362123648E+02 -0.38182118561E+02  0.45621157410E+02  0.00000000000E+00 0. -1.
         21    1    1    2  502  501 -0.54676649482E+02  0.37950118953E+02 -0.68017000008E+02  0.95163332314E+02  0.00000000000E+00 0.  1.
<scales pt_clust_5="13000.00000" pt_clust_6="13000.00000" pt_clust_7="13000.00000" pt_clust_8="13000.00000" pt_clust_9="66.55635"></scales>
<clustering>
<clus scale="   66.556">  1  9  2 -1</clus>
<clus scale="   80.462">  5  6 -1 -1</clus>
<clus scale="   89.184">  7  8 -1 -1</clus>
<clus scale="  109.223">  2  5  1 -1</clus>
<clus scale="  109.223">  2  5  1 -1</clus>
</clustering>
</event>
<event>
 9    2  0.2869112E-005  0.9739358E+02  0.7546771E-02  0.1290577E+00
          2   -1    0    0  502    0  0.00000000000E+00  0.00000000000E+00  0.26182693360E+03  0.26182693360E+03  0.00000000000E+00 0. -1.
         -1   -1    0    0    0  501 -0.00000000000E+00 -0.00000000000E+00 -0.11078203139E+03  0.11078203139E+03  0.00000000000E+00 0.  1.
         23    2    1    2    0    0  0.48792122115E+01 -0.38273568477E+02 -0.72071735975E+02  0.12192614570E+03  0.90459809441E+02 0.  0.
         24    2    1    2    0    0 -0.10218876246E+02  0.13957828563E+02  0.20016136556E+03  0.21681968652E+03  0.81528877014E+02 0.  0.
        -13    1    4    4    0    0 -0.21695427116E+02 -0.24875279925E+02  0.41250049488E+02  0.52830272495E+02  0.00000000000E+00 0.  1.
         14    1    4    4    0    0  0.11476550869E+02  0.38833108488E+02  0.15891131607E+03  0.16398941402E+03  0.00000000000E+00 0. -1.
        -13    1    3    3    0    0  0.32261362712E+02 -0.30589593858E+02 -0.80760337912E+02  0.92188670432E+02  0.00000000000E+00 0.  1.
         13    1    3    3    0    0 -0.27382150500E+02 -0.76839746194E+01  0.86886019370E+01  0.29737475273E+02  0.00000000000E+00 0. -1.
         21    1    1    2  502  501  0.53396640349E+01  0.24315739914E+02  0.22955272627E+02  0.33863132769E+02  0.00000000000E+00 0.  1.
<scales pt_clust_5="13000.00000" pt_clust_6="13000.00000" pt_clust_7="13000.00000" pt_clust_8="13000.00000" pt_clust_9="24.89512"></scales>
<clustering>
<clus scale="   24.895">  1  9  2 -1</clus>
<clus scale="   81.529">  5  6 -1 -1</clus>
<clus scale="   89.160">  1  5  2 -1</clus>
<clus scale="   90.460">  7  8 -1 -1</clus>
<clus scale="   24.895">  1  5  2 -1</clus>
</clustering>
</event>
<event>
 9    2  0.2869112E-005  0.9475024E+02  0.7546771E-02  0.1297321E+00
          2   -1    0    0  502    0  0.00000000000E+00  0.00000000000E+00  0.79654281307E+03  0.79654281307E+03  0.00000000000E+00 0. -1.
         -1   -1    0    0    0  501 -0.00000000000E+00 -0.00000000000E+00 -0.46510023527E+02  0.46510023527E+02  0.00000000000E+00 0.  1.
         23    2    1    2    0    0  0.38473817283E+02 -0.56242184885E+02  0.65094944522E+02  0.13057132029E+03  0.90377540920E+02 0.  0.
         24    2    1    2    0    0 -0.27177706170E+02 -0.98198363230E+01  0.59057171177E+03  0.59673714332E+03  0.80530830014E+02 0.  0.
        -13    1    4    4    0    0  0.27657276213E+02 -0.10959365253E+01  0.13609126333E+03  0.13887749263E+03  0.00000000000E+00 0.  1.
         14    1    4    4    0    0 -0.54834982383E+02 -0.87238997978E+01  0.45448044844E+03  0.45785965069E+03  0.00000000000E+00 0. -1.
        -13    1    3    3    0    0 -0.71988825171E+01 -0.52643709721E+02  0.66022623617E+02  0.84747689714E+02  0.00000000000E+00 0. -1.
         13    1    3    3    0    0  0.45672699800E+02 -0.35984751642E+01 -0.92767909431E+00  0.45823630575E+02  0.00000000000E+00 0.  1.
         21    1    1    2  502  501 -0.11296111113E+02  0.66062021208E+02  0.94366133251E+02  0.11574437298E+03  0.00000000000E+00 0.  1.
<scales pt_clust_5="13000.00000" pt_clust_6="13000.00000" pt_clust_7="13000.00000" pt_clust_8="13000.00000" pt_clust_9="67.02084"></scales>
<clustering>
<clus scale="   67.021">  2  9  1 -1</clus>
<clus scale="   80.531">  5  6 -1 -1</clus>
<clus scale="   85.409">  1  5  2 -1</clus>
<clus scale="   90.378">  7  8 -1 -1</clus>
<clus scale="   85.409">  1  5  2 -1</clus>
</clustering>
</event>
<event>
 9    2  0.2869112E-005  0.9668470E+02  0.7546771E-02  0.1292463E+00
         -3   -1    0    0    0  501 -0.00000000000E+00  0.00000000000E+00  0.18942111128E+03  0.18942111128E+03  0.00000000000E+00 0.  1.
          4   -1    0    0  502    0  0.00000000000E+00 -0.00000000000E+00 -0.66647040873E+03  0.66647040873E+03  0.00000000000E+00 0. -1.
         23    2    1    2    0    0 -0.21512278462E+02  0.40225748173E+02  0.52080885900E+02  0.11430650151E+03  0.90954211943E+02 0.  0.
         24    2    1    2    0    0 -0.12503364209E+02 -0.30436739135E+02 -0.62925817504E+03  0.63538472017E+03  0.81640446915E+02 0.  0.
        -13    1    4    4    0    0 -0.13610978499E+02  0.14826216935E+02 -0.44078111893E+02  0.48455705467E+02  0.00000000000E+00 0.  1.
         14    1    4    4    0    0  0.11076142899E+01 -0.45262956070E+02 -0.58518006314E+03  0.58692901471E+03  0.00000000000E+00 0. -1.
        -13    1    3    3    0    0  0.30823727280E+02  0.28729044458E+02  0.42547564446E+02  0.59881177336E+02  0.00000000000E+00 0.  1.
         13    1    3    3    0    0 -0.52336005742E+02  0.11496703715E+02  0.95333214549E+01  0.54425324172E+02  0.00000000000E+00 0. -1.
         21    1    1    2  502  501  0.34015642671E+02 -0.97890090373E+01  0.10012799169E+03  0.10620029832E+03  0.00000000000E+00 0.  1.
<scales pt_clust_5="13000.00000" pt_clust_6="13000.00000" pt_clust_7="13000.00000" pt_clust_8="13000.00000" pt_clust_9="35.39617"></scales>
<clustering>
<clus scale="   35.396">  1  9  2 -1</clus>
<clus scale="   81.640">  5  6 -1 -1</clus>
<clus scale="   87.980">  2  5  1 -1</clus>
<clus scale="   90.954">  7  8 -1 -1</clus>
<clus scale="   87.980">  2  5  1 -1</clus>
</clustering>
</event>
<event>
 9    2  0.2869112E-005  0.1012529E+03  0.7546771E-02  0.1285605E+00
          2   -1    0    0  502    0  0.00000000000E+00  0.00000000000E+00  0.51736256873E+03  0.51736256873E+03  0.00000000000E+00 0. -1.
         -1   -1    0    0    0  501 -0.00000000000E+00 -0.00000000000E+00 -0.32595778374E+02  0.32595778374E+02  0.00000000000E+00 0.  1.
         23    2    1    2    0    0 -0.60605555952E+01  0.33724435297E+01  0.10589820552E+03  0.14269833083E+03  0.95395387628E+02 0.  0.
         24    2    1    2    0    0  0.17869999530E+02 -0.39155203610E+02  0.34426118078E+03  0.35609810368E+03  0.80234855237E+02 0.  0.
        -11    1    4    4    0    0 -0.21312099360E+02 -0.18040740319E+01  0.27983179212E+02  0.35220996310E+02  0.00000000000E+00 0.  1.
         12    1    4    4    0    0  0.39182098890E+02 -0.37351129578E+02  0.31627800157E+03  0.32087710737E+03  0.00000000000E+00 0. -1.
        -13    1    3    3    0    0  0.32941663477E+01  0.33586052901E+02  0.16828654395E+01  0.33789147924E+02  0.00000000000E+00 0.  1.
         13    1    3    3    0    0 -0.93547219429E+01 -0.30213609371E+02  0.10421534008E+03  0.10890918291E+03  0.00000000000E+00 0. -1.
         21    1    1    2  502  501 -0.11809443935E+02  0.35782760080E+02  0.34607404055E+02  0.51161912595E+02  0.00000000000E+00 0.  1.
<scales pt_clust_5="13000.00000" pt_clust_6="13000.00000" pt_clust_7="13000.00000" pt_clust_8="13000.00000" pt_clust_9="37.68115"></scales>
<clustering>
<clus scale="   37.681">  2  9  1 -1</clus>
<clus scale="   80.235">  5  6 -1 -1</clus>
<clus scale="   87.118">  1  5  2 -1</clus>
<clus scale="   95.395">  7  8 -1 -1</clus>
<clus scale="   87.118">  1  5  2 -1</clus>
</clustering>
</event>
<event>
 9    2  0.2869112E-005  0.1364540E+03  0.7546771E-02  0.1236919E+00
         -1   -1    0    0    0  501 -0.00000000000E+00  0.00000000000E+00  0.26885941110E+03  0.26885941110E+03  0.00000000000E+00 0.  1.
          2   -1    0    0  502    0  0.00000000000E+00 -0.00000000000E+00 -0.12100053417E+03  0.12100053417E+03  0.00000000000E+00 0. -1.
         23    2    1    2    0    0  0.19006742452E+01 -0.11054173717E+02  0.97906010805E+02  0.13470804804E+03  0.91841515318E+02 0.  0.
         24    2    1    2    0    0  0.60907048468E+02  0.96630684705E+02  0.45206407184E+01  0.13968659348E+03  0.80279202940E+02 0.  0.
        -13    1    4    4    0    0  0.65336501851E+02  0.92233113601E+02 -0.19647895309E+02  0.11472508666E+03  0.00000000000E+00 0.  1.
         14    1    4    4    0    0 -0.44294533827E+01  0.43975711040E+01  0.24168536028E+02  0.24961506818E+02  0.00000000000E+00 0. -1.
        -11    1    3    3    0    0  0.34420441986E+02 -0.31991944484E+02  0.27687462829E+02  0.54542157422E+02  0.00000000000E+00 0. -1.
         11    1    3    3    0    0 -0.32519767741E+02  0.20937770767E+02  0.70218547976E+02  0.80165890618E+02  0.00000000000E+00 0.  1.
         21    1    1    2  502  501 -0.62807722713E+02 -0.85576510988E+02  0.45432225401E+02  0.11546530375E+03  0.00000000000E+00 0. -1.
<scales pt_clust_5="13000.00000" pt_clust_6="13000.00000" pt_clust_7="13000.00000" pt_clust_8="13000.00000" pt_clust_9="110.34018"></scales>
<clustering>
<clus scale="   80.279">  5  6 -1 -1</clus>
<clus scale="   91.842">  7  8 -1 -1</clus>
<clus scale="   92.524">  1  7  2 -1</clus>
<clus scale="  110.340">  1  9  2 -1</clus>
<clus scale="  136.454">  2  5  1 -1</clus>
</clustering>
</event>
<event>
 9    2  0.2869112E-005  0.9787461E+02  0.7546771E-02  0.1291757E+00
         -1   -1    0    0    0  501 -0.00000000000E+00  0.00000000000E+00  0.17478953653E+03  0.17478953653E+03  0.00000000000E+00 0.  1.
          2   -1    0    0  502    0  0.00000000000E+00 -0.00000000000E+00 -0.20766912156E+03  0.20766912156E+03  0.00000000000E+00 0. -1.
         23    2    1    2    0    0 -0.75638245692E+01  0.40861530365E+01  0.88277254769E+02  0.12957267170E+03  0.94457903072E+02 0.  0.
         24    2    1    2    0    0  0.10318796643E+02 -0.25375623560E+02 -0.17484699603E+03  0.19506328926E+03  0.82023258650E+02 0.  0.
        -13    1    4    4    0    0 -0.11241870412E+02 -0.40266243640E+02 -0.40575985279E+02  0.58259425063E+02  0.00000000000E+00 0.  1.
         14    1    4    4    0    0  0.21560667055E+02  0.14890620080E+02 -0.13427101075E+03  0.13680386420E+03  0.00000000000E+00 0. -1.
        -11    1    3    3    0    0  0.37276402810E+02  0.24282095684E+02  0.52167429105E+02  0.68560856446E+02  0.00000000000E+00 0.  1.
         11    1    3    3    0    0 -0.44840227380E+02 -0.20195942647E+02  0.36109825664E+02  0.61011815252E+02  0.00000000000E+00 0. -1.
         21    1    1    2  502  501 -0.27549720734E+01  0.21289470523E+02  0.53690156238E+02  0.57822697127E+02  0.00000000000E+00 0.  1.
<scales pt_clust_5="13000.00000" pt_clust_6="13000.00000" pt_clust_7="13000.00000" pt_clust_8="13000.00000" pt_clust_9="21.46698"></scales>
<clustering>
<clus scale="   21.467">  1  9  2 -1</clus>
<clus scale="   82.023">  5  6 -1 -1</clus>
<clus scale="   85.936">  2  5  1 -1</clus>
<clus scale="   94.458">  7  8 -1 -1</clus>
<clus scale="   85.936">  2  5  1 -1</clus>
</clustering>
</event>
<event>
 9    2  0.2869112E-005  0.1090467E+03  0.7546771E-02  0.1262612E+00
          2   -1    0    0  502    0  0.00000000000E+00  0.00000000000E+00  0.35554594446E+03  0.35554594446E+03  0.00000000000E+00 0. -1.
         -1   -1    0    0    0  501 -0.00000000000E+00 -0.00000000000E+00 -0.75222368702E+02  0.75222368702E+02  0.00000000000E+00 0.  1.
         23    2    1    2    0    0  0.61930735284E+02 -0.25678943032E+02  0.35576366149E+02  0.11380040784E+03  0.84794049956E+02 0.  0.
         24    2    1    2    0    0 -0.69089670131E+02 -0.14847273854E+01  0.26190755260E+03  0.28404993591E+03  0.85517326004E+02 0.  0.
        -11    1    4    4    0    0  0.13132830740E+02 -0.20725279175E+02  0.44449962235E+02  0.50772114224E+02  0.00000000000E+00 0.  1.
         12    1    4    4    0    0 -0.82222500871E+02  0.19240551789E+02  0.21745759036E+03  0.23327782168E+03  0.00000000000E+00 0. -1.
        -11    1    3    3    0    0  0.12118487715E+02 -0.39824113728E+02  0.44854202952E+02  0.61194095313E+02  0.00000000000E+00 0. -1.
         11    1    3    3    0    0  0.49812247569E+02  0.14145170696E+02 -0.92778368033E+01  0.52606312527E+02  0.00000000000E+00 0.  1.
         21    1    1    2  502  501  0.71589348465E+01  0.27163670417E+02 -0.17160342991E+02  0.32917969412E+02  0.00000000000E+00 0.  1.
<scales pt_clust_5="13000.00000" pt_clust_6="13000.00000" pt_clust_7="13000.00000" pt_clust_8="13000.00000" pt_clust_9="28.09120"></scales>
<clustering>
<clus scale="   28.091">  2  9  1 -1</clus>
<clus scale="   84.794">  7  8 -1 -1</clus>
<clus scale="   85.517">  5  6 -1 -1</clus>
<clus scale="  108.480">  2  7  1 -1</clus>
<clus scale="  109.047">  1  5  2 -1</clus>
</clustering>
</event>
<event>
 9    2  0.2869112E-005  0.1199300E+03  0.7546771E-02  0.1247074E+00
         -1   -1    0    0    0  501 -0.00000000000E+00  0.00000000000E+00  0.91826677555E+02  0.91826677555E+02  0.00000000000E+00 0.  1.
          2   -1    0    0  502    0  0.00000000000E+00 -0.00000000000E+00 -0.18837385723E+03  0.18837385723E+03  0.00000000000E+00 0. -1.
         24    2    1    2    0    0 -0.62449151049E+02 -0.52540777001E+02 -0.36834351474E+02  0.12071512735E+03  0.80962601288E+02 0.  0.
         23    2    1    2    0    0  0.65098329545E+02  0.31496741162E+02 -0.68873289243E+02  0.13638164935E+03  0.92879422340E+02 0.  0.
        -11    1    3    3    0    0  0.13636921474E+02 -0.19762608112E+02  0.94650904342E+01  0.25809189131E+02  0.00000000000E+00 0.  1.
         12    1    3    3    0    0 -0.76086072522E+02 -0.32778168890E+02 -0.46299441909E+02  0.94905938216E+02  0.00000000000E+00 0. -1.
        -13    1    4    4    0    0 -0.10255698216E+02  0.21664187674E+02  0.10789837991E+02  0.26285680081E+02  0.00000000000E+00 0.  1.
         13    1    4    4    0    0  0.75354027761E+02  0.98325534885E+01 -0.79663127234E+02  0.11009596927E+03  0.00000000000E+00 0. -1.
         21    1    1    2  502  501 -0.26491784962E+01  0.21044035839E+02  0.91604610469E+01  0.23103758086E+02  0.00000000000E+00 0. -1.
<scales pt_clust_5="13000.00000" pt_clust_6="13000.00000" pt_clust_7="13000.00000" pt_clust_8="13000.00000" pt_clust_9="21.21013"></scales>
<clustering>
<clus scale="   21.210">  1  9  2 -1</clus>
<clus scale="   80.963">  5  6 -1 -1</clus>
<clus scale="   92.879">  7  8 -1 -1</clus>
<clus scale="  110.957">  1  5  2 -1</clus>
<clus scale="  119.930">  2  5  1 -1</clus>
</clustering>
</event>
<event>
 9    2  0.2869112E-005  0.1021326E+03  0.7546771E-02  0.1287849E+00
         -1   -1    0    0    0  501 -0.00000000000E+00  0.00000000000E+00  0.42886751872E+02  0.42886751872E+02  0.00000000000E+00 0.  1.
          2   -1    0    0  502    0  0.00000000000E+00 -0.00000000000E+00 -0.27174781187E+03  0.27174781187E+03  0.00000000000E+00 0. -1.
         23    2    1    2    0    0  0.88356240579E+01  0.13187069865E+02 -0.87286288338E+02  0.13444758646E+03  0.10102123692E+03 0.  0.
         24    2    1    2    0    0 -0.18046121894E+02  0.58740358724E+01 -0.13493877175E+03  0.15800149741E+03  0.79973959810E+02 0.  0.
        -11    1    4    4    0    0 -0.46186427100E+02 -0.13385328134E+02 -0.77855741552E+02  0.91508849573E+02  0.00000000000E+00 0.  1.
         12    1    4    4    0    0  0.28140305206E+02  0.19259364006E+02 -0.57083030200E+02  0.66492647833E+02  0.00000000000E+00 0. -1.
        -13    1    3    3    0    0 -0.39247643488E+02  0.20782411412E+02 -0.69784754718E+02  0.82717580565E+02  0.00000000000E+00 0.  1.
         13    1    3    3    0    0  0.48083267546E+02 -0.75953415468E+01 -0.17501533619E+02  0.51730005897E+02  0.00000000000E+00 0. -1.
         21    1    1    2  502  501  0.92104978359E+01 -0.19061105738E+02 -0.66359999062E+01  0.22185479871E+02  0.00000000000E+00 0. -1.
<scales pt_clust_5="13000.00000" pt_clust_6="13000.00000" pt_clust_7="13000.00000" pt_clust_8="13000.00000" pt_clust_9="21.16977"></scales>
<clustering>
<clus scale="   21.170">  1  9  2 -1</clus>
<clus scale="   79.974">  5  6 -1 -1</clus>
<clus scale="   81.373">  2  5  1 -1</clus>
<clus scale="  101.021">  7  8 -1 -1</clus>
<clus scale="   81.373">  2  5  1 -1</clus>
</clustering>
</event>
<event>
 9    2  0.2869112E-005  0.9333585E+02  0.7546771E-02  0.1301822E+00
         -1   -1    0    0    0  501 -0.00000000000E+00  0.00000000000E+00  0.14506565303E+02  0.14506565303E+02  0.00000000000E+00 0.  1.
          2   -1    0    0  502    0  0.00000000000E+00 -0.00000000000E+00 -0.17406577200E+04  0.17406577200E+04  0.00000000000E+00 0. -1.
         23    2    1    2    0    0  0.16790819678E+02  0.35409415113E+00 -0.21505018375E+03  0.23461822316E+03  0.92287984578E+02 0.  0.
         24    2    1    2    0    0  0.11657068245E+02  0.12364488273E+02 -0.14460265454E+04  0.14483953482E+04  0.81040402354E+02 0.  0.
        -13    1    4    4    0    0 -0.67202670110E+01  0.19479167998E+02 -0.94296153277E+02  0.96521316285E+02  0.00000000000E+00 0.  1.
         14    1    4    4    0    0  0.18377335256E+02 -0.71146797251E+01 -0.13517303921E+04  0.13518740319E+04  0.00000000000E+00 0. -1.
        -13    1    3    3    0    0  0.48969221840E+02  0.12677943091E+02 -0.17305260574E+03  0.18029398016E+03  0.00000000000E+00 0. -1.
         13    1    3    3    0    0 -0.32178402162E+02 -0.12323848940E+02 -0.41997578015E+02  0.54324243000E+02  0.00000000000E+00 0.  1.
         21    1    1    2  502  501 -0.28447887923E+02 -0.12718582424E+02 -0.65074425551E+02  0.72150713974E+02  0.00000000000E+00 0.  1.
<scales pt_clust_5="13000.00000" pt_clust_6="13000.00000" pt_clust_7="13000.00000" pt_clust_8="13000.00000" pt_clust_9="31.16159"></scales>
<clustering>
<clus scale="   31.162">  1  9  2 -1</clus>
<clus scale="   81.040">  5  6 -1 -1</clus>
<clus scale="   82.232">  2  5  1 -1</clus>
<clus scale="   92.288">  7  8 -1 -1</clus>
<clus scale="   82.232">  2  5  1 -1</clus>
</clustering>
</event>
<event>
 9    2  0.2869112E-005  0.1038920E+03  0.7546771E-02  0.1274957E+00
         -1   -1    0    0    0  501 -0.00000000000E+00  0.00000000000E+00  0.86881426549E+02  0.86881426549E+02  0.00000000000E+00 0.  1.
          2   -1    0    0  502    0  0.00000000000E+00 -0.00000000000E+00 -0.56174812227E+03  0.56174812227E+03  0.00000000000E+00 0. -1.
         23    2    1    2    0    0 -0.51050918733E+01  0.42116842089E+02 -0.89685391281E+02  0.13154011622E+03  0.86368063626E+02 0.  0.
         24    2    1    2    0    0  0.22200547191E+02 -0.58132602045E+02 -0.44312599269E+03  0.45458866416E+03  0.80112074391E+02 0.  0.
        -13    1    4    4    0    0 -0.29803415933E+02 -0.13145384902E+02 -0.13296112417E+03  0.13689304324E+03  0.00000000000E+00 0.  1.
         14    1    4    4    0    0  0.52003963125E+02 -0.44987217143E+02 -0.31016486852E+03  0.31769562092E+03  0.00000000000E+00 0. -1.
        -13    1    3    3    0    0  0.29397742935E+02  0.48343644240E+02 -0.34841924717E+02  0.66447685785E+02  0.00000000000E+00 0. -1.
         13    1    3    3    0    0 -0.34502834809E+02 -0.62268021510E+01 -0.54843466564E+02  0.65092430432E+02  0.00000000000E+00 0.  1.
         21    1    1    2  502  501 -0.17095455318E+02  0.16015759956E+02  0.57944688253E+02  0.62500768445E+02  0.00000000000E+00 0.  1.
<scales pt_clust_5="13000.00000" pt_clust_6="13000.00000" pt_clust_7="13000.00000" pt_clust_8="13000.00000" pt_clust_9="23.42561"></scales>
<clustering>
<clus scale="   23.426">  1  9  2 -1</clus>
<clus scale="   80.112">  5  6 -1 -1</clus>
<clus scale="   86.368">  7  8 -1 -1</clus>
<clus scale="   98.753">  2  5  1 -1</clus>
<clus scale="   98.753">  2  5  1 -1</clus>
</clustering>
</event>
<event>
 9    2  0.2869112E-005  0.9365628E+02  0.7546771E-02  0.1299265E+00
         -1   -1    0    0    0  501 -0.00000000000E+00  0.00000000000E+00  0.10587857552E+03  0.10587857552E+03  0.00000000000E+00 0.  1.
          2   -1    0    0  502    0  0.00000000000E+00 -0.00000000000E+00 -0.20355582800E+03  0.20355582800E+03  0.00000000000E+00 0. -1.
         23    2    1    2    0    0 -0.37977714846E+01  0.26351773797E+02  0.60589267864E+02  0.11168172082E+03  0.89960593232E+02 0.  0.
         24    2    1    2    0    0 -0.22396786123E+02 -0.24224559212E+02 -0.14185840135E+03  0.16677032870E+03  0.81240945367E+02 0.  0.
        -11    1    4    4    0    0 -0.35408520287E+02  0.59136094031E+01 -0.21124168122E+02  0.41652905828E+02  0.00000000000E+00 0.  1.
         12    1    4    4    0    0  0.13011734164E+02 -0.30138168615E+02 -0.12073423323E+03  0.12511742288E+03  0.00000000000E+00 0. -1.
        -11    1    3    3    0    0  0.18510526639E+02  0.42752398392E+02  0.68540259116E+02  0.82874448923E+02  0.00000000000E+00 0.  1.
         11    1    3    3    0    0 -0.22308298124E+02 -0.16400624595E+02 -0.79509912516E+01  0.28807271897E+02  0.00000000000E+00 0. -1.
         21    1    1    2  502  501  0.26194557608E+02 -0.21272145852E+01 -0.16408118988E+02  0.30982353992E+02  0.00000000000E+00 0.  1.
<scales pt_clust_5="13000.00000" pt_clust_6="13000.00000" pt_clust_7="13000.00000" pt_clust_8="13000.00000" pt_clust_9="26.28079"></scales>
<clustering>
<clus scale="   26.281">  2  9  1 -1</clus>
<clus scale="   81.241">  5  6 -1 -1</clus>
<clus scale="   85.315">  2  5  1 -1</clus>
<clus scale="   89.961">  7  8 -1 -1</clus>
<clus scale="   26.281">  2  5  1 -1</clus>
</clustering>
</event>
<event>
 9    2  0.2869112E-005  0.1240691E+03  0.7546771E-02  0.1240195E+00
         -1   -1    0    0    0  501 -0.00000000000E+00  0.00000000000E+00  0.10236560181E+03  0.10236560181E+03  0.00000000000E+00 0.  1.
          2   -1    0    0  502    0  0.00000000000E+00 -0.00000000000E+00 -0.35375105170E+03  0.35375105170E+03  0.00000000000E+00 0. -1.
         24    2    1    2    0    0  0.44791491252E+02 -0.59262088733E+02  0.18900834135E+02  0.11068333303E+03  0.79845387024E+02 0.  0.
         23    2    1    2    0    0 -0.75356159995E+02  0.41306916529E+02 -0.28134529739E+03  0.30829992633E+03  0.92243460527E+02 0.  0.
        -13    1    3    3    0    0  0.67061738155E+02 -0.54129910800E+02  0.14037918144E+02  0.87317736534E+02  0.00000000000E+00 0.  1.
         14    1    3    3    0    0 -0.22270246903E+02 -0.51321779335E+01  0.48629159918E+01  0.23365596492E+02  0.00000000000E+00 0. -1.
        -13    1    4    4    0    0 -0.39955812382E+02 -0.49901298027E+01 -0.22011380520E+03  0.22376652024E+03  0.00000000000E+00 0. -1.
         13    1    4    4    0    0 -0.35400347613E+02  0.46297046332E+02 -0.61231492185E+02  0.84533406091E+02  0.00000000000E+00 0.  1.
         21    1    1    2  502  501  0.30564668742E+02  0.17955172204E+02  0.11059013364E+02  0.37133394146E+02  0.00000000000E+00 0. -1.
<scales pt_clust_5="13000.00000" pt_clust_6="13000.00000" pt_clust_7="13000.00000" pt_clust_8="13000.00000" pt_clust_9="35.44837"></scales>
<clustering>
<clus scale="   35.448">  1  9  2 -1</clus>
<clus scale="   79.845">  5  6 -1 -1</clus>
<clus scale="   92.243">  7  8 -1 -1</clus>
<clus scale="  115.150">  1  5  2 -1</clus>
<clus scale="  124.069">  2  5  1 -1</clus>
</clustering>
</event>
<event>
 9    2  0.2869112E-005  0.1481538E+03  0.7546771E-02  0.1207847E+00
         -1   -1    0    0    0  501 -0.00000000000E+00  0.00000000000E+00  0.55046366017E+02  0.55046366017E+02  0.00000000000E+00 0.  1.
          2   -1    0    0  502    0  0.00000000000E+00 -0.00000000000E+00 -0.76975193994E+03  0.76975193994E+03  0.00000000000E+00 0. -1.
         23    2    1    2    0    0 -0.89462080397E+02 -0.53386140088E+02 -0.82817410701E+02  0.16854873913E+03  0.10342345075E+03 0.  0.
         24    2    1    2    0    0  0.11174356230E+03  0.36012783901E+02 -0.58041091601E+03  0.59752814892E+03  0.79871853625E+02 0.  0.
        -11    1    4    4    0    0  0.52109285847E+02 -0.40538656499E+01 -0.11146488294E+03  0.12311064790E+03  0.00000000000E+00 0.  1.
         12    1    4    4    0    0  0.59634276455E+02  0.40066649551E+02 -0.46894603307E+03  0.47441750101E+03  0.00000000000E+00 0. -1.
        -13    1    3    3    0    0 -0.97889597135E+02 -0.22277276578E+02 -0.26778667645E+02  0.10390258572E+03  0.00000000000E+00 0.  1.
         13    1    3    3    0    0  0.84275167371E+01 -0.31108863510E+02 -0.56038743055E+02  0.64646153408E+02  0.00000000000E+00 0. -1.
         21    1    1    2  502  501 -0.22281481905E+02  0.17373356187E+02 -0.51477247214E+02  0.58721417914E+02  0.00000000000E+00 0.  1.
<scales pt_clust_5="13000.00000" pt_clust_6="13000.00000" pt_clust_7="13000.00000" pt_clust_8="13000.00000" pt_clust_9="28.25417"></scales>
<clustering>
<clus scale="   28.254">  2  9  1 -1</clus>
<clus scale="   79.872">  5  6 -1 -1</clus>
<clus scale="  103.423">  7  8 -1 -1</clus>
<clus scale="  132.788">  2  5  1 -1</clus>
<clus scale="   28.254">  2  5  1 -1</clus>
</clustering>
</event>
<event>
 9    2  0.2869112E-005  0.1224253E+03  0.7546771E-02  0.1242809E+00
         -1   -1    0    0    0  501 -0.00000000000E+00  0.00000000000E+00  0.20339698830E+02  0.20339698830E+02  0.00000000000E+00 0.  1.
          2   -1    0    0  502    0  0.00000000000E+00 -0.00000000000E+00 -0.11222216183E+04  0.11222216183E+04  0.00000000000E+00 0. -1.
         23    2    1    2    0    0 -0.33533311002E+02 -0.51191739213E+02 -0.25554709748E+03  0.27898328546E+03  0.93713805942E+02 0.  0.
         24    2    1    2    0    0  0.56255612019E+02  0.64241924936E+02 -0.81098771601E+03  0.81957771107E+03  0.81944067327E+02 0.  0.
        -13    1    4    4    0    0  0.39452979023E+01  0.23821997583E+02 -0.47997931277E+02  0.53729455155E+02  0.00000000000E+00 0.  1.
         14    1    4    4    0    0  0.52310314117E+02  0.40419927353E+02 -0.76298978473E+03  0.76584825592E+03  0.00000000000E+00 0. -1.
        -13    1    3    3    0    0  0.24869116252E+02 -0.12630685894E+02 -0.14844800696E+03  0.15104574783E+03  0.00000000000E+00 0. -1.
         13    1    3    3    0    0 -0.58402427255E+02 -0.38561053319E+02 -0.10709909052E+03  0.12793753762E+03  0.00000000000E+00 0.  1.
         21    1    1    2  502  501 -0.22722301017E+02 -0.13050185723E+02 -0.35347105956E+02  0.44000320571E+02  0.00000000000E+00 0.  1.
<scales pt_clust_5="13000.00000" pt_clust_6="13000.00000" pt_clust_7="13000.00000" pt_clust_8="13000.00000" pt_clust_9="26.20325"></scales>
<clustering>
<clus scale="   26.203">  1  9  2 -1</clus>
<clus scale="   81.944">  5  6 -1 -1</clus>
<clus scale="   93.714">  7  8 -1 -1</clus>
<clus scale="  113.668">  2  5  1 -1</clus>
<clus scale="  113.668">  2  5  1 -1</clus>
</clustering>
</event>
<event>
 9    2  0.2869112E-005  0.9660943E+02  0.7546771E-02  0.1290519E+00
         -1   -1    0    0    0  501 -0.00000000000E+00  0.00000000000E+00  0.90190209509E+02  0.90190209509E+02  0.00000000000E+00 0.  1.
          2   -1    0    0  502    0  0.00000000000E+00 -0.00000000000E+00 -0.74107817226E+03  0.74107817226E+03  0.00000000000E+00 0. -1.
         23    2    1    2    0    0 -0.55165491767E+02  0.24876287564E+02  0.24894032492E+02  0.11243956632E+03  0.91437858983E+02 0.  0.
         24    2    1    2    0    0  0.28975822379E+02  0.96207272133E+01 -0.66875711869E+03  0.67495066939E+03  0.85966072556E+02 0.  0.
        -11    1    4    4    0    0 -0.12855228916E+02 -0.26246478141E+02 -0.12325230843E+03  0.12666990984E+03  0.00000000000E+00 0.  1.
         12    1    4    4    0    0  0.41831051294E+02  0.35867205354E+02 -0.54550481026E+03  0.54828075955E+03  0.00000000000E+00 0. -1.
        -11    1    3    3    0    0 -0.69405683654E+02 -0.10126288434E+02  0.65839988135E+01  0.70448844429E+02  0.00000000000E+00 0.  1.
         11    1    3    3    0    0  0.14240191888E+02  0.35002575998E+02  0.18310033679E+02  0.41990721890E+02  0.00000000000E+00 0. -1.
         21    1    1    2  502  501  0.26189669388E+02 -0.34497014778E+02 -0.70248765506E+01  0.43878146061E+02  0.00000000000E+00 0.  1.
<scales pt_clust_5="13000.00000" pt_clust_6="13000.00000" pt_clust_7="13000.00000" pt_clust_8="13000.00000" pt_clust_9="43.31216"></scales>
<clustering>
<clus scale="   43.312">  1  9  2 -1</clus>
<clus scale="   85.966">  5  6 -1 -1</clus>
<clus scale="   91.438">  7  8 -1 -1</clus>
<clus scale="   91.448">  2  5  1 -1</clus>
<clus scale="   91.448">  2  5  1 -1</clus>
</clustering>
</event>
<event>
 9    2  0.2869112E-005  0.1223057E+03  0.7546771E-02  0.1241123E+00
          2   -1    0    0  502    0  0.00000000000E+00  0.00000000000E+00  0.79809616393E+03  0.79809616393E+03  0.00000000000E+00 0. -1.
         -1   -1    0    0    0  501 -0.00000000000E+00 -0.00000000000E+00 -0.46678398688E+02  0.46678398688E+02  0.00000000000E+00 0.  1.
         23    2    1    2    0    0 -0.84790984266E+02  0.13469014761E+02  0.59870332631E+02  0.13535173079E+03  0.85817882324E+02 0.  0.
         24    2    1    2    0    0  0.97746603057E+02  0.90771635242E+01  0.63112085900E+03  0.64363872272E+03  0.79501405069E+02 0.  0.
        -11    1    4    4    0    0  0.19765578134E+02 -0.25308640842E+02  0.84168904974E+02  0.90086680174E+02  0.00000000000E+00 0.  1.
         12    1    4    4    0    0  0.77981024924E+02  0.34385804366E+02  0.54695195403E+03  0.55355204255E+03  0.00000000000E+00 0. -1.
        -11    1    3    3    0    0 -0.14758929775E+02  0.40683530179E+02  0.78946529666E+01  0.43992058163E+02  0.00000000000E+00 0.  1.
         11    1    3    3    0    0 -0.70032054491E+02 -0.27214515418E+02  0.51975679664E+02  0.91359672626E+02  0.00000000000E+00 0. -1.
         21    1    1    2  502  501 -0.12955618791E+02 -0.22546178285E+02  0.60426573611E+02  0.65784109113E+02  0.00000000000E+00 0. -1.
<scales pt_clust_5="13000.00000" pt_clust_6="13000.00000" pt_clust_7="13000.00000" pt_clust_8="13000.00000" pt_clust_9="26.00343"></scales>
<clustering>
<clus scale="   26.003">  1  9  2 -1</clus>
<clus scale="   79.501">  5  6 -1 -1</clus>
<clus scale="   85.818">  7  8 -1 -1</clus>
<clus scale="  117.960">  1  5  2 -1</clus>
<clus scale="   26.003">  1  5  2 -1</clus>
</clustering>
</event>
<event>
 9    2  0.2869112E-005  0.1123790E+03  0.7546771E-02  0.1259479E+00
         -1   -1    0    0    0  501 -0.00000000000E+00  0.00000000000E+00  0.21835979467E+02  0.21835979467E+02  0.00000000000E+00 0.  1.
          2   -1    0    0  502    0  0.00000000000E+00 -0.00000000000E+00 -0.11558577636E+04  0.11558577636E+04  0.00000000000E+00 0. -1.
         23    2    1    2    0    0  0.80203788216E+01 -0.89665924207E+02 -0.29225573150E+03  0.31855619063E+03  0.89220678992E+02 0.  0.
         24    2    1    2    0    0  0.41953906118E+02  0.33322540844E+02 -0.45887249404E+03  0.46890751358E+03  0.80248168467E+02 0.  0.
        -13    1    4    4    0    0  0.10336468337E+02 -0.24049400586E+02 -0.73847868792E+02  0.78350009389E+02  0.00000000000E+00 0.  1.
         14    1    4    4    0    0  0.31617437781E+02  0.57371941430E+02 -0.38502462524E+03  0.39055750419E+03  0.00000000000E+00 0. -1.
        -13    1    3    3    0    0  0.32947979791E+02 -0.27118158354E+01 -0.11349716211E+03  0.11821391256E+03  0.00000000000E+00 0. -1.
         13    1    3    3    0    0 -0.24927600970E+02 -0.86954108371E+02 -0.17875856939E+03  0.20034227807E+03  0.00000000000E+00 0.  1.
         21    1    1    2  502  501 -0.49974284939E+02  0.56343383363E+02 -0.38289355859E+03  0.39023003884E+03  0.00000000000E+00 0.  1.
<scales pt_clust_5="13000.00000" pt_clust_6="13000.00000" pt_clust_7="13000.00000" pt_clust_8="13000.00000" pt_clust_9="75.31272"></scales>
<clustering>
<clus scale="   75.313">  2  9  1 -1</clus>
<clus scale="   80.248">  5  6 -1 -1</clus>
<clus scale="   89.221">  7  8 -1 -1</clus>
<clus scale="  105.397">  2  5  1 -1</clus>
<clus scale="   75.313">  2  5  1 -1</clus>
</clustering>
</event>
<event>
 9    2  0.2869112E-005  0.9509928E+02  0.7546771E-02  0.1297031E+00
         -1   -1    0    0    0  501 -0.00000000000E+00  0.00000000000E+00  0.22069549817E+02  0.22069549817E+02  0.00000000000E+00 0.  1.
          2   -1    0    0  502    0  0.00000000000E+00 -0.00000000000E+00 -0.55925543482E+03  0.55925543482E+03  0.00000000000E+00 0. -1.
         23    2    1    2    0    0  0.25168453103E+01  0.38837548107E+02 -0.17352062284E+03  0.20004552493E+03  0.91619407552E+02 0.  0.
         24    2    1    2    0    0  0.49898036879E+01 -0.20164750351E+02 -0.34037351217E+03  0.35049750440E+03  0.81011465247E+02 0.  0.
        -13    1    4    4    0    0 -0.37137869789E+02 -0.90105874794E+01 -0.12305028036E+03  0.12884790862E+03  0.00000000000E+00 0.  1.
         14    1    4    4    0    0  0.42127673477E+02 -0.11154162872E+02 -0.21732323181E+03  0.22164959578E+03  0.00000000000E+00 0. -1.
        -13    1    3    3    0    0 -0.37600301308E+02 -0.48066723454E+01 -0.47443556332E+02  0.60727076291E+02  0.00000000000E+00 0.  1.
         13    1    3    3    0    0  0.40117146618E+02  0.43644220452E+02 -0.12607706651E+03  0.13931844864E+03  0.00000000000E+00 0. -1.
         21    1    1    2  502  501 -0.75066489982E+01 -0.18672797755E+02 -0.23291749993E+02  0.30781955314E+02  0.00000000000E+00 0. -1.
<scales pt_clust_5="13000.00000" pt_clust_6="13000.00000" pt_clust_7="13000.00000" pt_clust_8="13000.00000" pt_clust_9="20.12519"></scales>
<clustering>
<clus scale="   20.125">  1  9  2 -1</clus>
<clus scale="   81.011">  5  6 -1 -1</clus>
<clus scale="   84.927">  2  5  1 -1</clus>
<clus scale="   91.619">  7  8 -1 -1</clus>
<clus scale="   84.927">  2  5  1 -1</clus>
</clustering>
</event>
<event>
 9    2  0.2869112E-005  0.1003811E+03  0.7546771E-02  0.1289467E+00
         -1   -1    0    0    0  501 -0.00000000000E+00  0.00000000000E+00  0.30870783874E+02  0.30870783874E+02  0.00000000000E+00 0.  1.
          2   -1    0    0  502    0  0.00000000000E+00 -0.00000000000E+00 -0.52756521914E+03  0.52756521914E+03  0.00000000000E+00 0. -1.
         23    2    1    2    0    0  0.47305097965E+02  0.13358145817E+02 -0.23051799319E+03  0.25361458833E+03  0.93624793056E+02 0.  0.
         24    2    1    2    0    0 -0.26149397884E+02  0.27202879472E+02 -0.23489441038E+03  0.24940187007E+03  0.74847318627E+02 0.  0.
        -11    1    4    4    0    0 -0.48673038405E+02  0.92888615065E+01 -0.18765110399E+03  0.19408318950E+03  0.00000000000E+00 0.  1.
         12    1    4    4    0    0  0.22523640521E+02  0.17914017965E+02 -0.47243306387E+02  0.55318680574E+02  0.00000000000E+00 0. -1.
        -13    1    3    3    0    0 -0.17913968650E+02 -0.18465990807E+02 -0.25888492990E+02  0.36498180208E+02  0.00000000000E+00 0.  1.
         13    1    3    3    0    0  0.65219066615E+02  0.31824136624E+02 -0.20462950021E+03  0.21711640812E+03  0.00000000000E+00 0. -1.
         21    1    1    2  502  501 -0.21155700082E+02 -0.40561025289E+02 -0.31282031692E+02  0.55419544614E+02  0.00000000000E+00 0.  1.
<scales pt_clust_5="13000.00000" pt_clust_6="13000.00000" pt_clust_7="13000.00000" pt_clust_8="13000.00000" pt_clust_9="45.74670"></scales>
<clustering>
<clus scale="   45.747">  1  9  2 -1</clus>
<clus scale="   74.847">  5  6 -1 -1</clus>
<clus scale="   83.144">  2  5  1 -1</clus>
<clus scale="   93.625">  7  8 -1 -1</clus>
<clus scale="   83.144">  2  5  1 -1</clus>
</clustering>
</event>
<event>
 9    2  0.3049216E-005  0.9516422E+02  0.7546771E-02  0.1297085E+00
         -1   -1    0    0    0  501 -0.00000000000E+00  0.00000000000E+00  0.87359070418E+02  0.87359070418E+02  0.00000000000E+00 0.  1.
          2   -1    0    0  502    0  0.00000000000E+00 -0.00000000000E+00 -0.32928252923E+03  0.32928252923E+03  0.00000000000E+00 0. -1.
         24    2    1    2    0    0  0.80365919640E+00  0.16907006744E+01  0.46450930224E+02  0.92449798463E+02  0.79911025399E+02 0.  0.
         23    2    1    2    0    0 -0.11539530054E+01  0.31526888194E+02 -0.26906085497E+03  0.28576598286E+03  0.90957006288E+02 0.  0.
        -13    1    3    3    0    0 -0.58315945839E+01  0.37605382549E+02  0.40273242587E+02  0.55408540501E+02  0.00000000000E+00 0.  1.
         14    1    3    3    0    0  0.66352537803E+01 -0.35914681874E+02  0.61776876375E+01  0.37041257962E+02  0.00000000000E+00 0. -1.
        -13    1    4    4    0    0  0.44663852786E+02  0.13129901795E+02 -0.14269810502E+03  0.15009997749E+03  0.00000000000E+00 0. -1.
         13    1    4    4    0    0 -0.45817805791E+02  0.18396986399E+02 -0.12636274995E+03  0.13566600536E+03  0.00000000000E+00 0.  1.
         21    1    1    2  502  501  0.35029380896E+00 -0.33217588869E+02 -0.19313534060E+02  0.38425818324E+02  0.00000000000E+00 0. -1.
<scales pt_clust_5="13000.00000" pt_clust_6="13000.00000" pt_clust_7="13000.00000" pt_clust_8="13000.00000" pt_clust_9="33.21944"></scales>
<clustering>
<clus scale="   33.219">  1  9  2 -1</clus>
<clus scale="   79.911">  5  6 -1 -1</clus>
<clus scale="   84.669">  1  5  2 -1</clus>
<clus scale="   90.957">  7  8 -1 -1</clus>
<clus scale="   95.164">  2  5  1 -1</clus>
</clustering>
</event>
<event>
 9    2  0.2869112E-005  0.9533174E+02  0.7546771E-02  0.1297031E+00
         -1   -1    0    0    0  501 -0.00000000000E+00  0.00000000000E+00  0.98971098417E+02  0.98971098417E+02  0.00000000000E+00 0.  1.
          2   -1    0    0  502    0  0.00000000000E+00 -0.00000000000E+00 -0.13956844955E+03  0.13956844955E+03  0.00000000000E+00 0. -1.
         24    2    1    2    0    0 -0.29406529400E+02  0.17852199414E+02  0.79342576560E+01  0.88886620187E+02  0.81574713046E+02 0.  0.
         23    2    1    2    0    0  0.77850073451E+01 -0.13997863846E+02 -0.71150092755E+02  0.11812608310E+03  0.92924104938E+02 0.  0.
        -11    1    3    3    0    0 -0.41371955753E+02 -0.17935526472E+02  0.19916430437E+02  0.49294888519E+02  0.00000000000E+00 0.  1.
         12    1    3    3    0    0  0.11965426354E+02  0.35787725886E+02 -0.11982172781E+02  0.39591731669E+02  0.00000000000E+00 0. -1.
        -13    1    4    4    0    0 -0.23776517914E+02 -0.43884689558E+02 -0.29790026693E+02  0.58126022332E+02  0.00000000000E+00 0.  1.
         13    1    4    4    0    0  0.31561525259E+02  0.29886825713E+02 -0.41360066062E+02  0.60000060771E+02  0.00000000000E+00 0. -1.
         21    1    1    2  502  501  0.21621522054E+02 -0.38543355687E+01  0.22618483964E+02  0.31526844679E+02  0.00000000000E+00 0.  1.
<scales pt_clust_5="13000.00000" pt_clust_6="13000.00000" pt_clust_7="13000.00000" pt_clust_8="13000.00000" pt_clust_9="21.96238"></scales>
<clustering>
<clus scale="   21.962">  1  9  2 -1</clus>
<clus scale="   81.575">  5  6 -1 -1</clus>
<clus scale="   84.307">  1  5  2 -1</clus>
<clus scale="   92.924">  7  8 -1 -1</clus>
<clus scale="   95.332">  2  5  1 -1</clus>
</clustering>
</event>
<event>
 9    2  0.2869112E-005  0.1099999E+03  0.7546771E-02  0.1265243E+00
         -1   -1    0    0    0  501 -0.00000000000E+00  0.00000000000E+00  0.41811802920E+03  0.41811802920E+03  0.00000000000E+00 0.  1.
          2   -1    0    0  502    0  0.00000000000E+00 -0.00000000000E+00 -0.13672508577E+03  0.13672508577E+03  0.00000000000E+00 0. -1.
         23    2    1    2    0    0  0.52852822596E+02  0.78328005573E+02  0.33208492998E+03  0.35730680826E+03  0.91973133007E+02 0.  0.
         24    2    1    2    0    0 -0.25164878464E+02 -0.52610752343E+02 -0.96341490829E+02  0.13827521825E+03  0.80232105531E+02 0.  0.
        -13    1    4    4    0    0 -0.38847940459E+02 -0.61668833923E+02 -0.48117011544E+02  0.87335298449E+02  0.00000000000E+00 0.  1.
         14    1    4    4    0    0  0.13683061994E+02  0.90580815795E+01 -0.48224479286E+02  0.50939919806E+02  0.00000000000E+00 0. -1.
        -13    1    3    3    0    0  0.66309268318E+02  0.32688659618E+02  0.12862565586E+03  0.14835776649E+03  0.00000000000E+00 0.  1.
         13    1    3    3    0    0 -0.13456445723E+02  0.45639345955E+02  0.20345927412E+03  0.20894904177E+03  0.00000000000E+00 0. -1.
         21    1    1    2  502  501 -0.27687944132E+02 -0.25717253230E+02  0.45649504274E+02  0.59261088451E+02  0.00000000000E+00 0.  1.
<scales pt_clust_5="13000.00000" pt_clust_6="13000.00000" pt_clust_7="13000.00000" pt_clust_8="13000.00000" pt_clust_9="37.78888"></scales>
<clustering>
<clus scale="   37.789">  1  9  2 -1</clus>
<clus scale="   80.232">  5  6 -1 -1</clus>
<clus scale="   91.973">  7  8 -1 -1</clus>
<clus scale="  100.390">  2  5  1 -1</clus>
<clus scale="  100.390">  2  5  1 -1</clus>
</clustering>
</event>
<event>
 9    2  0.2869112E-005  0.9221172E+02  0.7546771E-02  0.1305589E+00
         -1   -1    0    0    0  501 -0.00000000000E+00  0.00000000000E+00  0.10455277281E+03  0.10455277281E+03  0.00000000000E+00 0.  1.
          2   -1    0    0  502    0  0.00000000000E+00 -0.00000000000E+00 -0.12010206129E+03  0.12010206129E+03  0.00000000000E+00 0. -1.
         24    2    1    2    0    0 -0.69727426957E+01 -0.45631183198E+00  0.45456983554E+02  0.91226208815E+02  0.78784874561E+02 0.  0.
         23    2    1    2    0    0  0.26270674423E+02  0.88958873518E+01 -0.58773823429E+02  0.11224796357E+03  0.91520259278E+02 0.  0.
        -11    1    3    3    0    0 -0.40503137851E+02  0.13615542725E+02  0.24446246401E+02  0.49229118848E+02  0.00000000000E+00 0.  1.
         12    1    3    3    0    0  0.33530395155E+02 -0.14071854557E+02  0.21010737154E+02  0.41997089967E+02  0.00000000000E+00 0. -1.
        -11    1    4    4    0    0  0.54976917570E+02 -0.14871232704E+02 -0.25951029687E+02  0.62586507886E+02  0.00000000000E+00 0.  1.
         11    1    4    4    0    0 -0.28706243147E+02  0.23767120056E+02 -0.32822793743E+02  0.49661455682E+02  0.00000000000E+00 0. -1.
         21    1    1    2  502  501 -0.19297931727E+02 -0.84395755199E+01 -0.22324486084E+01  0.21180661715E+02  0.00000000000E+00 0.  1.
<scales pt_clust_5="13000.00000" pt_clust_6="13000.00000" pt_clust_7="13000.00000" pt_clust_8="13000.00000" pt_clust_9="21.06268"></scales>
<clustering>
<clus scale="   21.063">  2  9  1 -1</clus>
<clus scale="   78.785">  5  6 -1 -1</clus>
<clus scale="   79.587">  1  5  2 -1</clus>
<clus scale="   91.520">  7  8 -1 -1</clus>
<clus scale="   21.063">  2  5  1 -1</clus>
</clustering>
</event>
<event>
 9    2  0.2869112E-005  0.9097740E+02  0.7546771E-02  0.1306548E+00
          2   -1    0    0  502    0  0.00000000000E+00  0.00000000000E+00  0.22872183344E+03  0.22872183344E+03  0.00000000000E+00 0. -1.
         -1   -1    0    0    0  501 -0.00000000000E+00 -0.00000000000E+00 -0.56383650964E+02  0.56383650964E+02  0.00000000000E+00 0.  1.
         23    2    1    2    0    0  0.54448322765E+01 -0.15330950472E+01  0.39217914815E+02  0.98596278142E+02  0.90283911314E+02 0.  0.
         24    2    1    2    0    0  0.21740021464E+02 -0.29747058650E+02  0.98253614031E+02  0.13235066286E+03  0.80656117298E+02 0.  0.
        -11    1    4    4    0    0  0.11166443281E+02 -0.51443659224E+02  0.31450431611E+02  0.61321033736E+02  0.00000000000E+00 0.  1.
         12    1    4    4    0    0  0.10573578183E+02  0.21696600574E+02  0.66803182420E+02  0.71029629124E+02  0.00000000000E+00 0. -1.
        -13    1    3    3    0    0 -0.60018942028E+01 -0.37657388579E+02 -0.70622906737E+01  0.38781150037E+02  0.00000000000E+00 0.  1.
         13    1    3    3    0    0  0.11446726479E+02  0.36124293532E+02  0.46280205488E+02  0.59815128106E+02  0.00000000000E+00 0. -1.
         21    1    1    2  502  501 -0.27184853740E+02  0.31280153697E+02  0.34866653631E+02  0.54158543404E+02  0.00000000000E+00 0. -1.
<scales pt_clust_5="13000.00000" pt_clust_6="13000.00000" pt_clust_7="13000.00000" pt_clust_8="13000.00000" pt_clust_9="41.44230"></scales>
<clustering>
<clus scale="   41.442">  1  9  2 -1</clus>
<clus scale="   80.656">  5  6 -1 -1</clus>
<clus scale="   81.432">  1  5  2 -1</clus>
<clus scale="   90.284">  7  8 -1 -1</clus>
<clus scale="   41.442">  1  5  2 -1</clus>
</clustering>
</event>
<event>
 9    2  0.2869112E-005  0.1035359E+03  0.7546771E-02  0.1281815E+00
         -1   -1    0    0    0  501 -0.00000000000E+00  0.00000000000E+00  0.21228465231E+03  0.21228465231E+03  0.00000000000E+00 0.  1.
          2   -1    0    0  502    0  0.00000000000E+00 -0.00000000000E+00 -0.22151898754E+03  0.22151898754E+03  0.00000000000E+00 0. -1.
         24    2    1    2    0    0  0.49768046554E+02 -0.50020451737E+02  0.95442687809E+02  0.14351590479E+03  0.80675920948E+02 0.  0.
         23    2    1    2    0    0 -0.57935973660E+01  0.30310827152E+02 -0.17630156267E+03  0.20396105228E+03  0.97803669847E+02 0.  0.
        -11    1    3    3    0    0  0.34154647765E+02 -0.67799310053E+02  0.92512107353E+02  0.11967362456E+03  0.00000000000E+00 0.  1.
         12    1    3    3    0    0  0.15613398789E+02  0.17778858316E+02  0.29305804561E+01  0.23842280230E+02  0.00000000000E+00 0. -1.
        -11    1    4    4    0    0 -0.45419758805E+02  0.72312880474E+00 -0.12363248729E+03  0.13171358821E+03  0.00000000000E+00 0.  1.
         11    1    4    4    0    0  0.39626161439E+02  0.29587698347E+02 -0.52669075380E+02  0.72247464075E+02  0.00000000000E+00 0. -1.
         21    1    1    2  502  501 -0.43974449188E+02  0.19709624586E+02  0.71624539631E+02  0.86326682781E+02  0.00000000000E+00 0.  1.
<scales pt_clust_5="13000.00000" pt_clust_6="13000.00000" pt_clust_7="13000.00000" pt_clust_8="13000.00000" pt_clust_9="48.18943"></scales>
<clustering>
<clus scale="   48.189">  1  9  2 -1</clus>
<clus scale="   80.676">  5  6 -1 -1</clus>
<clus scale="   87.537">  1  5  2 -1</clus>
<clus scale="   97.804">  7  8 -1 -1</clus>
<clus scale="  103.536">  2  5  1 -1</clus>
</clustering>
</event>
<event>
 9    2  0.2869112E-005  0.1218122E+03  0.7546771E-02  0.1243900E+00
         -1   -1    0    0    0  501 -0.00000000000E+00  0.00000000000E+00  0.15266100924E+03  0.15266100924E+03  0.00000000000E+00 0.  1.
          2   -1    0    0  502    0  0.00000000000E+00 -0.00000000000E+00 -0.40935168597E+03  0.40935168597E+03  0.00000000000E+00 0. -1.
         23    2    1    2    0    0  0.41105775167E+02  0.91310115392E+02  0.57401489367E+02  0.14782429020E+03  0.92357283782E+02 0.  0.
         24    2    1    2    0    0 -0.48160819623E+01 -0.77997006549E+02 -0.34624861575E+03  0.36390701725E+03  0.80209012077E+02 0.  0.
        -11    1    4    4    0    0 -0.19421834361E+02  0.10429852015E+02 -0.79777892424E+02  0.82767756903E+02  0.00000000000E+00 0.  1.
         12    1    4    4    0    0  0.14605752399E+02 -0.88426858563E+02 -0.26647072333E+03  0.28113926035E+03  0.00000000000E+00 0. -1.
        -13    1    3    3    0    0 -0.15478845147E+02  0.45972200856E+02 -0.91975440982E+01  0.49372388195E+02  0.00000000000E+00 0. -1.
         13    1    3    3    0    0  0.56584620314E+02  0.45337914536E+02  0.66599033465E+02  0.98451902008E+02  0.00000000000E+00 0.  1.
         21    1    1    2  502  501 -0.36289693205E+02 -0.13313108843E+02  0.32156449655E+02  0.50281387753E+02  0.00000000000E+00 0. -1.
<scales pt_clust_5="13000.00000" pt_clust_6="13000.00000" pt_clust_7="13000.00000" pt_clust_8="13000.00000" pt_clust_9="38.65463"></scales>
<clustering>
<clus scale="   38.655">  1  9  2 -1</clus>
<clus scale="   80.209">  5  6 -1 -1</clus>
<clus scale="   92.357">  7  8 -1 -1</clus>
<clus scale="  112.880">  2  5  1 -1</clus>
<clus scale="  112.880">  2  5  1 -1</clus>
</clustering>
</event>
<event>
 9    2  0.2869112E-005  0.9843162E+02  0.7546771E-02  0.1288900E+00
         -1   -1    0    0    0  501 -0.00000000000E+00  0.00000000000E+00  0.11524099414E+03  0.11524099414E+03  0.00000000000E+00 0.  1.
          2   -1    0    0  502    0  0.00000000000E+00 -0.00000000000E+00 -0.20039663041E+03  0.20039663041E+03  0.00000000000E+00 0. -1.
         23    2    1    2    0    0 -0.34169465026E+02 -0.29389184861E+02  0.31064986830E+02  0.10634924730E+03  0.91180329391E+02 0.  0.
         24    2    1    2    0    0 -0.20969026421E+02  0.36728838321E+02 -0.12299999925E+03  0.15325192757E+03  0.81045949034E+02 0.  0.
        -13    1    4    4    0    0 -0.42250296530E+02  0.43669977105E+01 -0.98896664043E+02  0.10763228319E+03  0.00000000000E+00 0.  1.
         14    1    4    4    0    0  0.21281270109E+02  0.32361840611E+02 -0.24103335205E+02  0.45619644378E+02  0.00000000000E+00 0. -1.
        -11    1    3    3    0    0 -0.63518133569E+02 -0.81951844652E+01  0.28372743264E+02  0.70048032812E+02  0.00000000000E+00 0. -1.
         11    1    3    3    0    0  0.29348668543E+02 -0.21194000396E+02  0.26922435661E+01  0.36301214490E+02  0.00000000000E+00 0.  1.
         21    1    1    2  502  501  0.55138491447E+02 -0.73396534599E+01  0.67793761379E+01  0.56036449680E+02  0.00000000000E+00 0.  1.
<scales pt_clust_5="13000.00000" pt_clust_6="13000.00000" pt_clust_7="13000.00000" pt_clust_8="13000.00000" pt_clust_9="55.62485"></scales>
<clustering>
<clus scale="   55.625">  1  9  2 -1</clus>
<clus scale="   81.046">  5  6 -1 -1</clus>
<clus scale="   89.126">  2  5  1 -1</clus>
<clus scale="   91.180">  7  8 -1 -1</clus>
<clus scale="   89.126">  2  5  1 -1</clus>
</clustering>
</event>
<event>
 9    2  0.2869112E-005  0.8946073E+02  0.7546771E-02  0.1305179E+00
          2   -1    0    0  502    0  0.00000000000E+00  0.00000000000E+00  0.66267380529E+02  0.66267380529E+02  0.00000000000E+00 0. -1.
         -1   -1    0    0    0  501 -0.00000000000E+00 -0.00000000000E+00 -0.20415565884E+03  0.20415565884E+03  0.00000000000E+00 0.  1.
         24    2    1    2    0    0 -0.51418969367E+00  0.22789657205E+02 -0.77725181968E+02  0.11881310323E+03  0.86923625784E+02 0.  0.
         23    2    1    2    0    0  0.17141538337E+02  0.45260610021E+01 -0.83596751571E+01  0.90731272962E+02  0.88588724790E+02 0.  0.
        -11    1    3    3    0    0 -0.32199295831E+02  0.41874147951E+02 -0.43726084565E+02  0.68572657744E+02  0.00000000000E+00 0.  1.
         12    1    3    3    0    0  0.31685106137E+02 -0.19084490746E+02 -0.33999097403E+02  0.50240445482E+02  0.00000000000E+00 0. -1.
        -13    1    4    4    0    0 -0.81154010144E+01  0.38265369542E+02 -0.23867475898E+02  0.45823079835E+02  0.00000000000E+00 0.  1.
         13    1    4    4    0    0  0.25256939352E+02 -0.33739308540E+02  0.15507800741E+02  0.44908193127E+02  0.00000000000E+00 0. -1.
         21    1    1    2  502  501 -0.16627348644E+02 -0.27315718207E+02 -0.51803421183E+02  0.60878663178E+02  0.00000000000E+00 0. -1.
<scales pt_clust_5="13000.00000" pt_clust_6="13000.00000" pt_clust_7="13000.00000" pt_clust_8="13000.00000" pt_clust_9="31.97839"></scales>
<clustering>
<clus scale="   31.978">  2  9  1 -1</clus>
<clus scale="   86.924">  5  6 -1 -1</clus>
<clus scale="   87.812">  2  5  1 -1</clus>
<clus scale="   88.589">  7  8 -1 -1</clus>
<clus scale="   89.461">  1  5  2 -1</clus>
</clustering>
</event>
<event>
 9    2  0.2869112E-005  0.1040813E+03  0.7546771E-02  0.1276994E+00
          2   -1    0    0  502    0  0.00000000000E+00  0.00000000000E+00  0.45440655638E+02  0.45440655638E+02  0.00000000000E+00 0. -1.
         -1   -1    0    0    0  501 -0.00000000000E+00 -0.00000000000E+00 -0.34604433305E+03  0.34604433305E+03  0.00000000000E+00 0.  1.
         23    2    1    2    0    0  0.21005702027E+02  0.28943068808E+02 -0.16809610693E+03  0.19499556397E+03  0.92130494715E+02 0.  0.
         24    2    1    2    0    0 -0.40053611699E+02 -0.36299331891E+02 -0.46309805991E+02  0.10790617532E+03  0.81100007616E+02 0.  0.
        -13    1    4    4    0    0  0.22704195488E+02  0.11030790861E+01 -0.19931706088E+02  0.30231939795E+02  0.00000000000E+00 0.  1.
         14    1    4    4    0    0 -0.62757807186E+02 -0.37402410977E+02 -0.26378099903E+02  0.77674235524E+02  0.00000000000E+00 0. -1.
        -13    1    3    3    0    0 -0.86283511228E+00  0.34549338224E+02 -0.16890587562E+03  0.17240532496E+03  0.00000000000E+00 0.  1.
         13    1    3    3    0    0  0.21868537139E+02 -0.56062694162E+01  0.80976869291E+00  0.22590239014E+02  0.00000000000E+00 0. -1.
         21    1    1    2  502  501  0.19047909672E+02  0.73562630837E+01 -0.86197764493E+02  0.88583249393E+02  0.00000000000E+00 0. -1.
<scales pt_clust_5="13000.00000" pt_clust_6="13000.00000" pt_clust_7="13000.00000" pt_clust_8="13000.00000" pt_clust_9="20.41905"></scales>
<clustering>
<clus scale="   20.419">  2  9  1 -1</clus>
<clus scale="   81.100">  5  6 -1 -1</clus>
<clus scale="   92.130">  7  8 -1 -1</clus>
<clus scale="   94.457">  1  5  2 -1</clus>
<clus scale="   94.457">  1  5  2 -1</clus>
</clustering>
</event>
<event>
 9    2  0.2869112E-005  0.1351207E+03  0.7546771E-02  0.1222222E+00
         -1   -1    0    0    0  501 -0.00000000000E+00  0.00000000000E+00  0.80577156787E+02  0.80577156787E+02  0.00000000000E+00 0.  1.
          2   -1    0    0  502    0  0.00000000000E+00 -0.00000000000E+00 -0.36675007579E+03  0.36675007579E+03  0.00000000000E+00 0. -1.
         23    2    1    2    0    0 -0.10958603379E+03  0.57586425770E+02 -0.53505664898E+02  0.16307021169E+03  0.91671928795E+02 0.  0.
         24    2    1    2    0    0  0.77808646059E+02 -0.48860385695E+02 -0.21200319837E+03  0.24536037135E+03  0.82552001900E+02 0.  0.
        -13    1    4    4    0    0  0.41254558818E+02 -0.30836453650E+02 -0.31635346785E+02  0.60445187263E+02  0.00000000000E+00 0.  1.
         14    1    4    4    0    0  0.36554087240E+02 -0.18023932045E+02 -0.18036785158E+03  0.18491518409E+03  0.00000000000E+00 0. -1.
        -11    1    3    3    0    0 -0.45804363979E+02  0.74911713581E+02 -0.27031116752E+02  0.91872116902E+02  0.00000000000E+00 0.  1.
         11    1    3    3    0    0 -0.63781669809E+02 -0.17325287812E+02 -0.26474548147E+02  0.71198094784E+02  0.00000000000E+00 0. -1.
         21    1    1    2  502  501  0.31777387729E+02 -0.87260400748E+01 -0.20664055737E+02  0.38896649544E+02  0.00000000000E+00 0. -1.
<scales pt_clust_5="13000.00000" pt_clust_6="13000.00000" pt_clust_7="13000.00000" pt_clust_8="13000.00000" pt_clust_9="32.95370"></scales>
<clustering>
<clus scale="   32.954">  1  9  2 -1</clus>
<clus scale="   82.552">  5  6 -1 -1</clus>
<clus scale="   91.672">  7  8 -1 -1</clus>
<clus scale="  129.107">  2  5  1 -1</clus>
<clus scale="  129.107">  2  5  1 -1</clus>
</clustering>
</event>
<event>
 9    2  0.2869112E-005  0.1463706E+03  0.7546771E-02  0.1207562E+00
          4   -1    0    0  502    0  0.00000000000E+00  0.00000000000E+00  0.16572212213E+03  0.16572212213E+03  0.00000000000E+00 0. -1.
         -3   -1    0    0    0  501 -0.00000000000E+00 -0.00000000000E+00 -0.26353293317E+03  0.26353293317E+03  0.00000000000E+00 0.  1.
         23    2    1    2    0    0 -0.99473924302E+02  0.69568477717E+02 -0.18703735055E+03  0.24108505536E+03  0.91674416866E+02 0.  0.
         24    2    1    2    0    0  0.81659449310E+02 -0.28580263147E+02  0.82297964289E+02  0.14294396311E+03  0.78580688219E+02 0.  0.
        -13    1    4    4    0    0  0.34304975111E+00 -0.20479754166E+02 -0.72366386431E+01  0.21723419452E+02  0.00000000000E+00 0.  1.
         14    1    4    4    0    0  0.81316399559E+02 -0.81005089805E+01  0.89534602932E+02  0.12122054366E+03  0.00000000000E+00 0. -1.
        -13    1    3    3    0    0 -0.42709041499E+02  0.45848865230E+02 -0.16370661121E+03  0.17528843436E+03  0.00000000000E+00 0.  1.
         13    1    3    3    0    0 -0.56764882803E+02  0.23719612487E+02 -0.23330739349E+02  0.65796620998E+02  0.00000000000E+00 0. -1.
         21    1    1    2  502  501  0.17814474992E+02 -0.40988214570E+02  0.69285752282E+01  0.45226036833E+02  0.00000000000E+00 0. -1.
<scales pt_clust_5="13000.00000" pt_clust_6="13000.00000" pt_clust_7="13000.00000" pt_clust_8="13000.00000" pt_clust_9="44.69216"></scales>
<clustering>
<clus scale="   44.692">  1  9  2 -1</clus>
<clus scale="   78.581">  5  6 -1 -1</clus>
<clus scale="   91.674">  7  8 -1 -1</clus>
<clus scale="  138.546">  1  5  2 -1</clus>
<clus scale="   44.692">  1  5  2 -1</clus>
</clustering>
</event>
<event>
 9    2  0.2869112E-005  0.1079494E+03  0.7546771E-02  0.1269147E+00
          2   -1    0    0  502    0  0.00000000000E+00  0.00000000000E+00  0.47818366163E+03  0.47818366163E+03  0.00000000000E+00 0. -1.
         -1   -1    0    0    0  501 -0.00000000000E+00 -0.00000000000E+00 -0.84652505916E+02  0.84652505916E+02  0.00000000000E+00 0.  1.
         23    2    1    2    0    0 -0.93720779521E+02  0.81986906121E+02  0.44914126188E+02  0.16105532133E+03  0.91739307329E+02 0.  0.
         24    2    1    2    0    0  0.44883343261E+02 -0.18892758038E+02  0.28390274919E+03  0.29904864687E+03  0.80360882209E+02 0.  0.
        -11    1    4    4    0    0  0.24689264720E+02  0.29108096755E+02  0.80575966539E+02  0.89159001075E+02  0.00000000000E+00 0.  1.
         12    1    4    4    0    0  0.20194078541E+02 -0.48000854793E+02  0.20332678265E+03  0.20988964579E+03  0.00000000000E+00 0. -1.
        -11    1    3    3    0    0 -0.77940279322E+02  0.10210269316E+03  0.31834817111E+02  0.13233707973E+03  0.00000000000E+00 0. -1.
         11    1    3    3    0    0 -0.15780500199E+02 -0.20115787040E+02  0.13079309076E+02  0.28718241601E+02  0.00000000000E+00 0.  1.
         21    1    1    2  502  501  0.48837436260E+02 -0.63094148082E+02  0.64714280342E+02  0.10273219935E+03  0.00000000000E+00 0. -1.
<scales pt_clust_5="13000.00000" pt_clust_6="13000.00000" pt_clust_7="13000.00000" pt_clust_8="13000.00000" pt_clust_9="79.78701"></scales>
<clustering>
<clus scale="   79.787">  2  9  1 -1</clus>
<clus scale="   80.361">  5  6 -1 -1</clus>
<clus scale="   91.739">  7  8 -1 -1</clus>
<clus scale="   98.462">  1  5  2 -1</clus>
<clus scale="   98.462">  1  5  2 -1</clus>
</clustering>
</event>
<event>
 9    2  0.2869112E-005  0.1036130E+03  0.7546771E-02  0.1278668E+00
          2   -1    0    0  502    0  0.00000000000E+00  0.00000000000E+00  0.51186034004E+02  0.51186034004E+02  0.00000000000E+00 0. -1.
         -1   -1    0    0    0  501 -0.00000000000E+00 -0.00000000000E+00 -0.51786257175E+03  0.51786257175E+03  0.00000000000E+00 0.  1.
         23    2    1    2    0    0  0.17600196184E+02  0.38433395997E+02 -0.31070121009E+03  0.32698290116E+03  0.92712905637E+02 0.  0.
         24    2    1    2    0    0  0.43325611631E+02 -0.68012633840E+02 -0.11985665411E+03  0.16530996247E+03  0.80367525612E+02 0.  0.
        -13    1    4    4    0    0  0.54532890125E+01 -0.27019652604E+02 -0.10356557019E+03  0.10717101901E+03  0.00000000000E+00 0.  1.
         14    1    4    4    0    0  0.37872322618E+02 -0.40992981236E+02 -0.16291083921E+02  0.58138943459E+02  0.00000000000E+00 0. -1.
        -11    1    3    3    0    0 -0.13275735731E+02  0.61674194578E+02 -0.20152317616E+03  0.21116709489E+03  0.00000000000E+00 0.  1.
         11    1    3    3    0    0  0.30875931916E+02 -0.23240798581E+02 -0.10917803393E+03  0.11581580627E+03  0.00000000000E+00 0. -1.
         21    1    1    2  502  501 -0.60925807815E+02  0.29579237843E+02 -0.36118673554E+02  0.76755742121E+02  0.00000000000E+00 0.  1.
<scales pt_clust_5="13000.00000" pt_clust_6="13000.00000" pt_clust_7="13000.00000" pt_clust_8="13000.00000" pt_clust_9="67.72655"></scales>
<clustering>
<clus scale="   67.727">  1  9  2 -1</clus>
<clus scale="   80.368">  5  6 -1 -1</clus>
<clus scale="   92.713">  7  8 -1 -1</clus>
<clus scale="   92.730">  1  5  2 -1</clus>
<clus scale="   67.727">  1  5  2 -1</clus>
</clustering>
</event>
<event>
 9    2  0.2869112E-005  0.9979126E+02  0.7546771E-02  0.1286758E+00
          2   -1    0    0  502    0  0.00000000000E+00  0.00000000000E+00  0.25150465653E+03  0.25150465653E+03  0.00000000000E+00 0. -1.
         -1   -1    0    0    0  501 -0.00000000000E+00 -0.00000000000E+00 -0.73283158531E+02  0.73283158531E+02  0.00000000000E+00 0.  1.
         23    2    1    2    0    0  0.48769440095E+02  0.41192987514E+02  0.36047176657E+02  0.11827191370E+03  0.92809084243E+02 0.  0.
         24    2    1    2    0    0 -0.25197007162E+02 -0.14595353601E+02  0.14723410317E+03  0.17061750145E+03  0.81145160964E+02 0.  0.
        -11    1    4    4    0    0  0.28852771537E+02  0.20795332117E+01  0.39790127602E+02  0.49194116908E+02  0.00000000000E+00 0.  1.
         12    1    4    4    0    0 -0.54049778699E+02 -0.16674886813E+02  0.10744397556E+03  0.12142338454E+03  0.00000000000E+00 0. -1.
        -13    1    3    3    0    0 -0.17453433890E+02 -0.11173178559E+02 -0.89846206711E+01  0.22587290282E+02  0.00000000000E+00 0. -1.
         13    1    3    3    0    0  0.66222873985E+02  0.52366166073E+02  0.45031797329E+02  0.95684623418E+02  0.00000000000E+00 0.  1.
         21    1    1    2  502  501 -0.23572432933E+02 -0.26597633912E+02 -0.50597818265E+01  0.35898399912E+02  0.00000000000E+00 0.  1.
<scales pt_clust_5="13000.00000" pt_clust_6="13000.00000" pt_clust_7="13000.00000" pt_clust_8="13000.00000" pt_clust_9="35.54003"></scales>
<clustering>
<clus scale="   35.540">  2  9  1 -1</clus>
<clus scale="   81.145">  5  6 -1 -1</clus>
<clus scale="   89.047">  1  5  2 -1</clus>
<clus scale="   92.809">  7  8 -1 -1</clus>
<clus scale="   89.047">  1  5  2 -1</clus>
</clustering>
</event>
<event>
 9    2  0.2869112E-005  0.9442340E+02  0.7546771E-02  0.1293969E+00
          2   -1    0    0  502    0  0.00000000000E+00  0.00000000000E+00  0.43021405794E+03  0.43021405794E+03  0.00000000000E+00 0. -1.
         -1   -1    0    0    0  501 -0.00000000000E+00 -0.00000000000E+00 -0.46948164046E+02  0.46948164046E+02  0.00000000000E+00 0.  1.
         23    2    1    2    0    0 -0.10819572183E+02  0.21492274004E+02  0.47674165910E+02  0.98862028605E+02  0.83197918367E+02 0.  0.
         24    2    1    2    0    0 -0.14691282423E+02 -0.49625203345E+02  0.32519409315E+03  0.33892537622E+03  0.80254083022E+02 0.  0.
        -11    1    4    4    0    0  0.55080678853E+01  0.20552813581E+02  0.53174404986E+02  0.57273678977E+02  0.00000000000E+00 0.  1.
         12    1    4    4    0    0 -0.20199350309E+02 -0.70178016926E+02  0.27201968816E+03  0.28165169725E+03  0.00000000000E+00 0. -1.
        -11    1    3    3    0    0 -0.32167237620E+02  0.21585032171E+02 -0.77171312825E+01  0.39499353225E+02  0.00000000000E+00 0.  1.
         11    1    3    3    0    0  0.21347665437E+02 -0.92758167397E-01  0.55391297193E+02  0.59362675381E+02  0.00000000000E+00 0. -1.
         21    1    1    2  502  501  0.25510854606E+02  0.28132929340E+02  0.10397634833E+02  0.39374817157E+02  0.00000000000E+00 0.  1.
<scales pt_clust_5="13000.00000" pt_clust_6="13000.00000" pt_clust_7="13000.00000" pt_clust_8="13000.00000" pt_clust_9="37.97717"></scales>
<clustering>
<clus scale="   37.977">  2  9  1 -1</clus>
<clus scale="   80.254">  5  6 -1 -1</clus>
<clus scale="   83.198">  7  8 -1 -1</clus>
<clus scale="   91.840">  1  5  2 -1</clus>
<clus scale="   91.840">  1  5  2 -1</clus>
</clustering>
</event>
<event>
 9    2  0.2869112E-005  0.1258028E+03  0.7546771E-02  0.1237327E+00
         -1   -1    0    0    0  501 -0.00000000000E+00  0.00000000000E+00  0.31658738658E+03  0.31658738658E+03  0.00000000000E+00 0.  1.
          2   -1    0    0  502    0  0.00000000000E+00 -0.00000000000E+00 -0.22170093591E+03  0.22170093591E+03  0.00000000000E+00 0. -1.
         24    2    1    2    0    0  0.62410478730E+02 -0.79021957535E+01  0.12496381499E+03  0.16065538823E+03  0.78972692474E+02 0.  0.
         23    2    1    2    0    0 -0.82444102849E+02 -0.39028698652E+02 -0.17871461822E+03  0.22048049810E+03  0.91391826022E+02 0.  0.
        -11    1    3    3    0    0  0.49413385035E+02  0.25325095816E+02  0.39788843758E+02  0.68309554136E+02  0.00000000000E+00 0.  1.
         12    1    3    3    0    0  0.12997093696E+02 -0.33227291570E+02  0.85174971234E+02  0.92345834093E+02  0.00000000000E+00 0. -1.
        -13    1    4    4    0    0  0.11545384378E+02 -0.31623932971E+02 -0.34680922945E+02  0.48333585149E+02  0.00000000000E+00 0.  1.
         13    1    4    4    0    0 -0.93989487227E+02 -0.74047656804E+01 -0.14403369528E+03  0.17214691295E+03  0.00000000000E+00 0. -1.
         21    1    1    2  502  501  0.20033624119E+02  0.46930894405E+02  0.14863725389E+03  0.15715243616E+03  0.00000000000E+00 0.  1.
<scales pt_clust_5="13000.00000" pt_clust_6="13000.00000" pt_clust_7="13000.00000" pt_clust_8="13000.00000" pt_clust_9="51.02798"></scales>
<clustering>
<clus scale="   51.028">  1  9  2 -1</clus>
<clus scale="   78.973">  5  6 -1 -1</clus>
<clus scale="   91.392">  7  8 -1 -1</clus>
<clus scale="  117.092">  1  5  2 -1</clus>
<clus scale="  125.803">  2  5  1 -1</clus>
</clustering>
</event>
<event>
 9    2  0.2869112E-005  0.1031360E+03  0.7546771E-02  0.1280095E+00
          2   -1    0    0  502    0  0.00000000000E+00  0.00000000000E+00  0.28228622606E+03  0.28228622606E+03  0.00000000000E+00 0. -1.
         -1   -1    0    0    0  501 -0.00000000000E+00 -0.00000000000E+00 -0.58703218882E+02  0.58703218882E+02  0.00000000000E+00 0.  1.
         23    2    1    2    0    0  0.37660782367E+02 -0.30139926733E+02  0.56934410099E+02  0.11949665252E+03  0.93333665944E+02 0.  0.
         24    2    1    2    0    0 -0.44797637461E+02  0.17137880632E+01  0.16867515650E+03  0.19211445000E+03  0.80292515757E+02 0.  0.
        -13    1    4    4    0    0 -0.21191082478E+02 -0.13828362310E+00 -0.59127417885E+00  0.21199780756E+02  0.00000000000E+00 0.  1.
         14    1    4    4    0    0 -0.23606554983E+02  0.18520716863E+01  0.16926643068E+03  0.17091466925E+03  0.00000000000E+00 0. -1.
        -11    1    3    3    0    0  0.20350222803E+02 -0.41976226316E+02  0.77286729219E+02  0.90273881368E+02  0.00000000000E+00 0. -1.
         11    1    3    3    0    0  0.17310559565E+02  0.11836299583E+02 -0.20352319121E+02  0.29222771153E+02  0.00000000000E+00 0.  1.
         21    1    1    2  502  501  0.71368550937E+01  0.28426138670E+02 -0.20265594218E+01  0.29378342421E+02  0.00000000000E+00 0. -1.
<scales pt_clust_5="13000.00000" pt_clust_6="13000.00000" pt_clust_7="13000.00000" pt_clust_8="13000.00000" pt_clust_9="29.30836"></scales>
<clustering>
<clus scale="   29.308">  2  9  1 -1</clus>
<clus scale="   80.293">  5  6 -1 -1</clus>
<clus scale="   91.503">  1  5  2 -1</clus>
<clus scale="   93.334">  7  8 -1 -1</clus>
<clus scale="   91.503">  1  5  2 -1</clus>
</clustering>
</event>
<event>
 9    2  0.2869112E-005  0.9581337E+02  0.7546771E-02  0.1295669E+00
          2   -1    0    0  502    0  0.00000000000E+00  0.00000000000E+00  0.27487664858E+03  0.27487664858E+03  0.00000000000E+00 0. -1.
         -1   -1    0    0    0  501 -0.00000000000E+00 -0.00000000000E+00 -0.55334409710E+03  0.55334409710E+03  0.00000000000E+00 0.  1.
         23    2    1    2    0    0  0.13452795499E+02  0.70746005815E+02 -0.48431963950E+03  0.49817943486E+03  0.91821898626E+02 0.  0.
         24    2    1    2    0    0 -0.26849824658E+02 -0.52473149623E+01  0.24022035440E+03  0.25486997618E+03  0.80650100382E+02 0.  0.
        -11    1    4    4    0    0 -0.37148828756E+02  0.24801802428E+02  0.80882322151E+02  0.92396509231E+02  0.00000000000E+00 0.  1.
         12    1    4    4    0    0  0.10299004098E+02 -0.30049117390E+02  0.15933803225E+03  0.16247346695E+03  0.00000000000E+00 0. -1.
        -13    1    3    3    0    0  0.42911689282E+02  0.57394347298E+02 -0.42122968895E+03  0.42728207900E+03  0.00000000000E+00 0.  1.
         13    1    3    3    0    0 -0.29458893784E+02  0.13351658517E+02 -0.63089950550E+02  0.70897355864E+02  0.00000000000E+00 0. -1.
         21    1    1    2  502  501  0.13397029159E+02 -0.65498690853E+02 -0.34368163420E+02  0.75171334634E+02  0.00000000000E+00 0.  1.
<scales pt_clust_5="13000.00000" pt_clust_6="13000.00000" pt_clust_7="13000.00000" pt_clust_8="13000.00000" pt_clust_9="66.85476"></scales>
<clustering>
<clus scale="   66.855">  2  9  1 -1</clus>
<clus scale="   80.650">  5  6 -1 -1</clus>
<clus scale="   85.167">  1  5  2 -1</clus>
<clus scale="   91.822">  7  8 -1 -1</clus>
<clus scale="   85.167">  1  5  2 -1</clus>
</clustering>
</event>
<event>
 9    2  0.2869112E-005  0.9428084E+02  0.7546771E-02  0.1298887E+00
         -1   -1    0    0    0  501 -0.00000000000E+00  0.00000000000E+00  0.75887537516E+02  0.75887537516E+02  0.00000000000E+00 0.  1.
          2   -1    0    0  502    0  0.00000000000E+00 -0.00000000000E+00 -0.58183331585E+03  0.58183331585E+03  0.00000000000E+00 0. -1.
         23    2    1    2    0    0 -0.28131387419E+02  0.85610869947E+01  0.27960800326E+02  0.96138044280E+02  0.87155321320E+02 0.  0.
         24    2    1    2    0    0  0.15657756320E+02 -0.33327091856E+02 -0.52598501323E+03  0.53274364009E+03  0.76155705810E+02 0.  0.
        -11    1    4    4    0    0  0.12920262437E+02  0.21567321936E+02 -0.95092408377E+02  0.98359792028E+02  0.00000000000E+00 0.  1.
         12    1    4    4    0    0  0.27374938835E+01 -0.54894413792E+02 -0.43089260486E+03  0.43438384806E+03  0.00000000000E+00 0. -1.
        -13    1    3    3    0    0 -0.41379502683E+02 -0.29778025722E+02  0.10899274275E+02  0.52132410628E+02  0.00000000000E+00 0. -1.
         13    1    3    3    0    0  0.13248115264E+02  0.38339112716E+02  0.17061526051E+02  0.44005633652E+02  0.00000000000E+00 0.  1.
         21    1    1    2  502  501  0.12473631099E+02  0.24766004861E+02 -0.79215654287E+01  0.28839168996E+02  0.00000000000E+00 0.  1.
<scales pt_clust_5="13000.00000" pt_clust_6="13000.00000" pt_clust_7="13000.00000" pt_clust_8="13000.00000" pt_clust_9="27.72988"></scales>
<clustering>
<clus scale="   27.730">  1  9  2 -1</clus>
<clus scale="   76.156">  5  6 -1 -1</clus>
<clus scale="   84.217">  2  5  1 -1</clus>
<clus scale="   87.155">  7  8 -1 -1</clus>
<clus scale="   84.217">  2  5  1 -1</clus>
</clustering>
</event>
<event>
 9    2  0.2869112E-005  0.1173059E+03  0.7546771E-02  0.1251079E+00
         -3   -1    0    0    0  501 -0.00000000000E+00  0.00000000000E+00  0.96405775115E+02  0.96405775115E+02  0.00000000000E+00 0.  1.
          4   -1    0    0  502    0  0.00000000000E+00 -0.00000000000E+00 -0.20704758221E+03  0.20704758221E+03  0.00000000000E+00 0. -1.
         23    2    1    2    0    0  0.24434426949E+02  0.67133189640E+02 -0.12308437804E+01  0.11594108102E+03  0.91306697013E+02 0.  0.
         24    2    1    2    0    0 -0.48781188074E+01 -0.75109498116E+02 -0.12061374468E+03  0.16360468347E+03  0.80954211117E+02 0.  0.
        -13    1    4    4    0    0 -0.32616054357E+02 -0.44145087713E+02 -0.26985197178E+02  0.61162052269E+02  0.00000000000E+00 0.  1.
         14    1    4    4    0    0  0.27737935550E+02 -0.30964410403E+02 -0.93628547503E+02  0.10244263120E+03  0.00000000000E+00 0. -1.
        -13    1    3    3    0    0  0.33971432219E+02  0.24988751610E+02 -0.39825165145E+02  0.58004652338E+02  0.00000000000E+00 0. -1.
         13    1    3    3    0    0 -0.95370052700E+01  0.42144438031E+02  0.38594321365E+02  0.57936428679E+02  0.00000000000E+00 0.  1.
         21    1    1    2  502  501 -0.19556308141E+02  0.79763084754E+01  0.11202781365E+02  0.23907592838E+02  0.00000000000E+00 0.  1.
<scales pt_clust_5="13000.00000" pt_clust_6="13000.00000" pt_clust_7="13000.00000" pt_clust_8="13000.00000" pt_clust_9="21.12039"></scales>
<clustering>
<clus scale="   21.120">  1  9  2 -1</clus>
<clus scale="   80.954">  5  6 -1 -1</clus>
<clus scale="   91.307">  7  8 -1 -1</clus>
<clus scale="  109.441">  2  5  1 -1</clus>
<clus scale="  109.441">  2  5  1 -1</clus>
</clustering>
</event>
<event>
 9    2  0.2869112E-005  0.1168377E+03  0.7546771E-02  0.1252277E+00
          2   -1    0    0  502    0  0.00000000000E+00  0.00000000000E+00  0.59544180726E+03  0.59544180726E+03  0.00000000000E+00 0. -1.
         -1   -1    0    0    0  501 -0.00000000000E+00 -0.00000000000E+00 -0.16850078341E+03  0.16850078341E+03  0.00000000000E+00 0.  1.
         23    2    1    2    0    0  0.52381095141E+02  0.66787218706E+02 -0.11768152090E+03  0.17156542506E+03  0.91550221219E+02 0.  0.
         24    2    1    2    0    0 -0.72750795849E+02 -0.71744487752E+01  0.50811048420E+03  0.51956413374E+03  0.80165291099E+02 0.  0.
        -13    1    4    4    0    0 -0.44883919577E+02 -0.29680257071E+02  0.14450451967E+03  0.15419805480E+03  0.00000000000E+00 0.  1.
         14    1    4    4    0    0 -0.27866876272E+02  0.22505808296E+02  0.36360596453E+03  0.36536607894E+03  0.00000000000E+00 0. -1.
        -11    1    3    3    0    0  0.44866371530E+02 -0.99742575180E+01 -0.30486950874E+02  0.55153705958E+02  0.00000000000E+00 0.  1.
         11    1    3    3    0    0  0.75147236109E+01  0.76761476224E+02 -0.87194570023E+02  0.11641171910E+03  0.00000000000E+00 0. -1.
         21    1    1    2  502  501  0.20369700708E+02 -0.59612769931E+02  0.36512060547E+02  0.72813031878E+02  0.00000000000E+00 0. -1.
<scales pt_clust_5="13000.00000" pt_clust_6="13000.00000" pt_clust_7="13000.00000" pt_clust_8="13000.00000" pt_clust_9="62.99688"></scales>
<clustering>
<clus scale="   62.997">  2  9  1 -1</clus>
<clus scale="   80.165">  5  6 -1 -1</clus>
<clus scale="   91.550">  7  8 -1 -1</clus>
<clus scale="  108.148">  1  5  2 -1</clus>
<clus scale="  108.148">  1  5  2 -1</clus>
</clustering>
</event>
<event>
 9    2  0.2869112E-005  0.1096616E+03  0.7546771E-02  0.1267783E+00
          2   -1    0    0  502    0  0.00000000000E+00  0.00000000000E+00  0.68816990033E+03  0.68816990033E+03  0.00000000000E+00 0. -1.
         -1   -1    0    0    0  501 -0.00000000000E+00 -0.00000000000E+00 -0.61283801731E+02  0.61283801731E+02  0.00000000000E+00 0.  1.
         23    2    1    2    0    0  0.34714258246E+02 -0.28884234359E+01  0.21453017368E+02  0.10000600312E+03  0.91255388833E+02 0.  0.
         24    2    1    2    0    0 -0.61731681451E+02  0.14600953073E+02  0.61155149780E+03  0.61937180280E+03  0.74847894564E+02 0.  0.
        -11    1    4    4    0    0 -0.35796403661E+02  0.21790495901E+02  0.12042397635E+03  0.12750742059E+03  0.00000000000E+00 0.  1.
         12    1    4    4    0    0 -0.25935277790E+02 -0.71895428275E+01  0.49112752145E+03  0.49186438220E+03  0.00000000000E+00 0. -1.
        -13    1    3    3    0    0  0.58082244281E+02  0.72148468694E+00 -0.11731088280E+02  0.59259480871E+02  0.00000000000E+00 0.  1.
         13    1    3    3    0    0 -0.23367986035E+02 -0.36099081229E+01  0.33184105648E+02  0.40746522253E+02  0.00000000000E+00 0. -1.
         21    1    1    2  502  501  0.27017423205E+02 -0.11712529637E+02 -0.61184165668E+01  0.30075896136E+02  0.00000000000E+00 0.  1.
<scales pt_clust_5="13000.00000" pt_clust_6="13000.00000" pt_clust_7="13000.00000" pt_clust_8="13000.00000" pt_clust_9="29.44698"></scales>
<clustering>
<clus scale="   29.447">  2  9  1 -1</clus>
<clus scale="   74.848">  5  6 -1 -1</clus>
<clus scale="   91.255">  7  8 -1 -1</clus>
<clus scale="   96.438">  1  5  2 -1</clus>
<clus scale="   96.438">  1  5  2 -1</clus>
</clustering>
</event>
<event>
 9    2  0.2869112E-005  0.9230994E+02  0.7546771E-02  0.1303263E+00
         -1   -1    0    0    0  501 -0.00000000000E+00  0.00000000000E+00  0.12293335375E+03  0.12293335375E+03  0.00000000000E+00 0.  1.
          2   -1    0    0  502    0  0.00000000000E+00 -0.00000000000E+00 -0.57794991453E+03  0.57794991453E+03  0.00000000000E+00 0. -1.
         23    2    1    2    0    0  0.19022745062E+02  0.21814833237E+02  0.41584249226E+02  0.10363724830E+03  0.90408393822E+02 0.  0.
         24    2    1    2    0    0  0.77813984926E+01 -0.17216397647E+02 -0.53984327261E+03  0.54616257556E+03  0.80658821293E+02 0.  0.
        -13    1    4    4    0    0  0.23779027750E+02  0.20753376011E+02 -0.11267916848E+03  0.11701598090E+03  0.00000000000E+00 0.  1.
         14    1    4    4    0    0 -0.15997629258E+02 -0.37969773658E+02 -0.42716410413E+03  0.42914659466E+03  0.00000000000E+00 0. -1.
        -13    1    3    3    0    0  0.13791102944E+01 -0.20864228071E+02  0.52215984900E+02  0.56247018030E+02  0.00000000000E+00 0.  1.
         13    1    3    3    0    0  0.17643634768E+02  0.42679061308E+02 -0.10631735674E+02  0.47390230274E+02  0.00000000000E+00 0. -1.
         21    1    1    2  502  501 -0.26804143555E+02 -0.45984355902E+01  0.43242462600E+02  0.51083444415E+02  0.00000000000E+00 0.  1.
<scales pt_clust_5="13000.00000" pt_clust_6="13000.00000" pt_clust_7="13000.00000" pt_clust_8="13000.00000" pt_clust_9="27.19573"></scales>
<clustering>
<clus scale="   27.196">  1  9  2 -1</clus>
<clus scale="   80.659">  5  6 -1 -1</clus>
<clus scale="   82.785">  2  5  1 -1</clus>
<clus scale="   90.408">  7  8 -1 -1</clus>
<clus scale="   82.785">  2  5  1 -1</clus>
</clustering>
</event>
<event>
 9    2  0.2869112E-005  0.1013074E+03  0.7546771E-02  0.1277913E+00
         -1   -1    0    0    0  501 -0.00000000000E+00  0.00000000000E+00  0.39255942858E+02  0.39255942858E+02  0.00000000000E+00 0.  1.
          2   -1    0    0  502    0  0.00000000000E+00 -0.00000000000E+00 -0.38447889765E+03  0.38447889765E+03  0.00000000000E+00 0. -1.
         23    2    1    2    0    0 -0.64630270003E+02  0.19410957928E+02 -0.17671785068E+03  0.20873837712E+03  0.88253352606E+02 0.  0.
         24    2    1    2    0    0  0.29603545762E+02 -0.99687625316E+01 -0.14022239145E+03  0.16899713403E+03  0.89005427367E+02 0.  0.
        -13    1    4    4    0    0  0.14283068841E+02  0.17777029102E+02  0.23679650764E+01  0.22926754629E+02  0.00000000000E+00 0.  1.
         14    1    4    4    0    0  0.15320476920E+02 -0.27745791633E+02 -0.14259035652E+03  0.14607037941E+03  0.00000000000E+00 0. -1.
        -11    1    3    3    0    0 -0.66854918338E+02 -0.78780492932E+01 -0.64505807889E+02  0.93234344627E+02  0.00000000000E+00 0.  1.
         11    1    3    3    0    0  0.22246483344E+01  0.27289007221E+02 -0.11221204279E+03  0.11550403249E+03  0.00000000000E+00 0. -1.
         21    1    1    2  502  501  0.35026724242E+02 -0.94421953961E+01 -0.28282712662E+02  0.45999329349E+02  0.00000000000E+00 0. -1.
<scales pt_clust_5="13000.00000" pt_clust_6="13000.00000" pt_clust_7="13000.00000" pt_clust_8="13000.00000" pt_clust_9="36.27708"></scales>
<clustering>
<clus scale="   36.277">  1  9  2 -1</clus>
<clus scale="   88.253">  7  8 -1 -1</clus>
<clus scale="   89.005">  5  6 -1 -1</clus>
<clus scale="  100.647">  1  7  2 -1</clus>
<clus scale="  101.307">  2  5  1 -1</clus>
</clustering>
</event>
<event>
 9    2  0.2869112E-005  0.1027839E+03  0.7546771E-02  0.1282971E+00
         -1   -1    0    0    0  501 -0.00000000000E+00  0.00000000000E+00  0.64202992909E+02  0.64202992909E+02  0.00000000000E+00 0.  1.
          2   -1    0    0  502    0  0.00000000000E+00 -0.00000000000E+00 -0.60218279001E+03  0.60218279001E+03  0.00000000000E+00 0. -1.
         23    2    1    2    0    0  0.36034998830E+02  0.16733769459E+02 -0.42634647700E+02  0.11231464798E+03  0.96012117908E+02 0.  0.
         24    2    1    2    0    0 -0.19087794362E+02 -0.31722359607E+02 -0.51602485982E+03  0.52341960974E+03  0.79471881281E+02 0.  0.
        -11    1    4    4    0    0 -0.43285887814E+02  0.36351309914E+01 -0.21333094276E+03  0.21770845965E+03  0.00000000000E+00 0.  1.
         12    1    4    4    0    0  0.24198093452E+02 -0.35357490598E+02 -0.30269391705E+03  0.30571115009E+03  0.00000000000E+00 0. -1.
        -13    1    3    3    0    0  0.13719483619E+02  0.54986461124E+02 -0.10595190728E+02  0.57654082287E+02  0.00000000000E+00 0.  1.
         13    1    3    3    0    0  0.22315515211E+02 -0.38252691666E+02 -0.32039456972E+02  0.54660565693E+02  0.00000000000E+00 0. -1.
         21    1    1    2  502  501 -0.16947204468E+02  0.14988590148E+02  0.20679710421E+02  0.30651525199E+02  0.00000000000E+00 0.  1.
<scales pt_clust_5="13000.00000" pt_clust_6="13000.00000" pt_clust_7="13000.00000" pt_clust_8="13000.00000" pt_clust_9="22.62445"></scales>
<clustering>
<clus scale="   22.624">  1  9  2 -1</clus>
<clus scale="   79.472">  5  6 -1 -1</clus>
<clus scale="   87.533">  2  5  1 -1</clus>
<clus scale="   96.012">  7  8 -1 -1</clus>
<clus scale="   87.533">  2  5  1 -1</clus>
</clustering>
</event>
<event>
 9    2  0.2869112E-005  0.1178221E+03  0.7546771E-02  0.1251012E+00
         -1   -1    0    0    0  501 -0.00000000000E+00  0.00000000000E+00  0.41454803897E+03  0.41454803897E+03  0.00000000000E+00 0.  1.
          2   -1    0    0  502    0  0.00000000000E+00 -0.00000000000E+00 -0.25497264903E+03  0.25497264903E+03  0.00000000000E+00 0. -1.
         24    2    1    2    0    0  0.97823866677E+02  0.22658211523E+02 -0.26837179858E+02  0.13128784344E+03  0.80208230078E+02 0.  0.
         23    2    1    2    0    0 -0.60791262903E+02  0.30401435442E+02 -0.15371406818E+03  0.19200622839E+03  0.92836157074E+02 0.  0.
        -11    1    3    3    0    0  0.54546646697E+02 -0.20282096327E+02 -0.37731272256E+02  0.69356679587E+02  0.00000000000E+00 0.  1.
         12    1    3    3    0    0  0.43277219980E+02  0.42940307850E+02  0.10894092398E+02  0.61931163857E+02  0.00000000000E+00 0. -1.
        -11    1    4    4    0    0 -0.60925894189E+02  0.23598387654E+01 -0.35588818908E+02  0.70598140577E+02  0.00000000000E+00 0.  1.
         11    1    4    4    0    0  0.13463128517E+00  0.28041596676E+02 -0.11812524928E+03  0.12140808781E+03  0.00000000000E+00 0. -1.
         21    1    1    2  502  501 -0.37032603774E+02 -0.53059646964E+02  0.34012663798E+03  0.34622661616E+03  0.00000000000E+00 0.  1.
<scales pt_clust_5="13000.00000" pt_clust_6="13000.00000" pt_clust_7="13000.00000" pt_clust_8="13000.00000" pt_clust_9="64.70502"></scales>
<clustering>
<clus scale="   64.705">  1  9  2 -1</clus>
<clus scale="   80.208">  5  6 -1 -1</clus>
<clus scale="   92.836">  7  8 -1 -1</clus>
<clus scale="  108.152">  1  5  2 -1</clus>
<clus scale="  117.822">  2  5  1 -1</clus>
</clustering>
</event>
<event>
 9    2  0.2869112E-005  0.9466160E+02  0.7546771E-02  0.1296808E+00
         -1   -1    0    0    0  501 -0.00000000000E+00  0.00000000000E+00  0.34863492841E+03  0.34863492841E+03  0.00000000000E+00 0.  1.
          2   -1    0    0  502    0  0.00000000000E+00 -0.00000000000E+00 -0.11818306476E+04  0.11818306476E+04  0.00000000000E+00 0. -1.
         23    2    1    2    0    0 -0.23594824675E+02 -0.31556064870E+02  0.23567100283E+03  0.25575324656E+03  0.91194301182E+02 0.  0.
         24    2    1    2    0    0  0.57245929846E+01 -0.25073079290E+02 -0.11614774980E+04  0.11646988712E+04  0.82656228058E+02 0.  0.
        -13    1    4    4    0    0  0.94192146763E+01  0.22406352055E+02 -0.13872134186E+03  0.14083457284E+03  0.00000000000E+00 0.  1.
         14    1    4    4    0    0 -0.36946216917E+01 -0.47479431345E+02 -0.10227561561E+04  0.10238642984E+04  0.00000000000E+00 0. -1.
        -13    1    3    3    0    0  0.14650058731E+02 -0.50932999836E+02  0.96093440346E+02  0.10973943672E+03  0.00000000000E+00 0. -1.
         13    1    3    3    0    0 -0.38244883406E+02  0.19376934966E+02  0.13957756249E+03  0.14601380984E+03  0.00000000000E+00 0.  1.
         21    1    1    2  502  501  0.17870231690E+02  0.56629144160E+02  0.92610776011E+02  0.11001345819E+03  0.00000000000E+00 0.  1.
<scales pt_clust_5="13000.00000" pt_clust_6="13000.00000" pt_clust_7="13000.00000" pt_clust_8="13000.00000" pt_clust_9="59.38186"></scales>
<clustering>
<clus scale="   59.382">  1  9  2 -1</clus>
<clus scale="   82.656">  5  6 -1 -1</clus>
<clus scale="   86.467">  2  5  1 -1</clus>
<clus scale="   91.194">  7  8 -1 -1</clus>
<clus scale="   86.467">  2  5  1 -1</clus>
</clustering>
</event>
<event>
 9    2  0.2869112E-005  0.2051429E+03  0.7546771E-02  0.1183214E+00
          2   -1    0    0  502    0  0.00000000000E+00  0.00000000000E+00  0.22331650650E+03  0.22331650650E+03  0.00000000000E+00 0. -1.
         -1   -1    0    0    0  501 -0.00000000000E+00 -0.00000000000E+00 -0.26335195930E+03  0.26335195930E+03  0.00000000000E+00 0.  1.
         23    2    1    2    0    0 -0.12517289106E+03 -0.11936441537E+03  0.21100193203E+02  0.19656316716E+03  0.90971117502E+02 0.  0.
         24    2    1    2    0    0 -0.10452470202E+02 -0.14371181718E+02  0.10936357272E+02  0.86454071783E+02  0.83898257552E+02 0.  0.
        -13    1    4    4    0    0 -0.21138416474E+02 -0.25498002689E+02 -0.28760383894E+02  0.43865025634E+02  0.00000000000E+00 0.  1.
         14    1    4    4    0    0  0.10685946272E+02  0.11126820970E+02  0.39696741167E+02  0.42589046149E+02  0.00000000000E+00 0. -1.
        -11    1    3    3    0    0 -0.70927001944E+02 -0.97692082793E+02  0.50864664517E+02  0.13100227762E+03  0.00000000000E+00 0.  1.
         11    1    3    3    0    0 -0.54245889111E+02 -0.21672332574E+02 -0.29764471314E+02  0.65560889540E+02  0.00000000000E+00 0. -1.
         21    1    1    2  502  501  0.13562536126E+03  0.13373559709E+03 -0.72072003281E+02  0.20365122686E+03  0.00000000000E+00 0. -1.
<scales pt_clust_5="13000.00000" pt_clust_6="13000.00000" pt_clust_7="13000.00000" pt_clust_8="13000.00000" pt_clust_9="183.86918"></scales>
<clustering>
<clus scale="   83.898">  5  6 -1 -1</clus>
<clus scale="   85.760">  1  5  2 -1</clus>
<clus scale="   90.971">  7  8 -1 -1</clus>
<clus scale="  183.869">  2  9  1 -1</clus>
<clus scale="   85.760">  1  5  2 -1</clus>
</clustering>
</event>
<event>
 9    2  0.2869112E-005  0.1362735E+03  0.7546771E-02  0.1226722E+00
          2   -1    0    0  502    0  0.00000000000E+00  0.00000000000E+00  0.93674637650E+03  0.93674637650E+03  0.00000000000E+00 0. -1.
         -1   -1    0    0    0  501 -0.00000000000E+00 -0.00000000000E+00 -0.11820589626E+03  0.11820589626E+03  0.00000000000E+00 0.  1.
         23    2    1    2    0    0  0.56877374829E+02 -0.32868455569E+02  0.10462551231E+03  0.16462555924E+03  0.10881041214E+03 0.  0.
         24    2    1    2    0    0 -0.79946883441E+02  0.27372530217E+02  0.79621731227E+03  0.80467577478E+03  0.80002090984E+02 0.  0.
        -11    1    4    4    0    0 -0.12699640870E+02 -0.26803379367E+02  0.17745105521E+03  0.17991269833E+03  0.00000000000E+00 0.  1.
         12    1    4    4    0    0 -0.67247242571E+02  0.54175909585E+02  0.61876625706E+03  0.62476307645E+03  0.00000000000E+00 0. -1.
        -13    1    3    3    0    0 -0.19625337433E+02 -0.11154294832E+02  0.77313465409E+02  0.80541567504E+02  0.00000000000E+00 0. -1.
         13    1    3    3    0    0  0.76502712262E+02 -0.21714160737E+02  0.27312046899E+02  0.84083991733E+02  0.00000000000E+00 0.  1.
         21    1    1    2  502  501  0.23069508613E+02  0.54959253513E+01 -0.82302344341E+02  0.85650938741E+02  0.00000000000E+00 0.  1.
<scales pt_clust_5="13000.00000" pt_clust_6="13000.00000" pt_clust_7="13000.00000" pt_clust_8="13000.00000" pt_clust_9="23.71513"></scales>
<clustering>
<clus scale="   23.715">  2  9  1 -1</clus>
<clus scale="   80.002">  5  6 -1 -1</clus>
<clus scale="  108.810">  7  8 -1 -1</clus>
<clus scale="  114.591">  1  5  2 -1</clus>
<clus scale="  114.591">  1  5  2 -1</clus>
</clustering>
</event>
<event>
 9    2  0.2869112E-005  0.1072206E+03  0.7546771E-02  0.1270150E+00
         -1   -1    0    0    0  501 -0.00000000000E+00  0.00000000000E+00  0.40453725895E+03  0.40453725895E+03  0.00000000000E+00 0.  1.
          2   -1    0    0  502    0  0.00000000000E+00 -0.00000000000E+00 -0.59886503211E+02  0.59886503211E+02  0.00000000000E+00 0. -1.
         23    2    1    2    0    0  0.57420280676E+02  0.23576088789E+02  0.20109693843E+03  0.22951476400E+03  0.91564882204E+02 0.  0.
         24    2    1    2    0    0 -0.12566054243E+02 -0.59103583223E+02  0.26565847184E+02  0.10467732135E+03  0.81243203411E+02 0.  0.
        -13    1    4    4    0    0 -0.19832865164E+02 -0.13152351247E+02  0.47908169724E+02  0.53493173492E+02  0.00000000000E+00 0.  1.
         14    1    4    4    0    0  0.72668109211E+01 -0.45951231975E+02 -0.21342322540E+02  0.51184147863E+02  0.00000000000E+00 0. -1.
        -13    1    3    3    0    0 -0.11897934213E+02  0.27654840985E+02  0.11516098672E+03  0.11903110489E+03  0.00000000000E+00 0.  1.
         13    1    3    3    0    0  0.69318214889E+02 -0.40787521958E+01  0.85935951715E+02  0.11048365912E+03  0.00000000000E+00 0. -1.
         21    1    1    2  502  501 -0.44854226433E+02  0.35527494433E+02  0.11698797012E+03  0.13023167680E+03  0.00000000000E+00 0.  1.
<scales pt_clust_5="13000.00000" pt_clust_6="13000.00000" pt_clust_7="13000.00000" pt_clust_8="13000.00000" pt_clust_9="57.21979"></scales>
<clustering>
<clus scale="   57.220">  1  9  2 -1</clus>
<clus scale="   81.243">  5  6 -1 -1</clus>
<clus scale="   91.565">  7  8 -1 -1</clus>
<clus scale="   98.552">  2  5  1 -1</clus>
<clus scale="   98.552">  2  5  1 -1</clus>
</clustering>
</event>
<event>
 9    2  0.2869112E-005  0.1084978E+03  0.7546771E-02  0.1267476E+00
         -1   -1    0    0    0  501 -0.00000000000E+00  0.00000000000E+00  0.10161029151E+03  0.10161029151E+03  0.00000000000E+00 0.  1.
          2   -1    0    0  502    0  0.00000000000E+00 -0.00000000000E+00 -0.62950587505E+03  0.62950587505E+03  0.00000000000E+00 0. -1.
         23    2    1    2    0    0  0.40192618977E+02  0.48217690799E+02  0.20821629696E+02  0.11230139675E+03  0.90761617013E+02 0.  0.
         24    2    1    2    0    0 -0.51514104774E+02 -0.29710595878E+02 -0.57560927930E+03  0.58426231953E+03  0.80622534725E+02 0.  0.
        -11    1    4    4    0    0  0.49984406882E+01 -0.19697565476E+02 -0.33924265804E+02  0.39545344926E+02  0.00000000000E+00 0.  1.
         12    1    4    4    0    0 -0.56512545462E+02 -0.10013030401E+02 -0.54168501350E+03  0.54471697460E+03  0.00000000000E+00 0. -1.
        -13    1    3    3    0    0 -0.26735669402E+02 -0.10756394163E+01  0.64118197235E+00  0.26764979598E+02  0.00000000000E+00 0.  1.
         13    1    3    3    0    0  0.66928288380E+02  0.49293330215E+02  0.20180447723E+02  0.85536417154E+02  0.00000000000E+00 0. -1.
         21    1    1    2  502  501  0.11321485796E+02 -0.18507094921E+02  0.26892066070E+02  0.34552450284E+02  0.00000000000E+00 0. -1.
<scales pt_clust_5="13000.00000" pt_clust_6="13000.00000" pt_clust_7="13000.00000" pt_clust_8="13000.00000" pt_clust_9="21.69536"></scales>
<clustering>
<clus scale="   21.695">  1  9  2 -1</clus>
<clus scale="   80.623">  5  6 -1 -1</clus>
<clus scale="   90.762">  7  8 -1 -1</clus>
<clus scale="  100.170">  2  5  1 -1</clus>
<clus scale="  100.170">  2  5  1 -1</clus>
</clustering>
</event>
<event>
 9    2  0.2869112E-005  0.1068028E+03  0.7546771E-02  0.1272847E+00
         -1   -1    0    0    0  501 -0.00000000000E+00  0.00000000000E+00  0.47873570378E+02  0.47873570378E+02  0.00000000000E+00 0.  1.
          2   -1    0    0  502    0  0.00000000000E+00 -0.00000000000E+00 -0.35388094554E+03  0.35388094554E+03  0.00000000000E+00 0. -1.
         23    2    1    2    0    0 -0.87421940515E+01  0.64850709725E+02 -0.80137900000E+02  0.13780295052E+03  0.91024884770E+02 0.  0.
         24    2    1    2    0    0  0.24796869720E+02 -0.47571653183E+02 -0.22093854658E+03  0.23985524903E+03  0.76411728078E+02 0.  0.
        -13    1    4    4    0    0 -0.25027485117E+02 -0.10010550840E+01 -0.54186559848E+02  0.59695564247E+02  0.00000000000E+00 0.  1.
         14    1    4    4    0    0  0.49824354836E+02 -0.46570598099E+02 -0.16675198673E+03  0.18015968478E+03  0.00000000000E+00 0. -1.
        -11    1    3    3    0    0 -0.21463853152E+02  0.21290659017E+02  0.13986072944E+02  0.33310649797E+02  0.00000000000E+00 0.  1.
         11    1    3    3    0    0  0.12721659100E+02  0.43560050707E+02 -0.94123972944E+02  0.10449230072E+03  0.00000000000E+00 0. -1.
         21    1    1    2  502  501 -0.16054675668E+02 -0.17279056542E+02 -0.49309285818E+01  0.24096316367E+02  0.00000000000E+00 0. -1.
<scales pt_clust_5="13000.00000" pt_clust_6="13000.00000" pt_clust_7="13000.00000" pt_clust_8="13000.00000" pt_clust_9="23.58640"></scales>
<clustering>
<clus scale="   23.586">  1  9  2 -1</clus>
<clus scale="   76.412">  5  6 -1 -1</clus>
<clus scale="   91.025">  7  8 -1 -1</clus>
<clus scale="   94.658">  2  5  1 -1</clus>
<clus scale="   94.658">  2  5  1 -1</clus>
</clustering>
</event>
<event>
 9    2  0.2869112E-005  0.1887753E+03  0.7546771E-02  0.1193065E+00
          2   -1    0    0  502    0  0.00000000000E+00  0.00000000000E+00  0.50890553065E+03  0.50890553065E+03  0.00000000000E+00 0. -1.
         -1   -1    0    0    0  501 -0.00000000000E+00 -0.00000000000E+00 -0.38275410500E+03  0.38275410500E+03  0.00000000000E+00 0.  1.
         23    2    1    2    0    0  0.18648295370E+03  0.69700281795E+01 -0.12447369938E+03  0.24215551281E+03  0.91220158056E+02 0.  0.
         24    2    1    2    0    0 -0.32356197119E+02 -0.20905119532E+01  0.41487995087E+03  0.42420761914E+03  0.82313041292E+02 0.  0.
        -13    1    4    4    0    0  0.86692005377E+01 -0.23200610961E+02  0.44190523221E+02  0.50657928594E+02  0.00000000000E+00 0.  1.
         14    1    4    4    0    0 -0.41025397657E+02  0.21110099007E+02  0.37068942765E+03  0.37354969054E+03  0.00000000000E+00 0. -1.
        -11    1    3    3    0    0  0.57549846734E+02  0.12158258657E+02  0.54115364963E+01  0.59068543574E+02  0.00000000000E+00 0. -1.
         11    1    3    3    0    0  0.12893310696E+03 -0.51882304770E+01 -0.12988523587E+03  0.18308696923E+03  0.00000000000E+00 0.  1.
         21    1    1    2  502  501 -0.15412675658E+03 -0.48795162263E+01 -0.16425482584E+03  0.22529650371E+03  0.00000000000E+00 0.  1.
<scales pt_clust_5="13000.00000" pt_clust_6="13000.00000" pt_clust_7="13000.00000" pt_clust_8="13000.00000" pt_clust_9="165.27246"></scales>
<clustering>
<clus scale="   82.313">  5  6 -1 -1</clus>
<clus scale="   88.469">  1  5  2 -1</clus>
<clus scale="   91.220">  7  8 -1 -1</clus>
<clus scale="  165.272">  2  9  1 -1</clus>
<clus scale="   88.469">  1  5  2 -1</clus>
</clustering>
</event>
<event>
 9    2  0.3061387E-005  0.9587578E+02  0.7546771E-02  0.1295061E+00
         -1   -1    0    0    0  501 -0.00000000000E+00  0.00000000000E+00  0.48346117586E+03  0.48346117586E+03  0.00000000000E+00 0.  1.
          2   -1    0    0  502    0  0.00000000000E+00 -0.00000000000E+00 -0.42921007513E+02  0.42921007513E+02  0.00000000000E+00 0. -1.
         24    2    1    2    0    0 -0.14917207647E+02 -0.14891882960E+02  0.33152916603E+03  0.34201351696E+03  0.81347197817E+02 0.  0.
         23    2    1    2    0    0  0.14788098299E+01  0.29966763314E+02  0.27478888681E+02  0.10037266587E+03  0.91757228317E+02 0.  0.
        -13    1    3    3    0    0 -0.30684173306E+02 -0.35662618652E+02  0.12015847962E+03  0.12904030798E+03  0.00000000000E+00 0.  1.
         14    1    3    3    0    0  0.15766965659E+02  0.20770735691E+02  0.21137068641E+03  0.21297320897E+03  0.00000000000E+00 0. -1.
        -11    1    4    4    0    0 -0.28512063679E+02  0.17260302793E+02 -0.22859510910E+02  0.40415505277E+02  0.00000000000E+00 0. -1.
         11    1    4    4    0    0  0.29990873508E+02  0.12706460521E+02  0.50338399591E+02  0.59957160592E+02  0.00000000000E+00 0.  1.
         21    1    1    2  502  501  0.13438397817E+02 -0.15074880354E+02  0.81532113644E+02  0.83996000553E+02  0.00000000000E+00 0. -1.
<scales pt_clust_5="13000.00000" pt_clust_6="13000.00000" pt_clust_7="13000.00000" pt_clust_8="13000.00000" pt_clust_9="20.19511"></scales>
<clustering>
<clus scale="   20.195">  1  9  2 -1</clus>
<clus scale="   81.347">  5  6 -1 -1</clus>
<clus scale="   85.966">  1  5  2 -1</clus>
<clus scale="   91.757">  7  8 -1 -1</clus>
<clus scale="   95.876">  2  5  1 -1</clus>
</clustering>
</event>
<event>
 9    2  0.2869112E-005  0.1007717E+03  0.7546771E-02  0.1286173E+00
          2   -1    0    0  502    0  0.00000000000E+00  0.00000000000E+00  0.48030627836E+03  0.48030627836E+03  0.00000000000E+00 0. -1.
         -1   -1    0    0    0  501 -0.00000000000E+00 -0.00000000000E+00 -0.78107245519E+02  0.78107245519E+02  0.00000000000E+00 0.  1.
         23    2    1    2    0    0  0.20404952295E+02  0.45783657295E+02 -0.16008966546E+02  0.10783048148E+03  0.94120244222E+02 0.  0.
         24    2    1    2    0    0 -0.19186248738E+02  0.17816638796E+02  0.12481486229E+03  0.15037308954E+03  0.79672902861E+02 0.  0.
        -11    1    4    4    0    0 -0.20859188805E+02 -0.21187247435E+02  0.13963140746E+02  0.32847747426E+02  0.00000000000E+00 0.  1.
         12    1    4    4    0    0  0.16729400665E+01  0.39003886231E+02  0.11085172154E+03  0.11752534211E+03  0.00000000000E+00 0. -1.
        -13    1    3    3    0    0  0.11641877791E+02  0.73189706787E+02  0.15442335092E+01  0.74125914195E+02  0.00000000000E+00 0. -1.
         13    1    3    3    0    0  0.87630745046E+01 -0.27406049493E+02 -0.17553200055E+02  0.33704567283E+02  0.00000000000E+00 0.  1.
         21    1    1    2  502  501 -0.12187035574E+01 -0.63600296091E+02  0.29339313710E+03  0.30020995286E+03  0.00000000000E+00 0.  1.
<scales pt_clust_5="13000.00000" pt_clust_6="13000.00000" pt_clust_7="13000.00000" pt_clust_8="13000.00000" pt_clust_9="63.61197"></scales>
<clustering>
<clus scale="   63.612">  1  9  2 -1</clus>
<clus scale="   79.673">  5  6 -1 -1</clus>
<clus scale="   87.431">  1  5  2 -1</clus>
<clus scale="   94.120">  7  8 -1 -1</clus>
<clus scale="   63.612">  1  5  2 -1</clus>
</clustering>
</event>
<event>
 9    2  0.2869112E-005  0.3670295E+03  0.7546771E-02  0.1056036E+00
          2   -1    0    0  502    0  0.00000000000E+00  0.00000000000E+00  0.20834990671E+04  0.20834990671E+04  0.00000000000E+00 0. -1.
         -1   -1    0    0    0  501 -0.00000000000E+00 -0.00000000000E+00 -0.20244937265E+03  0.20244937265E+03  0.00000000000E+00 0.  1.
         23    2    1    2    0    0 -0.39831405214E+03  0.73313274679E+02  0.11454871898E+03  0.43195858381E+03  0.97148796849E+02 0.  0.
         24    2    1    2    0    0  0.34467225860E+03 -0.48918766276E+02  0.17581269293E+04  0.17944696182E+04  0.88988199229E+02 0.  0.
        -13    1    4    4    0    0  0.21005976464E+03  0.10029220376E+02  0.93854131804E+03  0.96181364912E+03  0.00000000000E+00 0.  1.
         14    1    4    4    0    0  0.13461249396E+03 -0.58947986651E+02  0.81958561127E+03  0.83265596909E+03  0.00000000000E+00 0. -1.
        -13    1    3    3    0    0 -0.35423249871E+03  0.71452012148E+02  0.67790821741E+02  0.36767057089E+03  0.00000000000E+00 0.  1.
         13    1    3    3    0    0 -0.44081553426E+02  0.18612625311E+01  0.46757897244E+02  0.64288012921E+02  0.00000000000E+00 0. -1.
         21    1    1    2  502  501  0.53641793533E+02 -0.24394508403E+02  0.83740461974E+01  0.59520237763E+02  0.00000000000E+00 0. -1.
<scales pt_clust_5="13000.00000" pt_clust_6="13000.00000" pt_clust_7="13000.00000" pt_clust_8="13000.00000" pt_clust_9="58.92821"></scales>
<clustering>
<clus scale="   58.928">  2  9  1 -1</clus>
<clus scale="   88.988">  5  6 -1 -1</clus>
<clus scale="   97.149">  7  8 -1 -1</clus>
<clus scale="  364.954">  1  5  2 -1</clus>
<clus scale="  364.954">  1  5  2 -1</clus>
</clustering>
</event>
<event>
 9    2  0.2869112E-005  0.1540816E+03  0.7546771E-02  0.1195588E+00
         -1   -1    0    0    0  501 -0.00000000000E+00  0.00000000000E+00  0.70949624102E+03  0.70949624102E+03  0.00000000000E+00 0.  1.
          2   -1    0    0  502    0  0.00000000000E+00 -0.00000000000E+00 -0.46127928735E+02  0.46127928735E+02  0.00000000000E+00 0. -1.
         23    2    1    2    0    0 -0.77255545152E+01 -0.11374316990E+03  0.33975313420E+03  0.36954367371E+03  0.90183932540E+02 0.  0.
         24    2    1    2    0    0 -0.10157657007E+02  0.13124582800E+03  0.18142226894E+03  0.24170260401E+03  0.90429330195E+02 0.  0.
        -11    1    4    4    0    0 -0.47686413927E+02  0.59737095750E+02  0.66954046008E+02  0.10161377347E+03  0.00000000000E+00 0.  1.
         12    1    4    4    0    0  0.37528756920E+02  0.71508732246E+02  0.11446822293E+03  0.14008883055E+03  0.00000000000E+00 0. -1.
        -11    1    3    3    0    0 -0.25274796885E+02  0.43152306696E+01  0.50608185150E+02  0.56732926749E+02  0.00000000000E+00 0.  1.
         11    1    3    3    0    0  0.17549242370E+02 -0.11805840057E+03  0.28914494905E+03  0.31281074696E+03  0.00000000000E+00 0. -1.
         21    1    1    2  502  501  0.17883211522E+02 -0.17502658097E+02  0.14219290915E+03  0.14437789203E+03  0.00000000000E+00 0. -1.
<scales pt_clust_5="13000.00000" pt_clust_6="13000.00000" pt_clust_7="13000.00000" pt_clust_8="13000.00000" pt_clust_9="25.02304"></scales>
<clustering>
<clus scale="   25.023">  1  9  2 -1</clus>
<clus scale="   90.184">  7  8 -1 -1</clus>
<clus scale="   90.429">  5  6 -1 -1</clus>
<clus scale="  153.938">  1  7  2 -1</clus>
<clus scale="  154.082">  2  5  1 -1</clus>
</clustering>
</event>
<event>
 9    2  0.2869112E-005  0.1381779E+03  0.7546771E-02  0.1217786E+00
         -1   -1    0    0    0  501 -0.00000000000E+00  0.00000000000E+00  0.20466880894E+02  0.20466880894E+02  0.00000000000E+00 0.  1.
          2   -1    0    0  502    0  0.00000000000E+00 -0.00000000000E+00 -0.13168381614E+04  0.13168381614E+04  0.00000000000E+00 0. -1.
         23    2    1    2    0    0 -0.81921679283E+02  0.34858677240E+02 -0.39559061607E+03  0.41565632218E+03  0.91389024140E+02 0.  0.
         24    2    1    2    0    0  0.95572604830E+02 -0.58579238912E+02 -0.86730954257E+03  0.87841298474E+03  0.82570449281E+02 0.  0.
        -11    1    4    4    0    0  0.95729481156E+02 -0.36542224255E+02 -0.49724659845E+03  0.50769444293E+03  0.00000000000E+00 0.  1.
         12    1    4    4    0    0 -0.15687632541E+00 -0.22037014657E+02 -0.37006294412E+03  0.37071854180E+03  0.00000000000E+00 0. -1.
        -13    1    3    3    0    0 -0.21352152846E+02 -0.28855305912E+02 -0.16540056521E+03  0.16925096774E+03  0.00000000000E+00 0. -1.
         13    1    3    3    0    0 -0.60569526437E+02  0.63713983151E+02 -0.23019005086E+03  0.24640535444E+03  0.00000000000E+00 0.  1.
         21    1    1    2  502  501 -0.13650925547E+02  0.23720561672E+02 -0.33471121862E+02  0.43235735370E+02  0.00000000000E+00 0. -1.
<scales pt_clust_5="13000.00000" pt_clust_6="13000.00000" pt_clust_7="13000.00000" pt_clust_8="13000.00000" pt_clust_9="27.36810"></scales>
<clustering>
<clus scale="   27.368">  1  9  2 -1</clus>
<clus scale="   82.570">  5  6 -1 -1</clus>
<clus scale="   91.389">  7  8 -1 -1</clus>
<clus scale="  132.511">  2  5  1 -1</clus>
<clus scale="  132.511">  2  5  1 -1</clus>
</clustering>
</event>
<event>
 9    2  0.2869112E-005  0.9160492E+02  0.7546771E-02  0.1305563E+00
         -1   -1    0    0    0  501 -0.00000000000E+00  0.00000000000E+00  0.27227770493E+03  0.27227770493E+03  0.00000000000E+00 0.  1.
          2   -1    0    0  502    0  0.00000000000E+00 -0.00000000000E+00 -0.11617472264E+03  0.11617472264E+03  0.00000000000E+00 0. -1.
         23    2    1    2    0    0 -0.10823459306E+02  0.37252691196E+01  0.22255402139E+03  0.24079852330E+03  0.91228348039E+02 0.  0.
         24    2    1    2    0    0 -0.94594982686E+01 -0.14528053617E+01 -0.86706082441E+02  0.11889926568E+03  0.80792932223E+02 0.  0.
        -13    1    4    4    0    0 -0.46716694597E+00 -0.26856516370E+02  0.12678091522E+01  0.26890482638E+02  0.00000000000E+00 0.  1.
         14    1    4    4    0    0 -0.89923313227E+01  0.25403711008E+02 -0.87973891593E+02  0.92008783046E+02  0.00000000000E+00 0. -1.
        -11    1    3    3    0    0  0.83767120625E+01 -0.33153580893E+02  0.35938970632E+02  0.49607850599E+02  0.00000000000E+00 0.  1.
         11    1    3    3    0    0 -0.19200171368E+02  0.36878850012E+02  0.18661505076E+03  0.19119067271E+03  0.00000000000E+00 0. -1.
         21    1    1    2  502  501  0.20282957575E+02 -0.22724637579E+01  0.20255043333E+02  0.28754638581E+02  0.00000000000E+00 0.  1.
<scales pt_clust_5="13000.00000" pt_clust_6="13000.00000" pt_clust_7="13000.00000" pt_clust_8="13000.00000" pt_clust_9="20.40986"></scales>
<clustering>
<clus scale="   20.410">  1  9  2 -1</clus>
<clus scale="   80.793">  5  6 -1 -1</clus>
<clus scale="   81.218">  2  5  1 -1</clus>
<clus scale="   91.228">  7  8 -1 -1</clus>
<clus scale="   81.218">  2  5  1 -1</clus>
</clustering>
</event>
<event>
 9    2  0.2869112E-005  0.9635369E+02  0.7546771E-02  0.1291968E+00
          2   -1    0    0  502    0  0.00000000000E+00  0.00000000000E+00  0.98482608081E+03  0.98482608081E+03  0.00000000000E+00 0. -1.
         -1   -1    0    0    0  501 -0.00000000000E+00 -0.00000000000E+00 -0.16028353528E+02  0.16028353528E+02  0.00000000000E+00 0.  1.
         23    2    1    2    0    0  0.72601863581E+01 -0.29117812723E+02  0.23264909589E+03  0.25135650420E+03  0.90299131001E+02 0.  0.
         24    2    1    2    0    0 -0.31412381485E+02  0.19475450256E+02  0.69420315430E+03  0.70014484785E+03  0.83179069808E+02 0.  0.
        -11    1    4    4    0    0 -0.16930804330E+02 -0.22821062153E+02  0.92093647952E+02  0.96377865748E+02  0.00000000000E+00 0.  1.
         12    1    4    4    0    0 -0.14481577154E+02  0.42296512409E+02  0.60210950635E+03  0.60376698210E+03  0.00000000000E+00 0. -1.
        -11    1    3    3    0    0  0.39041618225E+02 -0.26059365577E+02  0.62099262140E+02  0.77843797737E+02  0.00000000000E+00 0.  1.
         11    1    3    3    0    0 -0.31781431866E+02 -0.30584471461E+01  0.17054983375E+03  0.17351270646E+03  0.00000000000E+00 0. -1.
         21    1    1    2  502  501  0.24152195127E+02  0.96423624668E+01  0.41945477088E+02  0.49353082290E+02  0.00000000000E+00 0.  1.
<scales pt_clust_5="13000.00000" pt_clust_6="13000.00000" pt_clust_7="13000.00000" pt_clust_8="13000.00000" pt_clust_9="26.00584"></scales>
<clustering>
<clus scale="   26.006">  2  9  1 -1</clus>
<clus scale="   83.179">  5  6 -1 -1</clus>
<clus scale="   89.715">  1  5  2 -1</clus>
<clus scale="   90.299">  7  8 -1 -1</clus>
<clus scale="   89.715">  1  5  2 -1</clus>
</clustering>
</event>
<event>
 9    2  0.2869112E-005  0.1183080E+03  0.7546771E-02  0.1247220E+00
          2   -1    0    0  502    0  0.00000000000E+00  0.00000000000E+00  0.15478110358E+04  0.15478110358E+04  0.00000000000E+00 0. -1.
         -1   -1    0    0    0  501 -0.00000000000E+00 -0.00000000000E+00 -0.14820006713E+02  0.14820006713E+02  0.00000000000E+00 0.  1.
         23    2    1    2    0    0  0.31132375787E+02  0.42997610306E+02  0.44823171293E+03  0.46023226166E+03  0.89911327884E+02 0.  0.
         24    2    1    2    0    0 -0.72730519382E+02 -0.59638469030E+02  0.98299307100E+03  0.99120663911E+03  0.85841414000E+02 0.  0.
        -13    1    4    4    0    0  0.16556678977E+02 -0.13204127728E+02  0.85284074573E+02  0.87874034751E+02  0.00000000000E+00 0.  1.
         14    1    4    4    0    0 -0.89287198359E+02 -0.46434341302E+02  0.89770899642E+03  0.90333260436E+03  0.00000000000E+00 0. -1.
        -11    1    3    3    0    0  0.38530964114E+02  0.67705885713E+02  0.31183899335E+03  0.32142227665E+03  0.00000000000E+00 0.  1.
         11    1    3    3    0    0 -0.73985883273E+01 -0.24708275407E+02  0.13639271958E+03  0.13880998501E+03  0.00000000000E+00 0. -1.
         21    1    1    2  502  501  0.41598143596E+02  0.16640858724E+02  0.10176624511E+03  0.11119214169E+03  0.00000000000E+00 0.  1.
<scales pt_clust_5="13000.00000" pt_clust_6="13000.00000" pt_clust_7="13000.00000" pt_clust_8="13000.00000" pt_clust_9="44.80317"></scales>
<clustering>
<clus scale="   44.803">  2  9  1 -1</clus>
<clus scale="   85.841">  5  6 -1 -1</clus>
<clus scale="   89.911">  7  8 -1 -1</clus>
<clus scale="  115.245">  1  5  2 -1</clus>
<clus scale="  115.245">  1  5  2 -1</clus>
</clustering>
</event>
<event>
 9    2  0.2869112E-005  0.3366307E+03  0.7546771E-02  0.1068445E+00
         -1   -1    0    0    0  501 -0.00000000000E+00  0.00000000000E+00  0.35183615807E+03  0.35183615807E+03  0.00000000000E+00 0.  1.
          2   -1    0    0  502    0  0.00000000000E+00 -0.00000000000E+00 -0.77706140222E+03  0.77706140222E+03  0.00000000000E+00 0. -1.
         23    2    1    2    0    0  0.15635487254E+02 -0.26588239543E+03  0.28075009482E+02  0.28288208582E+03  0.91083212811E+02 0.  0.
         24    2    1    2    0    0  0.20079102197E+03  0.30361709779E+03 -0.49730248051E+03  0.62196070967E+03  0.83815217462E+02 0.  0.
        -11    1    4    4    0    0  0.29342340095E+02  0.36509621330E+02 -0.12055976579E+03  0.12933902157E+03  0.00000000000E+00 0.  1.
         12    1    4    4    0    0  0.17144868188E+03  0.26710747646E+03 -0.37674271472E+03  0.49262168811E+03  0.00000000000E+00 0. -1.
        -13    1    3    3    0    0 -0.27332581120E+02 -0.26634083884E+02 -0.22525110776E+00  0.38164055774E+02  0.00000000000E+00 0.  1.
         13    1    3    3    0    0  0.42968068374E+02 -0.23924831155E+03  0.28300260590E+02  0.24471803004E+03  0.00000000000E+00 0. -1.
         21    1    1    2  502  501 -0.21642650922E+03 -0.37734702360E+02  0.44002226877E+02  0.22405476480E+03  0.00000000000E+00 0.  1.
<scales pt_clust_5="13000.00000" pt_clust_6="13000.00000" pt_clust_7="13000.00000" pt_clust_8="13000.00000" pt_clust_9="219.69147"></scales>
<clustering>
<clus scale="   83.815">  5  6 -1 -1</clus>
<clus scale="   91.083">  7  8 -1 -1</clus>
<clus scale="  219.691">  1  9  2 -1</clus>
<clus scale="  334.737">  2  5  1 -1</clus>
<clus scale="  334.737">  2  5  1 -1</clus>
</clustering>
</event>
<event>
 9    2  0.2869112E-005  0.8801957E+02  0.7546771E-02  0.1311588E+00
          4   -1    0    0  502    0  0.00000000000E+00  0.00000000000E+00  0.23158645286E+02  0.23158645286E+02  0.00000000000E+00 0. -1.
         -3   -1    0    0    0  501 -0.00000000000E+00 -0.00000000000E+00 -0.55536039510E+03  0.55536039510E+03  0.00000000000E+00 0.  1.
         23    2    1    2    0    0  0.71211349481E+01  0.10977737509E+02 -0.29034967066E+03  0.30338054181E+03  0.86980461105E+02 0.  0.
         24    2    1    2    0    0  0.15741605565E+02  0.19507727113E+02 -0.11602494077E+03  0.14366782804E+03  0.80933975375E+02 0.  0.
        -11    1    4    4    0    0  0.13703968847E+02 -0.30831362734E+02 -0.38285094822E+02  0.51030580790E+02  0.00000000000E+00 0.  1.
         12    1    4    4    0    0  0.20376367178E+01  0.50339089847E+02 -0.77739845949E+02  0.92637247251E+02  0.00000000000E+00 0. -1.
        -11    1    3    3    0    0 -0.23174293399E+02  0.39649862539E+02 -0.16504567457E+03  0.17131618186E+03  0.00000000000E+00 0. -1.
         11    1    3    3    0    0  0.30295428348E+02 -0.28672125031E+02 -0.12530399609E+03  0.13206435994E+03  0.00000000000E+00 0.  1.
         21    1    1    2  502  501 -0.22862740513E+02 -0.30485464621E+02 -0.12582713838E+03  0.13147067053E+03  0.00000000000E+00 0.  1.
<scales pt_clust_5="13000.00000" pt_clust_6="13000.00000" pt_clust_7="13000.00000" pt_clust_8="13000.00000" pt_clust_9="38.10602"></scales>
<clustering>
<clus scale="   38.106">  2  9  1 -1</clus>
<clus scale="   80.934">  5  6 -1 -1</clus>
<clus scale="   82.050">  1  5  2 -1</clus>
<clus scale="   86.980">  7  8 -1 -1</clus>
<clus scale="   82.050">  1  5  2 -1</clus>
</clustering>
</event>
<event>
 9    2  0.2869112E-005  0.1266050E+03  0.7546771E-02  0.1235953E+00
          2   -1    0    0  502    0  0.00000000000E+00  0.00000000000E+00  0.43931491886E+02  0.43931491886E+02  0.00000000000E+00 0. -1.
         -1   -1    0    0    0  501 -0.00000000000E+00 -0.00000000000E+00 -0.82283979675E+03  0.82283979675E+03  0.00000000000E+00 0.  1.
         24    2    1    2    0    0 -0.85827766181E+02 -0.48461081154E+02 -0.48162593176E+03  0.49772810344E+03  0.77812884359E+02 0.  0.
         23    2    1    2    0    0  0.58159757142E+02  0.65579666489E+02 -0.79301405889E+02  0.14864748026E+03  0.90133847158E+02 0.  0.
        -11    1    3    3    0    0 -0.73194338252E+02 -0.25284396704E+02 -0.44962722104E+03  0.45624702714E+03  0.00000000000E+00 0.  1.
         12    1    3    3    0    0 -0.12633427929E+02 -0.23176684450E+02 -0.31998710714E+02  0.41481076296E+02  0.00000000000E+00 0. -1.
        -11    1    4    4    0    0  0.47741728085E+02  0.57289861347E-01 -0.65216078199E+02  0.80823342781E+02  0.00000000000E+00 0.  1.
         11    1    4    4    0    0  0.10418029057E+02  0.65522376628E+02 -0.14085327690E+02  0.67824137477E+02  0.00000000000E+00 0. -1.
         21    1    1    2  502  501  0.27668009039E+02 -0.17118585335E+02 -0.21798096722E+03  0.22039570494E+03  0.00000000000E+00 0.  1.
<scales pt_clust_5="13000.00000" pt_clust_6="13000.00000" pt_clust_7="13000.00000" pt_clust_8="13000.00000" pt_clust_9="32.53559"></scales>
<clustering>
<clus scale="   32.536">  2  9  1 -1</clus>
<clus scale="   77.813">  5  6 -1 -1</clus>
<clus scale="   90.134">  7  8 -1 -1</clus>
<clus scale="  118.151">  2  5  1 -1</clus>
<clus scale="  126.605">  1  5  2 -1</clus>
</clustering>
</event>
<event>
 9    2  0.2869112E-005  0.1473416E+03  0.7546771E-02  0.1206365E+00
         -1   -1    0    0    0  501 -0.00000000000E+00  0.00000000000E+00  0.62620249437E+02  0.62620249437E+02  0.00000000000E+00 0.  1.
          2   -1    0    0  502    0  0.00000000000E+00 -0.00000000000E+00 -0.13393481855E+04  0.13393481855E+04  0.00000000000E+00 0. -1.
         23    2    1    2    0    0  0.20148150576E+02  0.13606349478E+03 -0.13491497596E+03  0.21486759202E+03  0.95114713789E+02 0.  0.
         24    2    1    2    0    0 -0.90474204250E+01 -0.10962420390E+03 -0.11492916788E+04  0.11574665124E+04  0.82207313483E+02 0.  0.
        -13    1    4    4    0    0 -0.65292028006E+01 -0.57351739177E+02 -0.24685934861E+03  0.25351802790E+03  0.00000000000E+00 0.  1.
         14    1    4    4    0    0 -0.25182176244E+01 -0.52272464723E+02 -0.90243233019E+03  0.90394848446E+03  0.00000000000E+00 0. -1.
        -11    1    3    3    0    0  0.56516024361E+02  0.10567125049E+03 -0.96721891501E+02  0.15399869638E+03  0.00000000000E+00 0.  1.
         11    1    3    3    0    0 -0.36367873785E+02  0.30392244288E+02 -0.38193084455E+02  0.60868895642E+02  0.00000000000E+00 0. -1.
         21    1    1    2  502  501 -0.11100730151E+02 -0.26439290881E+02  0.74787187183E+01  0.29634330528E+02  0.00000000000E+00 0. -1.
<scales pt_clust_5="13000.00000" pt_clust_6="13000.00000" pt_clust_7="13000.00000" pt_clust_8="13000.00000" pt_clust_9="28.67512"></scales>
<clustering>
<clus scale="   28.675">  1  9  2 -1</clus>
<clus scale="   82.207">  5  6 -1 -1</clus>
<clus scale="   95.115">  7  8 -1 -1</clus>
<clus scale="  139.358">  2  5  1 -1</clus>
<clus scale="  139.358">  2  5  1 -1</clus>
</clustering>
</event>
<event>
 9    2  0.2869112E-005  0.9608710E+02  0.7546771E-02  0.1297981E+00
          2   -1    0    0  502    0  0.00000000000E+00  0.00000000000E+00  0.47406243050E+03  0.47406243050E+03  0.00000000000E+00 0. -1.
         -1   -1    0    0    0  501 -0.00000000000E+00 -0.00000000000E+00 -0.71127337361E+02  0.71127337361E+02  0.00000000000E+00 0.  1.
         23    2    1    2    0    0  0.11956521221E+02 -0.30964475888E+02 -0.13835880982E+02  0.10178354385E+03  0.95219226159E+02 0.  0.
         24    2    1    2    0    0 -0.97745039660E+01  0.66840770663E+01  0.41032099616E+03  0.41818914286E+03  0.79866272575E+02 0.  0.
        -11    1    4    4    0    0  0.10789466551E+02 -0.33289311671E+02  0.15110372208E+03  0.15510295190E+03  0.00000000000E+00 0.  1.
         12    1    4    4    0    0 -0.20563970517E+02  0.39973388738E+02  0.25921727408E+03  0.26308619096E+03  0.00000000000E+00 0. -1.
        -13    1    3    3    0    0  0.35238748067E+02  0.18630275181E+02 -0.23319999777E+02  0.46180936633E+02  0.00000000000E+00 0.  1.
         13    1    3    3    0    0 -0.23282226847E+02 -0.49594751069E+02  0.94841187949E+01  0.55602607222E+02  0.00000000000E+00 0. -1.
         21    1    1    2  502  501 -0.21820172547E+01  0.24280398821E+02  0.64499779591E+01  0.25217081153E+02  0.00000000000E+00 0.  1.
<scales pt_clust_5="13000.00000" pt_clust_6="13000.00000" pt_clust_7="13000.00000" pt_clust_8="13000.00000" pt_clust_9="24.37825"></scales>
<clustering>
<clus scale="   24.378">  2  9  1 -1</clus>
<clus scale="   79.866">  5  6 -1 -1</clus>
<clus scale="   80.899">  1  5  2 -1</clus>
<clus scale="   95.219">  7  8 -1 -1</clus>
<clus scale="   80.899">  1  5  2 -1</clus>
</clustering>
</event>
<event>
 9    2  0.2869112E-005  0.1087771E+03  0.7546771E-02  0.1265560E+00
          4   -1    0    0  502    0  0.00000000000E+00  0.00000000000E+00  0.32221932031E+02  0.32221932031E+02  0.00000000000E+00 0. -1.
         -3   -1    0    0    0  501 -0.00000000000E+00 -0.00000000000E+00 -0.61244487009E+03  0.61244487009E+03  0.00000000000E+00 0.  1.
         23    2    1    2    0    0 -0.13167900912E+02  0.65633043476E+02 -0.37313583656E+03  0.38902410313E+03  0.87340198565E+02 0.  0.
         24    2    1    2    0    0  0.36686494060E+02 -0.54168821168E+02 -0.94924608676E+02  0.14046901530E+03  0.80253989899E+02 0.  0.
        -11    1    4    4    0    0  0.19111668493E+02  0.19673885550E+02 -0.29216075191E+02  0.40073640897E+02  0.00000000000E+00 0.  1.
         12    1    4    4    0    0  0.17574825567E+02 -0.73842706718E+02 -0.65708533485E+02  0.10039537440E+03  0.00000000000E+00 0. -1.
        -13    1    3    3    0    0 -0.43534951971E+02  0.48822045770E+02 -0.31143337052E+03  0.31822889321E+03  0.00000000000E+00 0.  1.
         13    1    3    3    0    0  0.30367051059E+02  0.16810997706E+02 -0.61702466034E+02  0.70795209926E+02  0.00000000000E+00 0. -1.
         21    1    1    2  502  501 -0.23518593148E+02 -0.11464222308E+02 -0.11216249283E+03  0.11517368369E+03  0.00000000000E+00 0. -1.
<scales pt_clust_5="13000.00000" pt_clust_6="13000.00000" pt_clust_7="13000.00000" pt_clust_8="13000.00000" pt_clust_9="26.16396"></scales>
<clustering>
<clus scale="   26.164">  2  9  1 -1</clus>
<clus scale="   80.254">  5  6 -1 -1</clus>
<clus scale="   87.340">  7  8 -1 -1</clus>
<clus scale="  103.174">  1  5  2 -1</clus>
<clus scale="  103.174">  1  5  2 -1</clus>
</clustering>
</event>
<event>
 9    2  0.2869112E-005  0.1150407E+03  0.7546771E-02  0.1255275E+00
          2   -1    0    0  502    0  0.00000000000E+00  0.00000000000E+00  0.11518345341E+04  0.11518345341E+04  0.00000000000E+00 0. -1.
         -1   -1    0    0    0  501 -0.00000000000E+00 -0.00000000000E+00 -0.24198417917E+02  0.24198417917E+02  0.00000000000E+00 0.  1.
         23    2    1    2    0    0  0.37480204723E+02 -0.16162171032E+02  0.17415399041E+03  0.19991842801E+03  0.89284847331E+02 0.  0.
         24    2    1    2    0    0 -0.35852484293E+02  0.54862966625E+02  0.91066079177E+03  0.91837313764E+03  0.99049465055E+02 0.  0.
        -13    1    4    4    0    0  0.77288323064E+01  0.61114759171E+02  0.30762061950E+03  0.31372789831E+03  0.00000000000E+00 0.  1.
         14    1    4    4    0    0 -0.43581316599E+02 -0.62517925466E+01  0.60304017227E+03  0.60464523932E+03  0.00000000000E+00 0. -1.
        -13    1    3    3    0    0  0.53372455669E+02  0.95704316515E+01  0.55980579062E+02  0.77936111132E+02  0.00000000000E+00 0.  1.
         13    1    3    3    0    0 -0.15892250946E+02 -0.25732602684E+02  0.11817341135E+03  0.12198231688E+03  0.00000000000E+00 0. -1.
         21    1    1    2  502  501 -0.16277204300E+01 -0.38700795593E+02  0.42821333965E+02  0.57741386334E+02  0.00000000000E+00 0.  1.
<scales pt_clust_5="13000.00000" pt_clust_6="13000.00000" pt_clust_7="13000.00000" pt_clust_8="13000.00000" pt_clust_9="38.73501"></scales>
<clustering>
<clus scale="   38.735">  2  9  1 -1</clus>
<clus scale="   89.285">  7  8 -1 -1</clus>
<clus scale="   99.049">  5  6 -1 -1</clus>
<clus scale="  106.749">  2  7  1 -1</clus>
<clus scale="  115.041">  1  5  2 -1</clus>
</clustering>
</event>
<event>
 9    2  0.2869112E-005  0.1023109E+03  0.7546771E-02  0.1280351E+00
          2   -1    0    0  502    0  0.00000000000E+00  0.00000000000E+00  0.26911478996E+03  0.26911478996E+03  0.00000000000E+00 0. -1.
         -1   -1    0    0    0  501 -0.00000000000E+00 -0.00000000000E+00 -0.59820474734E+02  0.59820474734E+02  0.00000000000E+00 0.  1.
         23    2    1    2    0    0 -0.35309749610E+02  0.26214470209E+02  0.25759752279E+02  0.10337194281E+03  0.89934514271E+02 0.  0.
         24    2    1    2    0    0  0.51849934985E+02 -0.41125345898E+01  0.17016136454E+03  0.19488897224E+03  0.79507816104E+02 0.  0.
        -11    1    4    4    0    0  0.76311805984E+01  0.21659895068E+02  0.71813065767E+01  0.24061528127E+02  0.00000000000E+00 0.  1.
         12    1    4    4    0    0  0.44218754386E+02 -0.25772429658E+02  0.16298005796E+03  0.17082744411E+03  0.00000000000E+00 0. -1.
        -13    1    3    3    0    0 -0.25373713972E+02 -0.45383369212E+01  0.54394664383E+02  0.60193034282E+02  0.00000000000E+00 0. -1.
         13    1    3    3    0    0 -0.99360356386E+01  0.30752807130E+02 -0.28634912104E+02  0.43178908529E+02  0.00000000000E+00 0.  1.
         21    1    1    2  502  501 -0.16540185375E+02 -0.22101935619E+02  0.13373198413E+02  0.30674349645E+02  0.00000000000E+00 0.  1.
<scales pt_clust_5="13000.00000" pt_clust_6="13000.00000" pt_clust_7="13000.00000" pt_clust_8="13000.00000" pt_clust_9="27.60567"></scales>
<clustering>
<clus scale="   27.606">  2  9  1 -1</clus>
<clus scale="   79.508">  5  6 -1 -1</clus>
<clus scale="   89.935">  7  8 -1 -1</clus>
<clus scale="   93.278">  1  5  2 -1</clus>
<clus scale="   93.278">  1  5  2 -1</clus>
</clustering>
</event>
<event>
 9    2  0.2869112E-005  0.1522672E+03  0.7546771E-02  0.1197924E+00
         -1   -1    0    0    0  501 -0.00000000000E+00  0.00000000000E+00  0.15599935638E+03  0.15599935638E+03  0.00000000000E+00 0.  1.
          2   -1    0    0  502    0  0.00000000000E+00 -0.00000000000E+00 -0.32238617519E+03  0.32238617519E+03  0.00000000000E+00 0. -1.
         23    2    1    2    0    0 -0.11638560496E+03  0.13925607254E+02  0.52884947804E+01  0.14848580995E+03  0.90997450518E+02 0.  0.
         24    2    1    2    0    0  0.12269750623E+03  0.61209898727E+01 -0.22509701025E+03  0.27249254586E+03  0.92148678627E+02 0.  0.
        -11    1    4    4    0    0  0.22186497607E+02 -0.28794242720E+02 -0.20127104046E+02  0.41550564463E+02  0.00000000000E+00 0.  1.
         12    1    4    4    0    0  0.10051100862E+03  0.34915232593E+02 -0.20496990621E+03  0.23094198140E+03  0.00000000000E+00 0. -1.
        -11    1    3    3    0    0 -0.10437783274E+02 -0.28216020486E+02 -0.13415924153E+02  0.32940524474E+02  0.00000000000E+00 0. -1.
         11    1    3    3    0    0 -0.10594782169E+03  0.42141627740E+02  0.18704418933E+02  0.11554528548E+03  0.00000000000E+00 0.  1.
         21    1    1    2  502  501 -0.63119012648E+01 -0.20046597127E+02  0.53421696667E+02  0.57407175760E+02  0.00000000000E+00 0.  1.
<scales pt_clust_5="13000.00000" pt_clust_6="13000.00000" pt_clust_7="13000.00000" pt_clust_8="13000.00000" pt_clust_9="21.01681"></scales>
<clustering>
<clus scale="   21.017">  1  9  2 -1</clus>
<clus scale="   90.997">  7  8 -1 -1</clus>
<clus scale="   92.149">  5  6 -1 -1</clus>
<clus scale="  151.573">  1  7  2 -1</clus>
<clus scale="  152.267">  2  5  1 -1</clus>
</clustering>
</event>
<event>
 9    2  0.2869112E-005  0.1610420E+03  0.7546771E-02  0.1198089E+00
          2   -1    0    0  502    0  0.00000000000E+00  0.00000000000E+00  0.10538264639E+04  0.10538264639E+04  0.00000000000E+00 0. -1.
         -1   -1    0    0    0  501 -0.00000000000E+00 -0.00000000000E+00 -0.44452431394E+02  0.44452431394E+02  0.00000000000E+00 0.  1.
         23    2    1    2    0    0  0.65729234287E+02 -0.18368427802E+02  0.16761434911E+03  0.22072543167E+03  0.12636223636E+03 0.  0.
         24    2    1    2    0    0 -0.10563997164E+03  0.12078824901E+02  0.82185100372E+03  0.83251146557E+03  0.79564856373E+02 0.  0.
        -11    1    4    4    0    0 -0.16378772343E+02 -0.26836110728E+02  0.12515580636E+03  0.12904424392E+03  0.00000000000E+00 0.  1.
         12    1    4    4    0    0 -0.89261199300E+02  0.38914935629E+02  0.69669519735E+03  0.70346722165E+03  0.00000000000E+00 0. -1.
        -11    1    3    3    0    0  0.52053706500E+02 -0.55745501017E+02  0.38146000040E+02  0.85277585350E+02  0.00000000000E+00 0.  1.
         11    1    3    3    0    0  0.13675527787E+02  0.37377073215E+02  0.12946834907E+03  0.13544784632E+03  0.00000000000E+00 0. -1.
         21    1    1    2  502  501  0.39910737356E+02  0.62896029007E+01  0.19908679652E+02  0.45041998029E+02  0.00000000000E+00 0.  1.
<scales pt_clust_5="13000.00000" pt_clust_6="13000.00000" pt_clust_7="13000.00000" pt_clust_8="13000.00000" pt_clust_9="40.40329"></scales>
<clustering>
<clus scale="   40.403">  2  9  1 -1</clus>
<clus scale="   79.565">  5  6 -1 -1</clus>
<clus scale="  126.362">  7  8 -1 -1</clus>
<clus scale="  127.662">  1  5  2 -1</clus>
<clus scale="  127.662">  1  5  2 -1</clus>
</clustering>
</event>
<event>
 9    2  0.2869112E-005  0.1000043E+03  0.7546771E-02  0.1285921E+00
         -1   -1    0    0    0  501 -0.00000000000E+00  0.00000000000E+00  0.88409676438E+02  0.88409676438E+02  0.00000000000E+00 0.  1.
          2   -1    0    0  502    0  0.00000000000E+00 -0.00000000000E+00 -0.15725104001E+03  0.15725104001E+03  0.00000000000E+00 0. -1.
         24    2    1    2    0    0 -0.18849535531E+02 -0.15817848376E+02  0.16228895559E+02  0.85007923523E+02  0.79733686066E+02 0.  0.
         23    2    1    2    0    0  0.35219284289E+02  0.34876627957E+02 -0.87219092009E+02  0.13543725731E+03  0.90990678055E+02 0.  0.
        -13    1    3    3    0    0 -0.30121989895E+01 -0.46897089528E+02  0.17386553542E+02  0.50106911629E+02  0.00000000000E+00 0.  1.
         14    1    3    3    0    0 -0.15837336541E+02  0.31079241151E+02 -0.11576579833E+01  0.34901011894E+02  0.00000000000E+00 0. -1.
        -13    1    4    4    0    0  0.55174488726E+02 -0.32708423366E+00 -0.23537438190E+02  0.59986183299E+02  0.00000000000E+00 0.  1.
         13    1    4    4    0    0 -0.19955204436E+02  0.35203712190E+02 -0.63681653818E+02  0.75451074009E+02  0.00000000000E+00 0. -1.
         21    1    1    2  502  501 -0.16369748759E+02 -0.19058779580E+02  0.21488328816E+01  0.25215535613E+02  0.00000000000E+00 0.  1.
<scales pt_clust_5="13000.00000" pt_clust_6="13000.00000" pt_clust_7="13000.00000" pt_clust_8="13000.00000" pt_clust_9="25.12381"></scales>
<clustering>
<clus scale="   25.124">  1  9  2 -1</clus>
<clus scale="   79.734">  5  6 -1 -1</clus>
<clus scale="   89.883">  1  5  2 -1</clus>
<clus scale="   90.991">  7  8 -1 -1</clus>
<clus scale="  100.004">  2  5  1 -1</clus>
</clustering>
</event>
<event>
 9    2  0.2869112E-005  0.1001431E+03  0.7546771E-02  0.1289751E+00
          2   -1    0    0  502    0  0.00000000000E+00  0.00000000000E+00  0.12045020484E+04  0.12045020484E+04  0.00000000000E+00 0. -1.
         -1   -1    0    0    0  501 -0.00000000000E+00 -0.00000000000E+00 -0.20290535995E+03  0.20290535995E+03  0.00000000000E+00 0.  1.
         23    2    1    2    0    0 -0.21173007432E+02  0.28695862821E+01 -0.13496572322E+03  0.16773716210E+03  0.97280410858E+02 0.  0.
         24    2    1    2    0    0 -0.65926917906E+01 -0.23110573640E+02  0.11807532972E+04  0.11836928759E+04  0.79830529938E+02 0.  0.
        -11    1    4    4    0    0  0.33832698923E+00 -0.21827429935E+02  0.80226493497E+02  0.83143498973E+02  0.00000000000E+00 0.  1.
         12    1    4    4    0    0 -0.69310187799E+01 -0.12831437051E+01  0.11005268037E+04  0.11005493770E+04  0.00000000000E+00 0. -1.
        -11    1    3    3    0    0  0.81706247187E+00  0.31145323175E+02 -0.33517051536E+01  0.31335804987E+02  0.00000000000E+00 0.  1.
         11    1    3    3    0    0 -0.21990069904E+02 -0.28275736893E+02 -0.13161401807E+03  0.13640135712E+03  0.00000000000E+00 0. -1.
         21    1    1    2  502  501  0.27765699223E+02  0.20240987358E+02 -0.44190885522E+02  0.55977370301E+02  0.00000000000E+00 0.  1.
<scales pt_clust_5="13000.00000" pt_clust_6="13000.00000" pt_clust_7="13000.00000" pt_clust_8="13000.00000" pt_clust_9="34.36032"></scales>
<clustering>
<clus scale="   34.360">  2  9  1 -1</clus>
<clus scale="   79.831">  5  6 -1 -1</clus>
<clus scale="   83.295">  1  5  2 -1</clus>
<clus scale="   97.280">  7  8 -1 -1</clus>
<clus scale="   83.295">  1  5  2 -1</clus>
</clustering>
</event>
<event>
 9    2  0.2869112E-005  0.1136812E+03  0.7546771E-02  0.1258587E+00
          2   -1    0    0  502    0  0.00000000000E+00  0.00000000000E+00  0.61323315230E+02  0.61323315230E+02  0.00000000000E+00 0. -1.
         -1   -1    0    0    0  501 -0.00000000000E+00 -0.00000000000E+00 -0.36000493199E+03  0.36000493199E+03  0.00000000000E+00 0.  1.
         23    2    1    2    0    0  0.47323222036E+02  0.67195372220E+02 -0.99048154373E+02  0.15887873392E+03  0.93151542209E+02 0.  0.
         24    2    1    2    0    0 -0.58751859386E+02 -0.13540813809E+02 -0.72620819486E+02  0.12409620887E+03  0.80566438504E+02 0.  0.
        -11    1    4    4    0    0 -0.83052308053E+01 -0.40120056263E+02 -0.16738834314E+02  0.44258155717E+02  0.00000000000E+00 0.  1.
         12    1    4    4    0    0 -0.50446628580E+02  0.26579242453E+02 -0.55881985173E+02  0.79838053154E+02  0.00000000000E+00 0. -1.
        -13    1    3    3    0    0 -0.21623022557E+02  0.36449252879E+02 -0.12826155821E+02  0.44278814495E+02  0.00000000000E+00 0. -1.
         13    1    3    3    0    0  0.68946244593E+02  0.30746119341E+02 -0.86221998553E+02  0.11459991943E+03  0.00000000000E+00 0.  1.
         21    1    1    2  502  501  0.11428637350E+02 -0.53654558411E+02 -0.12701264290E+03  0.13835330442E+03  0.00000000000E+00 0.  1.
<scales pt_clust_5="13000.00000" pt_clust_6="13000.00000" pt_clust_7="13000.00000" pt_clust_8="13000.00000" pt_clust_9="54.85823"></scales>
<clustering>
<clus scale="   54.858">  2  9  1 -1</clus>
<clus scale="   80.566">  5  6 -1 -1</clus>
<clus scale="   93.152">  7  8 -1 -1</clus>
<clus scale="  103.620">  1  5  2 -1</clus>
<clus scale="  103.620">  1  5  2 -1</clus>
</clustering>
</event>
<event>
 9    2  0.2869112E-005  0.1005734E+03  0.7546771E-02  0.1286231E+00
          2   -1    0    0  502    0  0.00000000000E+00  0.00000000000E+00  0.15503357435E+03  0.15503357435E+03  0.00000000000E+00 0. -1.
         -1   -1    0    0    0  501 -0.00000000000E+00 -0.00000000000E+00 -0.19646494759E+03  0.19646494759E+03  0.00000000000E+00 0.  1.
         23    2    1    2    0    0  0.13977363123E+02  0.65654606172E+02 -0.11869877047E+03  0.16441921909E+03  0.91860696184E+02 0.  0.
         24    2    1    2    0    0 -0.22261855165E+02 -0.31579982953E+02  0.10930691317E+03  0.13957937298E+03  0.77727180411E+02 0.  0.
        -11    1    4    4    0    0 -0.24889675442E+02  0.15964178218E+02  0.13320751862E+02  0.32431363831E+02  0.00000000000E+00 0.  1.
         12    1    4    4    0    0  0.26278202768E+01 -0.47544161171E+02  0.95986161310E+02  0.10714800915E+03  0.00000000000E+00 0. -1.
        -13    1    3    3    0    0 -0.92682567946E+01 -0.20657757255E+02 -0.36675475126E+02  0.43101438428E+02  0.00000000000E+00 0.  1.
         13    1    3    3    0    0  0.23245619918E+02  0.86312363427E+02 -0.82023295341E+02  0.12131778066E+03  0.00000000000E+00 0. -1.
         21    1    1    2  502  501  0.82844920418E+01 -0.34074623219E+02 -0.32039515944E+02  0.47499929872E+02  0.00000000000E+00 0. -1.
<scales pt_clust_5="13000.00000" pt_clust_6="13000.00000" pt_clust_7="13000.00000" pt_clust_8="13000.00000" pt_clust_9="35.06726"></scales>
<clustering>
<clus scale="   35.067">  2  9  1 -1</clus>
<clus scale="   77.727">  5  6 -1 -1</clus>
<clus scale="   87.853">  1  5  2 -1</clus>
<clus scale="   91.861">  7  8 -1 -1</clus>
<clus scale="   87.853">  1  5  2 -1</clus>
</clustering>
</event>
<event>
 9    2  0.2869112E-005  0.1071035E+03  0.7546771E-02  0.1272932E+00
          2   -1    0    0  502    0  0.00000000000E+00  0.00000000000E+00  0.52223551841E+03  0.52223551841E+03  0.00000000000E+00 0. -1.
         -1   -1    0    0    0  501 -0.00000000000E+00 -0.00000000000E+00 -0.60889274588E+02  0.60889274588E+02  0.00000000000E+00 0.  1.
         23    2    1    2    0    0  0.65737423293E+02  0.47491515458E+01  0.37569017477E+02  0.12192797137E+03  0.95451746267E+02 0.  0.
         24    2    1    2    0    0 -0.44894211419E+02 -0.12799823621E+02  0.42844773067E+03  0.43836994246E+03  0.80133780875E+02 0.  0.
        -13    1    4    4    0    0 -0.97441917672E+01 -0.20850926788E+02  0.27747700001E+02  0.36050593289E+02  0.00000000000E+00 0.  1.
         14    1    4    4    0    0 -0.35150019652E+02  0.80511031675E+01  0.40070003067E+03  0.40231934918E+03  0.00000000000E+00 0. -1.
        -11    1    3    3    0    0  0.22065652251E+02  0.39661677730E+02 -0.12282845819E+02  0.47019251281E+02  0.00000000000E+00 0.  1.
         11    1    3    3    0    0  0.43671771042E+02 -0.34912526185E+02  0.49851863296E+02  0.74908720084E+02  0.00000000000E+00 0. -1.
         21    1    1    2  502  501 -0.20843211874E+02  0.80506720751E+01 -0.46705043211E+01  0.22826879171E+02  0.00000000000E+00 0.  1.
<scales pt_clust_5="13000.00000" pt_clust_6="13000.00000" pt_clust_7="13000.00000" pt_clust_8="13000.00000" pt_clust_9="22.34397"></scales>
<clustering>
<clus scale="   22.344">  2  9  1 -1</clus>
<clus scale="   80.134">  5  6 -1 -1</clus>
<clus scale="   93.710">  1  5  2 -1</clus>
<clus scale="   95.452">  7  8 -1 -1</clus>
<clus scale="   93.710">  1  5  2 -1</clus>
</clustering>
</event>
<event>
 9    2  0.2869112E-005  0.1558332E+03  0.7546771E-02  0.1195490E+00
          2   -1    0    0  502    0  0.00000000000E+00  0.00000000000E+00  0.11048822755E+04  0.11048822755E+04  0.00000000000E+00 0. -1.
         -1   -1    0    0    0  501 -0.00000000000E+00 -0.00000000000E+00 -0.90904071496E+02  0.90904071496E+02  0.00000000000E+00 0.  1.
         23    2    1    2    0    0  0.17972081051E+03 -0.57636024321E+02  0.34133322945E+03  0.40078395318E+03  0.92184177425E+02 0.  0.
         24    2    1    2    0    0 -0.93254717403E+02  0.62748317333E+02  0.69249426866E+03  0.70614005493E+03  0.80322297018E+02 0.  0.
        -11    1    4    4    0    0 -0.23538452685E+02 -0.19330773021E+02  0.15193463842E+03  0.15495764548E+03  0.00000000000E+00 0.  1.
         12    1    4    4    0    0 -0.69716264717E+02  0.82079090354E+02  0.54055963024E+03  0.55118240944E+03  0.00000000000E+00 0. -1.
        -13    1    3    3    0    0 -0.31151288622E+01 -0.23788548357E+02  0.43315194604E+02  0.49515706038E+02  0.00000000000E+00 0. -1.
         13    1    3    3    0    0  0.18283593937E+03 -0.33847475964E+02  0.29801803485E+03  0.35126824714E+03  0.00000000000E+00 0.  1.
         21    1    1    2  502  501 -0.86466093107E+02 -0.51122930115E+01 -0.19849294106E+02  0.88862338893E+02  0.00000000000E+00 0. -1.
<scales pt_clust_5="13000.00000" pt_clust_6="13000.00000" pt_clust_7="13000.00000" pt_clust_8="13000.00000" pt_clust_9="86.61709"></scales>
<clustering>
<clus scale="   80.322">  5  6 -1 -1</clus>
<clus scale="   86.617">  2  9  1 -1</clus>
<clus scale="   92.184">  7  8 -1 -1</clus>
<clus scale="  149.123">  1  5  2 -1</clus>
<clus scale="  149.123">  1  5  2 -1</clus>
</clustering>
</event>
<event>
 9    2  0.2869112E-005  0.1183779E+03  0.7546771E-02  0.1251438E+00
          2   -1    0    0  502    0  0.00000000000E+00  0.00000000000E+00  0.62478047663E+03  0.62478047663E+03  0.00000000000E+00 0. -1.
         -1   -1    0    0    0  501 -0.00000000000E+00 -0.00000000000E+00 -0.93349392125E+02  0.93349392125E+02  0.00000000000E+00 0.  1.
         23    2    1    2    0    0  0.13628606976E+02  0.55528041861E+02  0.30706536268E+02  0.11261042346E+03  0.92027787881E+02 0.  0.
         24    2    1    2    0    0 -0.26792887559E+02 -0.71880083210E+02  0.54555721481E+03  0.55601534919E+03  0.75071890303E+02 0.  0.
        -11    1    4    4    0    0  0.23401439457E+02 -0.99577109946E+01  0.89444283173E+02  0.92989586348E+02  0.00000000000E+00 0.  1.
         12    1    4    4    0    0 -0.50194327016E+02 -0.61922372215E+02  0.45611293164E+03  0.46302576284E+03  0.00000000000E+00 0. -1.
        -13    1    3    3    0    0 -0.99262101994E+01  0.69356380059E+02 -0.18828943980E+01  0.70088389874E+02  0.00000000000E+00 0.  1.
         13    1    3    3    0    0  0.23554817175E+02 -0.13828338199E+02  0.32589430666E+02  0.42522033590E+02  0.00000000000E+00 0. -1.
         21    1    1    2  502  501  0.13164280584E+02  0.16352041349E+02 -0.44832666570E+02  0.49504096107E+02  0.00000000000E+00 0.  1.
<scales pt_clust_5="13000.00000" pt_clust_6="13000.00000" pt_clust_7="13000.00000" pt_clust_8="13000.00000" pt_clust_9="20.99256"></scales>
<clustering>
<clus scale="   20.993">  2  9  1 -1</clus>
<clus scale="   75.072">  5  6 -1 -1</clus>
<clus scale="   92.028">  7  8 -1 -1</clus>
<clus scale="  105.735">  1  5  2 -1</clus>
<clus scale="  105.735">  1  5  2 -1</clus>
</clustering>
</event>
<event>
 9    2  0.2869112E-005  0.9785523E+02  0.7546771E-02  0.1289184E+00
         -1   -1    0    0    0  501 -0.00000000000E+00  0.00000000000E+00  0.41468697718E+02  0.41468697718E+02  0.00000000000E+00 0.  1.
          2   -1    0    0  502    0  0.00000000000E+00 -0.00000000000E+00 -0.52589642745E+03  0.52589642745E+03  0.00000000000E+00 0. -1.
         23    2    1    2    0    0 -0.14505957224E+02  0.25222515801E+02 -0.86107256711E+02  0.12747936059E+03  0.89386406234E+02 0.  0.
         24    2    1    2    0    0 -0.83526668847E+01 -0.43300253449E+02 -0.40019967872E+03  0.41068212254E+03  0.80965078457E+02 0.  0.
        -13    1    4    4    0    0 -0.10307907499E+02 -0.67001219418E+02 -0.27399953641E+03  0.28226080549E+03  0.00000000000E+00 0.  1.
         14    1    4    4    0    0  0.19552406144E+01  0.23700965969E+02 -0.12620014231E+03  0.12842131705E+03  0.00000000000E+00 0. -1.
        -13    1    3    3    0    0 -0.34290656121E+02  0.55588920338E+00 -0.89337440901E+02  0.95693972939E+02  0.00000000000E+00 0.  1.
         13    1    3    3    0    0  0.19784698897E+02  0.24666626597E+02  0.32301841901E+01  0.31785387650E+02  0.00000000000E+00 0. -1.
         21    1    1    2  502  501  0.22858624108E+02  0.18077737648E+02  0.18792056984E+01  0.29203642045E+02  0.00000000000E+00 0. -1.
<scales pt_clust_5="13000.00000" pt_clust_6="13000.00000" pt_clust_7="13000.00000" pt_clust_8="13000.00000" pt_clust_9="29.14312"></scales>
<clustering>
<clus scale="   29.143">  1  9  2 -1</clus>
<clus scale="   80.965">  5  6 -1 -1</clus>
<clus scale="   89.386">  7  8 -1 -1</clus>
<clus scale="   90.228">  2  5  1 -1</clus>
<clus scale="   90.228">  2  5  1 -1</clus>
</clustering>
</event>
<event>
 9    2  0.2869112E-005  0.1015523E+03  0.7546771E-02  0.1283123E+00
          2   -1    0    0  502    0  0.00000000000E+00  0.00000000000E+00  0.49379826539E+03  0.49379826539E+03  0.00000000000E+00 0. -1.
         -1   -1    0    0    0  501 -0.00000000000E+00 -0.00000000000E+00 -0.63535487743E+02  0.63535487743E+02  0.00000000000E+00 0.  1.
         23    2    1    2    0    0 -0.27601705640E+02 -0.15235107464E+02  0.13284643463E+02  0.97603630534E+02  0.91411291905E+02 0.  0.
         24    2    1    2    0    0  0.22429693055E+02  0.40422594522E+02  0.42344608795E+03  0.43321609529E+03  0.78946301628E+02 0.  0.
        -11    1    4    4    0    0  0.38768525253E+02  0.87399638528E+01  0.96942712278E+02  0.10477249153E+03  0.00000000000E+00 0.  1.
         12    1    4    4    0    0 -0.16338832199E+02  0.31682630669E+02  0.32650337567E+03  0.32844360375E+03  0.00000000000E+00 0. -1.
        -11    1    3    3    0    0 -0.31931309013E+01  0.37981334398E+02  0.64827594265E+01  0.38662695423E+02  0.00000000000E+00 0. -1.
         11    1    3    3    0    0 -0.24408574739E+02 -0.53216441862E+02  0.68018840362E+01  0.58940935110E+02  0.00000000000E+00 0.  1.
         21    1    1    2  502  501  0.51720125854E+01 -0.25187487058E+02 -0.64679537613E+01  0.26514027313E+02  0.00000000000E+00 0.  1.
<scales pt_clust_5="13000.00000" pt_clust_6="13000.00000" pt_clust_7="13000.00000" pt_clust_8="13000.00000" pt_clust_9="25.71302"></scales>
<clustering>
<clus scale="   25.713">  2  9  1 -1</clus>
<clus scale="   78.946">  5  6 -1 -1</clus>
<clus scale="   90.495">  1  5  2 -1</clus>
<clus scale="   91.411">  7  8 -1 -1</clus>
<clus scale="   90.495">  1  5  2 -1</clus>
</clustering>
</event>
<event>
 9    2  0.2869112E-005  0.1032442E+03  0.7546771E-02  0.1275905E+00
          2   -1    0    0  502    0  0.00000000000E+00  0.00000000000E+00  0.36922115058E+03  0.36922115058E+03  0.00000000000E+00 0. -1.
         -1   -1    0    0    0  501 -0.00000000000E+00 -0.00000000000E+00 -0.90677698920E+02  0.90677698920E+02  0.00000000000E+00 0.  1.
         24    2    1    2    0    0  0.80557830026E+01  0.34231306423E+02 -0.10674737061E+02  0.88727885165E+02  0.80758959969E+02 0.  0.
         23    2    1    2    0    0  0.49443112441E+02 -0.41510525978E+02  0.29393374032E+03  0.31302161832E+03  0.86126329901E+02 0.  0.
        -13    1    3    3    0    0 -0.23652651541E+02  0.41588041369E+02  0.11669349513E+02  0.49246185922E+02  0.00000000000E+00 0.  1.
         14    1    3    3    0    0  0.31708434543E+02 -0.73567349456E+01 -0.22344086575E+02  0.39481699243E+02  0.00000000000E+00 0. -1.
        -13    1    4    4    0    0 -0.10180353919E+02 -0.45367161005E+02  0.15400850290E+03  0.16087398133E+03  0.00000000000E+00 0. -1.
         13    1    4    4    0    0  0.59623466360E+02  0.38566350266E+01  0.13992523742E+03  0.15214763699E+03  0.00000000000E+00 0.  1.
         21    1    1    2  502  501 -0.57498895444E+02  0.72792195550E+01 -0.47155516031E+01  0.58149346011E+02  0.00000000000E+00 0.  1.
<scales pt_clust_5="13000.00000" pt_clust_6="13000.00000" pt_clust_7="13000.00000" pt_clust_8="13000.00000" pt_clust_9="57.95783"></scales>
<clustering>
<clus scale="   57.958">  2  9  1 -1</clus>
<clus scale="   80.759">  5  6 -1 -1</clus>
<clus scale="   86.126">  7  8 -1 -1</clus>
<clus scale="   98.811">  2  5  1 -1</clus>
<clus scale="  103.244">  1  5  2 -1</clus>
</clustering>
</event>
<event>
 9    2  0.2869112E-005  0.2965497E+03  0.7546771E-02  0.1086978E+00
          2   -1    0    0  502    0  0.00000000000E+00  0.00000000000E+00  0.38429683558E+03  0.38429683558E+03  0.00000000000E+00 0. -1.
         -1   -1    0    0    0  501 -0.00000000000E+00 -0.00000000000E+00 -0.18245752475E+03  0.18245752475E+03  0.00000000000E+00 0.  1.
         24    2    1    2    0    0 -0.10315432283E+03  0.99899485401E+02  0.67844827009E+02  0.17814676442E+03  0.80700852646E+02 0.  0.
         23    2    1    2    0    0 -0.18853491766E+02  0.78649326756E+02  0.11786580273E+03  0.17175345253E+03  0.95214128425E+02 0.  0.
        -13    1    3    3    0    0 -0.63789809455E+02  0.21216916466E+02  0.59494268244E+02  0.89771182951E+02  0.00000000000E+00 0.  1.
         14    1    3    3    0    0 -0.39364513379E+02  0.78682568935E+02  0.83505587650E+01  0.88375581466E+02  0.00000000000E+00 0. -1.
        -11    1    4    4    0    0 -0.15186354299E+02 -0.14548706602E+02  0.56031039708E+02  0.59847870735E+02  0.00000000000E+00 0.  1.
         11    1    4    4    0    0 -0.36671374665E+01  0.93198033358E+02  0.61834763023E+02  0.11190558180E+03  0.00000000000E+00 0. -1.
         21    1    1    2  502  501  0.12200781460E+03 -0.17854881216E+03  0.16128681089E+02  0.21685414338E+03  0.00000000000E+00 0.  1.
<scales pt_clust_5="13000.00000" pt_clust_6="13000.00000" pt_clust_7="13000.00000" pt_clust_8="13000.00000" pt_clust_9="216.25352"></scales>
<clustering>
<clus scale="   80.701">  5  6 -1 -1</clus>
<clus scale="   95.214">  7  8 -1 -1</clus>
<clus scale="  118.601">  5  7 -1 -1</clus>
<clus scale="  216.254">  2  9  1 -1</clus>
<clus scale="  296.550">  1  5  2 -1</clus>
</clustering>
</event>
<event>
 9    2  0.2869112E-005  0.1142181E+03  0.7546771E-02  0.1256779E+00
         -1   -1    0    0    0  501 -0.00000000000E+00  0.00000000000E+00  0.86193691796E+02  0.86193691796E+02  0.00000000000E+00 0.  1.
          2   -1    0    0  502    0  0.00000000000E+00 -0.00000000000E+00 -0.80404423791E+03  0.80404423791E+03  0.00000000000E+00 0. -1.
         23    2    1    2    0    0 -0.12572901773E+02 -0.36394594009E+02  0.14080885181E+02  0.99791194584E+02  0.90980035486E+02 0.  0.
         24    2    1    2    0    0  0.29866703479E+02  0.64546659342E+02 -0.74662539067E+03  0.75428699505E+03  0.80256499414E+02 0.  0.
        -11    1    4    4    0    0 -0.22236088982E+02  0.76799794861E+01 -0.85477490381E+02  0.88655665922E+02  0.00000000000E+00 0.  1.
         12    1    4    4    0    0  0.52102792460E+02  0.56866679856E+02 -0.66114790028E+03  0.66563132912E+03  0.00000000000E+00 0. -1.
        -13    1    3    3    0    0  0.34477332381E+01 -0.59766948701E+02  0.30346675752E+02  0.67118520177E+02  0.00000000000E+00 0.  1.
         13    1    3    3    0    0 -0.16020635011E+02  0.23372354692E+02 -0.16265790571E+02  0.32672674407E+02  0.00000000000E+00 0. -1.
         21    1    1    2  502  501 -0.17293801706E+02 -0.28152065333E+02  0.14693959376E+02  0.36159740072E+02  0.00000000000E+00 0.  1.
<scales pt_clust_5="13000.00000" pt_clust_6="13000.00000" pt_clust_7="13000.00000" pt_clust_8="13000.00000" pt_clust_9="33.03959"></scales>
<clustering>
<clus scale="   33.040">  1  9  2 -1</clus>
<clus scale="   80.256">  5  6 -1 -1</clus>
<clus scale="   90.980">  7  8 -1 -1</clus>
<clus scale="  105.875">  2  5  1 -1</clus>
<clus scale="  105.875">  2  5  1 -1</clus>
</clustering>
</event>
<event>
 9    2  0.2869112E-005  0.9627965E+02  0.7546771E-02  0.1293572E+00
         -1   -1    0    0    0  501 -0.00000000000E+00  0.00000000000E+00  0.61443064818E+02  0.61443064818E+02  0.00000000000E+00 0.  1.
          2   -1    0    0  502    0  0.00000000000E+00 -0.00000000000E+00 -0.52269554410E+03  0.52269554410E+03  0.00000000000E+00 0. -1.
         23    2    1    2    0    0  0.17266824462E+01  0.74129647343E+01 -0.19053375413E+02  0.92318926303E+02  0.90010108103E+02 0.  0.
         24    2    1    2    0    0  0.85791369865E+00  0.39327754066E+02 -0.43543486383E+03  0.44452137531E+03  0.80301458330E+02 0.  0.
        -13    1    4    4    0    0 -0.14200994441E+02 -0.22011645353E+02 -0.12018317399E+03  0.12300478074E+03  0.00000000000E+00 0.  1.
         14    1    4    4    0    0  0.15058908140E+02  0.61339399420E+02 -0.31525168984E+03  0.32151659457E+03  0.00000000000E+00 0. -1.
        -11    1    3    3    0    0 -0.18449556700E+02 -0.22134528977E+02 -0.41172845400E+02  0.50254618830E+02  0.00000000000E+00 0.  1.
         11    1    3    3    0    0  0.20176239146E+02  0.29547493711E+02  0.22119469987E+02  0.42064307473E+02  0.00000000000E+00 0. -1.
         21    1    1    2  502  501 -0.25845961449E+01 -0.46740718801E+02 -0.67642400442E+01  0.47298307312E+02  0.00000000000E+00 0.  1.
<scales pt_clust_5="13000.00000" pt_clust_6="13000.00000" pt_clust_7="13000.00000" pt_clust_8="13000.00000" pt_clust_9="46.81212"></scales>
<clustering>
<clus scale="   46.812">  1  9  2 -1</clus>
<clus scale="   80.301">  5  6 -1 -1</clus>
<clus scale="   87.271">  2  5  1 -1</clus>
<clus scale="   90.010">  7  8 -1 -1</clus>
<clus scale="   87.271">  2  5  1 -1</clus>
</clustering>
</event>
<event>
 9    2  0.2869112E-005  0.1259657E+03  0.7546771E-02  0.1236574E+00
         -1   -1    0    0    0  501 -0.00000000000E+00  0.00000000000E+00  0.36577178811E+02  0.36577178811E+02  0.00000000000E+00 0.  1.
          2   -1    0    0  502    0  0.00000000000E+00 -0.00000000000E+00 -0.73647143446E+03  0.73647143446E+03  0.00000000000E+00 0. -1.
         23    2    1    2    0    0  0.63373283704E+02  0.29537203455E+02 -0.12529361877E+03  0.16966618686E+03  0.90551115857E+02 0.  0.
         24    2    1    2    0    0 -0.85707401213E+02 -0.35548330776E+02 -0.56540467801E+03  0.57849242609E+03  0.79759605607E+02 0.  0.
        -13    1    4    4    0    0 -0.46055546438E+02 -0.35028552242E+02 -0.14347814268E+03  0.15470646482E+03  0.00000000000E+00 0.  1.
         14    1    4    4    0    0 -0.39651854775E+02 -0.51977853415E+00 -0.42192653532E+03  0.42378596127E+03  0.00000000000E+00 0. -1.
        -11    1    3    3    0    0  0.57362957704E+02 -0.45907013601E+01 -0.23542085609E+02  0.62175664455E+02  0.00000000000E+00 0.  1.
         11    1    3    3    0    0  0.60103259997E+01  0.34127904815E+02 -0.10175153316E+03  0.10749052240E+03  0.00000000000E+00 0. -1.
         21    1    1    2  502  501  0.22334117509E+02  0.60111273209E+01 -0.91959588721E+01  0.24890000324E+02  0.00000000000E+00 0.  1.
<scales pt_clust_5="13000.00000" pt_clust_6="13000.00000" pt_clust_7="13000.00000" pt_clust_8="13000.00000" pt_clust_9="23.12891"></scales>
<clustering>
<clus scale="   23.129">  1  9  2 -1</clus>
<clus scale="   79.760">  5  6 -1 -1</clus>
<clus scale="   90.551">  7  8 -1 -1</clus>
<clus scale="  118.446">  2  5  1 -1</clus>
<clus scale="  118.446">  2  5  1 -1</clus>
</clustering>
</event>
<event>
 9    2  0.2869112E-005  0.1007237E+03  0.7546771E-02  0.1285661E+00
         -1   -1    0    0    0  501 -0.00000000000E+00  0.00000000000E+00  0.31483088428E+03  0.31483088428E+03  0.00000000000E+00 0.  1.
          2   -1    0    0  502    0  0.00000000000E+00 -0.00000000000E+00 -0.61452935343E+02  0.61452935343E+02  0.00000000000E+00 0. -1.
         23    2    1    2    0    0  0.71029260544E+01  0.13886630088E+02  0.19674655578E+03  0.21884316618E+03  0.94550696013E+02 0.  0.
         24    2    1    2    0    0 -0.23978991200E+02 -0.30295184784E+02 -0.63158393573E+01  0.90236514267E+02  0.81301589408E+02 0.  0.
        -11    1    4    4    0    0  0.10795157191E+02  0.20286518900E+02  0.12338027825E+02  0.26082660878E+02  0.00000000000E+00 0.  1.
         12    1    4    4    0    0 -0.34774148390E+02 -0.50581703683E+02 -0.18653867183E+02  0.64153853389E+02  0.00000000000E+00 0. -1.
        -11    1    3    3    0    0  0.52478832360E+01  0.50343880358E+02  0.15662144153E+03  0.16459745598E+03  0.00000000000E+00 0.  1.
         11    1    3    3    0    0  0.18550428184E+01 -0.36457250270E+02  0.40125114251E+02  0.54245710197E+02  0.00000000000E+00 0. -1.
         21    1    1    2  502  501  0.16876065145E+02  0.16408554696E+02  0.62947232517E+02  0.67204139185E+02  0.00000000000E+00 0.  1.
<scales pt_clust_5="13000.00000" pt_clust_6="13000.00000" pt_clust_7="13000.00000" pt_clust_8="13000.00000" pt_clust_9="23.53810"></scales>
<clustering>
<clus scale="   23.538">  1  9  2 -1</clus>
<clus scale="   81.302">  5  6 -1 -1</clus>
<clus scale="   88.405">  2  5  1 -1</clus>
<clus scale="   94.551">  7  8 -1 -1</clus>
<clus scale="   88.405">  2  5  1 -1</clus>
</clustering>
</event>
<event>
 9    2  0.2869112E-005  0.1150125E+03  0.7546771E-02  0.1256118E+00
          2   -1    0    0  502    0  0.00000000000E+00  0.00000000000E+00  0.43486691010E+03  0.43486691010E+03  0.00000000000E+00 0. -1.
         -1   -1    0    0    0  501 -0.00000000000E+00 -0.00000000000E+00 -0.46237965354E+02  0.46237965354E+02  0.00000000000E+00 0.  1.
         23    2    1    2    0    0 -0.43572328326E+02 -0.40007356286E+02  0.91664604209E+02  0.14282694901E+03  0.92184604714E+02 0.  0.
         24    2    1    2    0    0  0.76685609508E+02  0.87312621271E+01  0.24686619634E+03  0.27056893510E+03  0.79421106155E+02 0.  0.
        -13    1    4    4    0    0  0.56896130680E+02 -0.27412642357E+02  0.19085457479E+03  0.20103256295E+03  0.00000000000E+00 0.  1.
         14    1    4    4    0    0  0.19789478829E+02  0.36143904484E+02  0.56011621550E+02  0.69536372154E+02  0.00000000000E+00 0. -1.
        -11    1    3    3    0    0  0.20414942466E+02 -0.31192533652E+02  0.97940549247E+01  0.38544358127E+02  0.00000000000E+00 0. -1.
         11    1    3    3    0    0 -0.63987270792E+02 -0.88148226339E+01  0.81870549285E+02  0.10428259088E+03  0.00000000000E+00 0.  1.
         21    1    1    2  502  501 -0.33113281182E+02  0.31276094159E+02  0.50098144197E+02  0.67708991342E+02  0.00000000000E+00 0. -1.
<scales pt_clust_5="13000.00000" pt_clust_6="13000.00000" pt_clust_7="13000.00000" pt_clust_8="13000.00000" pt_clust_9="45.54869"></scales>
<clustering>
<clus scale="   45.549">  2  9  1 -1</clus>
<clus scale="   79.421">  5  6 -1 -1</clus>
<clus scale="   92.185">  7  8 -1 -1</clus>
<clus scale="  105.060">  1  5  2 -1</clus>
<clus scale="  105.060">  1  5  2 -1</clus>
</clustering>
</event>
<event>
 9    2  0.2869112E-005  0.1222136E+03  0.7546771E-02  0.1260129E+00
         -1   -1    0    0    0  501 -0.00000000000E+00  0.00000000000E+00  0.12538448163E+03  0.12538448163E+03  0.00000000000E+00 0.  1.
          2   -1    0    0  502    0  0.00000000000E+00 -0.00000000000E+00 -0.69061281581E+03  0.69061281581E+03  0.00000000000E+00 0. -1.
         23    2    1    2    0    0 -0.59886552105E+01 -0.75168091156E+02  0.79999508986E+02  0.14541631773E+03  0.95183391958E+02 0.  0.
         24    2    1    2    0    0  0.24105635176E+02 -0.10902676356E+02 -0.43878862961E+03  0.44618501076E+03  0.76456865981E+02 0.  0.
        -13    1    4    4    0    0  0.20978346117E+02  0.31754759350E+02 -0.21617362350E+03  0.21949827162E+03  0.00000000000E+00 0.  1.
         14    1    4    4    0    0  0.31272890587E+01 -0.42657435706E+02 -0.22261500611E+03  0.22668673914E+03  0.00000000000E+00 0. -1.
        -13    1    3    3    0    0 -0.31856951134E+02  0.61722898738E+01  0.72139012407E+01  0.33241583430E+02  0.00000000000E+00 0.  1.
         13    1    3    3    0    0  0.25868295924E+02 -0.81340381030E+02  0.72785607745E+02  0.11217473430E+03  0.00000000000E+00 0. -1.
         21    1    1    2  502  501 -0.18116979965E+02  0.86070767512E+02 -0.20643921357E+03  0.22439596895E+03  0.00000000000E+00 0.  1.
<scales pt_clust_5="13000.00000" pt_clust_6="13000.00000" pt_clust_7="13000.00000" pt_clust_8="13000.00000" pt_clust_9="76.65686"></scales>
<clustering>
<clus scale="   76.457">  5  6 -1 -1</clus>
<clus scale="   80.905">  2  5  1 -1</clus>
<clus scale="   76.657">  2  9  1 -1</clus>
<clus scale="   95.183">  7  8 -1 -1</clus>
<clus scale="   80.905">  2  5  1 -1</clus>
</clustering>
</event>
<event>
 9    2  0.2869112E-005  0.9716026E+02  0.7546771E-02  0.1291912E+00
         -1   -1    0    0    0  501 -0.00000000000E+00  0.00000000000E+00  0.45373211647E+02  0.45373211647E+02  0.00000000000E+00 0.  1.
          2   -1    0    0  502    0  0.00000000000E+00 -0.00000000000E+00 -0.54693523458E+03  0.54693523458E+03  0.00000000000E+00 0. -1.
         23    2    1    2    0    0  0.70100830710E+00 -0.10478784523E+02 -0.36915842691E+02  0.99386886292E+02  0.91677027588E+02 0.  0.
         24    2    1    2    0    0 -0.78793507737E+01  0.34249333092E+02 -0.45894801461E+03  0.46744536180E+03  0.81466466550E+02 0.  0.
        -11    1    4    4    0    0  0.35450772318E+02  0.24835626027E+02 -0.19012184908E+03  0.19498687924E+03  0.00000000000E+00 0.  1.
         12    1    4    4    0    0 -0.43330123092E+02  0.94137070646E+01 -0.26882616553E+03  0.27245848256E+03  0.00000000000E+00 0. -1.
        -11    1    3    3    0    0  0.22090164894E+01 -0.40225114369E+02  0.12071621205E+02  0.42055482620E+02  0.00000000000E+00 0.  1.
         11    1    3    3    0    0 -0.15080081823E+01  0.29746329846E+02 -0.48987463896E+02  0.57331403672E+02  0.00000000000E+00 0. -1.
         21    1    1    2  502  501  0.71783424666E+01 -0.23770548569E+02 -0.56981656366E+01  0.25476198136E+02  0.00000000000E+00 0.  1.
<scales pt_clust_5="13000.00000" pt_clust_6="13000.00000" pt_clust_7="13000.00000" pt_clust_8="13000.00000" pt_clust_9="24.83078"></scales>
<clustering>
<clus scale="   24.831">  1  9  2 -1</clus>
<clus scale="   81.466">  5  6 -1 -1</clus>
<clus scale="   87.591">  2  5  1 -1</clus>
<clus scale="   91.677">  7  8 -1 -1</clus>
<clus scale="   87.591">  2  5  1 -1</clus>
</clustering>
</event>
<event>
 9    2  0.2869112E-005  0.1444699E+03  0.7546771E-02  0.1224835E+00
         -1   -1    0    0    0  501 -0.00000000000E+00  0.00000000000E+00  0.39788132793E+03  0.39788132793E+03  0.00000000000E+00 0.  1.
          2   -1    0    0  502    0  0.00000000000E+00 -0.00000000000E+00 -0.23247941442E+03  0.23247941442E+03  0.00000000000E+00 0. -1.
         23    2    1    2    0    0  0.64741129711E+02  0.46630880551E+02 -0.15637104543E+03  0.19699558668E+03  0.89384027815E+02 0.  0.
         24    2    1    2    0    0 -0.14114946594E+02  0.57779037387E+02  0.97864949387E+01  0.10049882349E+03  0.80415105302E+02 0.  0.
        -11    1    4    4    0    0 -0.58885288348E+01 -0.19794184983E+02 -0.46437661130E+01  0.21167170210E+02  0.00000000000E+00 0.  1.
         12    1    4    4    0    0 -0.82264177589E+01  0.77573222369E+02  0.14430261052E+02  0.79331653279E+02  0.00000000000E+00 0. -1.
        -11    1    3    3    0    0 -0.14263166080E+02  0.25709930871E+02 -0.13393707656E+02  0.32308355836E+02  0.00000000000E+00 0.  1.
         11    1    3    3    0    0  0.79004295791E+02  0.20920949680E+02 -0.14297733777E+03  0.16468723085E+03  0.00000000000E+00 0. -1.
         21    1    1    2  502  501 -0.50626183117E+02 -0.10440991794E+03  0.31198646400E+03  0.33286633218E+03  0.00000000000E+00 0.  1.
<scales pt_clust_5="13000.00000" pt_clust_6="13000.00000" pt_clust_7="13000.00000" pt_clust_8="13000.00000" pt_clust_9="113.49907"></scales>
<clustering>
<clus scale="   80.415">  5  6 -1 -1</clus>
<clus scale="   89.384">  7  8 -1 -1</clus>
<clus scale="  100.021">  2  5  1 -1</clus>
<clus scale="  113.499">  1  9  2 -1</clus>
<clus scale="  100.021">  2  5  1 -1</clus>
</clustering>
</event>
<event>
 9    2  0.2869112E-005  0.1721097E+03  0.7546771E-02  0.1177111E+00
         -1   -1    0    0    0  501 -0.00000000000E+00  0.00000000000E+00  0.27684940969E+03  0.27684940969E+03  0.00000000000E+00 0.  1.
          2   -1    0    0  502    0  0.00000000000E+00 -0.00000000000E+00 -0.23882720924E+03  0.23882720924E+03  0.00000000000E+00 0. -1.
         23    2    1    2    0    0 -0.36457558251E+02  0.16603064410E+03  0.16025807435E+03  0.25410131312E+03  0.99947479205E+02 0.  0.
         24    2    1    2    0    0  0.48840258477E+02 -0.12594465647E+03 -0.14153557058E+03  0.21539418455E+03  0.90082793348E+02 0.  0.
        -11    1    4    4    0    0  0.30960620664E+02 -0.83347360026E+02 -0.28637972090E+02  0.93410255864E+02  0.00000000000E+00 0.  1.
         12    1    4    4    0    0  0.17879637813E+02 -0.42597296442E+02 -0.11289759849E+03  0.12198392869E+03  0.00000000000E+00 0. -1.
        -13    1    3    3    0    0 -0.52914431344E+02  0.57515830115E+02  0.10591713844E+03  0.13162996609E+03  0.00000000000E+00 0.  1.
         13    1    3    3    0    0  0.16456873093E+02  0.10851481399E+03  0.54340935908E+02  0.12247134702E+03  0.00000000000E+00 0. -1.
         21    1    1    2  502  501 -0.12382700226E+02 -0.40085987633E+02  0.19299696686E+02  0.46181121268E+02  0.00000000000E+00 0.  1.
<scales pt_clust_5="13000.00000" pt_clust_6="13000.00000" pt_clust_7="13000.00000" pt_clust_8="13000.00000" pt_clust_9="41.95495"></scales>
<clustering>
<clus scale="   41.955">  1  9  2 -1</clus>
<clus scale="   90.083">  5  6 -1 -1</clus>
<clus scale="   99.947">  7  8 -1 -1</clus>
<clus scale="  166.575">  2  5  1 -1</clus>
<clus scale="  166.575">  2  5  1 -1</clus>
</clustering>
</event>
<event>
 9    2  0.2869112E-005  0.9385541E+02  0.7546771E-02  0.1300900E+00
         -1   -1    0    0    0  501 -0.00000000000E+00  0.00000000000E+00  0.24809883455E+03  0.24809883455E+03  0.00000000000E+00 0.  1.
          2   -1    0    0  502    0  0.00000000000E+00 -0.00000000000E+00 -0.39054289459E+03  0.39054289459E+03  0.00000000000E+00 0. -1.
         23    2    1    2    0    0 -0.39665528541E+02 -0.17523301269E+02  0.17848519901E+03  0.20527965274E+03  0.91664329596E+02 0.  0.
         24    2    1    2    0    0  0.19170078074E+02  0.42503513483E+01 -0.36975743322E+03  0.37876880501E+03  0.79747669835E+02 0.  0.
        -11    1    4    4    0    0 -0.31092553771E+02 -0.28905647300E+01 -0.15152475640E+03  0.15470893338E+03  0.00000000000E+00 0.  1.
         12    1    4    4    0    0  0.50262631845E+02  0.71409160784E+01 -0.21823267682E+03  0.22405987163E+03  0.00000000000E+00 0. -1.
        -13    1    3    3    0    0 -0.76626977538E+01 -0.30090816548E+02  0.16572071106E+03  0.16860465074E+03  0.00000000000E+00 0.  1.
         13    1    3    3    0    0 -0.32002830788E+02  0.12567515278E+02  0.12764487948E+02  0.36675001994E+02  0.00000000000E+00 0. -1.
         21    1    1    2  502  501  0.20495450468E+02  0.13272949921E+02  0.48828174171E+02  0.54593271402E+02  0.00000000000E+00 0. -1.
<scales pt_clust_5="13000.00000" pt_clust_6="13000.00000" pt_clust_7="13000.00000" pt_clust_8="13000.00000" pt_clust_9="24.41792"></scales>
<clustering>
<clus scale="   24.418">  1  9  2 -1</clus>
<clus scale="   79.748">  5  6 -1 -1</clus>
<clus scale="   82.257">  2  5  1 -1</clus>
<clus scale="   91.664">  7  8 -1 -1</clus>
<clus scale="   82.257">  2  5  1 -1</clus>
</clustering>
</event>
<event>
 9    2  0.2869112E-005  0.1242342E+03  0.7546771E-02  0.1246541E+00
         -1   -1    0    0    0  501 -0.00000000000E+00  0.00000000000E+00  0.25212322164E+03  0.25212322164E+03  0.00000000000E+00 0.  1.
          2   -1    0    0  502    0  0.00000000000E+00 -0.00000000000E+00 -0.15358228514E+03  0.15358228514E+03  0.00000000000E+00 0. -1.
         23    2    1    2    0    0 -0.40558732983E+02  0.25600729802E+02  0.73758537765E+02  0.13741886325E+03  0.10556142239E+03 0.  0.
         24    2    1    2    0    0  0.15594105967E+02 -0.70619288475E+02 -0.92459124348E+02  0.14024181559E+03  0.76738628606E+02 0.  0.
        -11    1    4    4    0    0 -0.23058854058E+02 -0.52444950123E+00 -0.94504542736E+01  0.24925827644E+02  0.00000000000E+00 0.  1.
         12    1    4    4    0    0  0.38652960025E+02 -0.70094838974E+02 -0.83008670074E+02  0.11531598795E+03  0.00000000000E+00 0. -1.
        -11    1    3    3    0    0  0.11833943323E+02 -0.33321472613E+02  0.12263863965E+02  0.37426796697E+02  0.00000000000E+00 0. -1.
         11    1    3    3    0    0 -0.52392676305E+02  0.58922202415E+02  0.61494673800E+02  0.99992066553E+02  0.00000000000E+00 0.  1.
         21    1    1    2  502  501  0.24964627016E+02  0.45018558672E+02  0.11724152308E+03  0.12804482794E+03  0.00000000000E+00 0.  1.
<scales pt_clust_5="13000.00000" pt_clust_6="13000.00000" pt_clust_7="13000.00000" pt_clust_8="13000.00000" pt_clust_9="51.47721"></scales>
<clustering>
<clus scale="   51.477">  1  9  2 -1</clus>
<clus scale="   76.739">  5  6 -1 -1</clus>
<clus scale="  100.895">  2  5  1 -1</clus>
<clus scale="  105.561">  7  8 -1 -1</clus>
<clus scale="  100.895">  2  5  1 -1</clus>
</clustering>
</event>
<event>
 9    2  0.2869112E-005  0.1333365E+03  0.7546771E-02  0.1230516E+00
         -1   -1    0    0    0  501 -0.00000000000E+00  0.00000000000E+00  0.94490625173E+02  0.94490625173E+02  0.00000000000E+00 0.  1.
          2   -1    0    0  502    0  0.00000000000E+00 -0.00000000000E+00 -0.36757313459E+03  0.36757313459E+03  0.00000000000E+00 0. -1.
         24    2    1    2    0    0  0.93629137602E+01 -0.98203997893E+02  0.17122325118E+02  0.11636338293E+03  0.59292271953E+02 0.  0.
         23    2    1    2    0    0  0.39228344255E+02  0.86226840061E+02 -0.24436030474E+03  0.27783076966E+03  0.92217390445E+02 0.  0.
        -11    1    3    3    0    0 -0.41372287115E+01 -0.24722942432E+02  0.31525774497E+02  0.40276730274E+02  0.00000000000E+00 0.  1.
         12    1    3    3    0    0  0.13500142472E+02 -0.73481055460E+02 -0.14403449380E+02  0.76086652656E+02  0.00000000000E+00 0. -1.
        -13    1    4    4    0    0  0.51307632125E+02  0.24130136581E+02 -0.58361119333E+02  0.81368033376E+02  0.00000000000E+00 0.  1.
         13    1    4    4    0    0 -0.12079287870E+02  0.62096703480E+02 -0.18599918540E+03  0.19646273629E+03  0.00000000000E+00 0. -1.
         21    1    1    2  502  501 -0.48591258015E+02  0.11977157832E+02 -0.45844529800E+02  0.67869607173E+02  0.00000000000E+00 0. -1.
<scales pt_clust_5="13000.00000" pt_clust_6="13000.00000" pt_clust_7="13000.00000" pt_clust_8="13000.00000" pt_clust_9="50.04561"></scales>
<clustering>
<clus scale="   50.046">  2  9  1 -1</clus>
<clus scale="   59.292">  5  6 -1 -1</clus>
<clus scale="   92.217">  7  8 -1 -1</clus>
<clus scale="  113.094">  1  5  2 -1</clus>
<clus scale="   50.046">  2  5  1 -1</clus>
</clustering>
</event>
<event>
 9    2  0.2869112E-005  0.1196029E+03  0.7546771E-02  0.1251435E+00
          2   -1    0    0  502    0  0.00000000000E+00  0.00000000000E+00  0.29946178697E+03  0.29946178697E+03  0.00000000000E+00 0. -1.
         -1   -1    0    0    0  501 -0.00000000000E+00 -0.00000000000E+00 -0.44352285789E+03  0.44352285789E+03  0.00000000000E+00 0.  1.
         23    2    1    2    0    0  0.36805123202E+01 -0.13438638766E+02 -0.94867199002E+02  0.13092626670E+03  0.89150202933E+02 0.  0.
         24    2    1    2    0    0 -0.43834148795E+02 -0.37016748497E+02  0.26464292967E+03  0.29166549644E+03  0.10835686096E+03 0.  0.
        -11    1    4    4    0    0  0.29471965203E+02 -0.15115566136E+00  0.25970694259E+02  0.39282267516E+02  0.00000000000E+00 0.  1.
         12    1    4    4    0    0 -0.73306113998E+02 -0.36865592835E+02  0.23867223541E+03  0.25238322892E+03  0.00000000000E+00 0. -1.
        -13    1    3    3    0    0  0.24757705588E+02  0.27522637169E+02 -0.17649301864E+02  0.41011430102E+02  0.00000000000E+00 0.  1.
         13    1    3    3    0    0 -0.21077193268E+02 -0.40961275935E+02 -0.77217897138E+02  0.89914836599E+02  0.00000000000E+00 0. -1.
         21    1    1    2  502  501  0.40153636475E+02  0.50455387263E+02 -0.31383680159E+03  0.32039288172E+03  0.00000000000E+00 0.  1.
<scales pt_clust_5="13000.00000" pt_clust_6="13000.00000" pt_clust_7="13000.00000" pt_clust_8="13000.00000" pt_clust_9="64.48303"></scales>
<clustering>
<clus scale="   64.483">  2  9  1 -1</clus>
<clus scale="   89.150">  7  8 -1 -1</clus>
<clus scale="  102.525">  2  7  1 -1</clus>
<clus scale="  108.357">  5  6 -1 -1</clus>
<clus scale="  119.603">  1  5  2 -1</clus>
</clustering>
</event>
<event>
 9    2  0.2869112E-005  0.1007460E+03  0.7546771E-02  0.1281672E+00
          2   -1    0    0  502    0  0.00000000000E+00  0.00000000000E+00  0.14071294545E+04  0.14071294545E+04  0.00000000000E+00 0. -1.
         -1   -1    0    0    0  501 -0.00000000000E+00 -0.00000000000E+00 -0.45693230931E+02  0.45693230931E+02  0.00000000000E+00 0.  1.
         23    2    1    2    0    0  0.22711012759E+02  0.33471808956E+02  0.23462377568E+02  0.10270949981E+03  0.91447285878E+02 0.  0.
         24    2    1    2    0    0 -0.42982272972E+02 -0.65229314817E+02  0.12359364640E+04  0.12413423692E+04  0.85379127100E+02 0.  0.
        -13    1    4    4    0    0 -0.11603154657E+02 -0.47104555995E+02  0.24572495739E+03  0.25046801608E+03  0.00000000000E+00 0.  1.
         14    1    4    4    0    0 -0.31379118316E+02 -0.18124758822E+02  0.99021150661E+03  0.99087435317E+03  0.00000000000E+00 0. -1.
        -11    1    3    3    0    0 -0.12207615579E+02  0.46200327375E+02 -0.14145181735E+02  0.49835552510E+02  0.00000000000E+00 0.  1.
         11    1    3    3    0    0  0.34918628338E+02 -0.12728518419E+02  0.37607559304E+02  0.52873947298E+02  0.00000000000E+00 0. -1.
         21    1    1    2  502  501  0.20271260214E+02  0.31757505862E+02  0.10203738202E+03  0.10877081639E+03  0.00000000000E+00 0.  1.
<scales pt_clust_5="13000.00000" pt_clust_6="13000.00000" pt_clust_7="13000.00000" pt_clust_8="13000.00000" pt_clust_9="37.67576"></scales>
<clustering>
<clus scale="   37.676">  1  9  2 -1</clus>
<clus scale="   85.379">  5  6 -1 -1</clus>
<clus scale="   91.447">  7  8 -1 -1</clus>
<clus scale="   95.272">  1  5  2 -1</clus>
<clus scale="   37.676">  1  5  2 -1</clus>
</clustering>
</event>
<event>
 9    2  0.2869112E-005  0.2576974E+03  0.7546771E-02  0.1109109E+00
          2   -1    0    0  502    0  0.00000000000E+00  0.00000000000E+00  0.26361514362E+04  0.26361514362E+04  0.00000000000E+00 0. -1.
         -1   -1    0    0    0  501 -0.00000000000E+00 -0.00000000000E+00 -0.37512145007E+02  0.37512145007E+02  0.00000000000E+00 0.  1.
         23    2    1    2    0    0 -0.22706691899E+03 -0.13139748213E+02  0.78024745454E+03  0.81784595749E+03  0.91399568846E+02 0.  0.
         24    2    1    2    0    0  0.24523083107E+03  0.36935342014E+02  0.18037636914E+04  0.18224988509E+04  0.80226100430E+02 0.  0.
        -11    1    4    4    0    0  0.11931723683E+03  0.43689275230E+02  0.68824185998E+03  0.69987299819E+03  0.00000000000E+00 0.  1.
         12    1    4    4    0    0  0.12591359425E+03 -0.67539332159E+01  0.11155218314E+04  0.11226258527E+04  0.00000000000E+00 0. -1.
        -11    1    3    3    0    0 -0.80776215565E+02  0.31473390871E+02  0.20418068016E+03  0.22182227455E+03  0.00000000000E+00 0.  1.
         11    1    3    3    0    0 -0.14629070343E+03 -0.44613139084E+02  0.57606677438E+03  0.59602368294E+03  0.00000000000E+00 0. -1.
         21    1    1    2  502  501 -0.18163912084E+02 -0.23795593801E+02  0.14628145238E+02  0.33318772781E+02  0.00000000000E+00 0. -1.
<scales pt_clust_5="13000.00000" pt_clust_6="13000.00000" pt_clust_7="13000.00000" pt_clust_8="13000.00000" pt_clust_9="29.93590"></scales>
<clustering>
<clus scale="   29.936">  2  9  1 -1</clus>
<clus scale="   80.226">  5  6 -1 -1</clus>
<clus scale="   91.400">  7  8 -1 -1</clus>
<clus scale="  253.949">  1  5  2 -1</clus>
<clus scale="  253.949">  1  5  2 -1</clus>
</clustering>
</event>
<event>
 9    2  0.7845618E-005  0.9893521E+02  0.7546771E-02  0.1288047E+00
         -1   -1    0    0    0  501 -0.00000000000E+00  0.00000000000E+00  0.99456185388E+02  0.99456185388E+02  0.00000000000E+00 0.  1.
          2   -1    0    0  502    0  0.00000000000E+00 -0.00000000000E+00 -0.35894722666E+03  0.35894722666E+03  0.00000000000E+00 0. -1.
         24    2    1    2    0    0  0.21051573323E+02  0.35442795398E+02  0.50399404148E+02  0.10311397824E+03  0.79956438672E+02 0.  0.
         23    2    1    2    0    0 -0.35413071364E+02 -0.18399901697E+02 -0.31681600526E+03  0.33195113415E+03  0.90700233032E+02 0.  0.
        -11    1    3    3    0    0  0.19531721201E+02  0.58801655206E+02  0.20760588659E+02  0.65346192158E+02  0.00000000000E+00 0.  1.
         12    1    3    3    0    0  0.15198521219E+01 -0.23358859808E+02  0.29638815489E+02  0.37767786083E+02  0.00000000000E+00 0. -1.
        -11    1    4    4    0    0 -0.28746168778E+02  0.32571591436E+02 -0.98327133945E+02  0.10749640021E+03  0.00000000000E+00 0.  1.
         11    1    4    4    0    0 -0.66669025869E+01 -0.50971493133E+02 -0.21848887131E+03  0.22445473394E+03  0.00000000000E+00 0. -1.
         21    1    1    2  502  501  0.14361498041E+02 -0.17042893701E+02  0.69255598367E+01  0.23338299654E+02  0.00000000000E+00 0.  1.
<scales pt_clust_5="13000.00000" pt_clust_6="13000.00000" pt_clust_7="13000.00000" pt_clust_8="13000.00000" pt_clust_9="22.28706"></scales>
<clustering>
<clus scale="   22.287">  1  9  2 -1</clus>
<clus scale="   79.956">  5  6 -1 -1</clus>
<clus scale="   89.189">  1  5  2 -1</clus>
<clus scale="   90.700">  7  8 -1 -1</clus>
<clus scale="   98.935">  2  5  1 -1</clus>
</clustering>
</event>
<event>
 9    2  0.2869112E-005  0.1810663E+03  0.7546771E-02  0.1167774E+00
         -1   -1    0    0    0  501 -0.00000000000E+00  0.00000000000E+00  0.26505598730E+03  0.26505598730E+03  0.00000000000E+00 0.  1.
          2   -1    0    0  502    0  0.00000000000E+00 -0.00000000000E+00 -0.17486057600E+04  0.17486057600E+04  0.00000000000E+00 0. -1.
         23    2    1    2    0    0  0.99084257410E+02 -0.12057670893E+03  0.21981544437E+03  0.28423267168E+03  0.90071911621E+02 0.  0.
         24    2    1    2    0    0 -0.11129364573E+03  0.17509965055E+03 -0.15549335141E+04  0.15708296091E+04  0.81493953484E+02 0.  0.
        -13    1    4    4    0    0  0.91718691040E+01  0.27927132975E+02 -0.13142117859E+03  0.13466838575E+03  0.00000000000E+00 0.  1.
         14    1    4    4    0    0 -0.12046551484E+03  0.14717251757E+03 -0.14235123355E+04  0.14361612233E+04  0.00000000000E+00 0. -1.
        -11    1    3    3    0    0  0.48514712160E+02 -0.83847911469E+02  0.19354785579E+03  0.21643687771E+03  0.00000000000E+00 0.  1.
         11    1    3    3    0    0  0.50569545251E+02 -0.36728797462E+02  0.26267588585E+02  0.67795793970E+02  0.00000000000E+00 0. -1.
         21    1    1    2  502  501  0.12209388321E+02 -0.54522941616E+02 -0.14843170299E+03  0.15859946651E+03  0.00000000000E+00 0. -1.
<scales pt_clust_5="13000.00000" pt_clust_6="13000.00000" pt_clust_7="13000.00000" pt_clust_8="13000.00000" pt_clust_9="55.87325"></scales>
<clustering>
<clus scale="   55.873">  2  9  1 -1</clus>
<clus scale="   81.494">  5  6 -1 -1</clus>
<clus scale="   90.072">  7  8 -1 -1</clus>
<clus scale="  176.956">  2  5  1 -1</clus>
<clus scale="   55.873">  2  5  1 -1</clus>
</clustering>
</event>
<event>
 9    2  0.2869112E-005  0.1718463E+03  0.7546771E-02  0.1207564E+00
         -1   -1    0    0    0  501 -0.00000000000E+00  0.00000000000E+00  0.23911919290E+03  0.23911919290E+03  0.00000000000E+00 0.  1.
          2   -1    0    0  502    0  0.00000000000E+00 -0.00000000000E+00 -0.71515652481E+03  0.71515652481E+03  0.00000000000E+00 0. -1.
         23    2    1    2    0    0 -0.80480444131E+02  0.11177749302E+03  0.12986765996E+03  0.20993729707E+03  0.90756541184E+02 0.  0.
         24    2    1    2    0    0 -0.21481700134E+02  0.21481973775E+02 -0.56524304174E+03  0.57168918507E+03  0.80036800639E+02 0.  0.
        -13    1    4    4    0    0  0.21314865530E+02 -0.15285251184E+02 -0.11668531311E+03  0.11959692593E+03  0.00000000000E+00 0.  1.
         14    1    4    4    0    0 -0.42796565664E+02  0.36767224959E+02 -0.44855772863E+03  0.45209225914E+03  0.00000000000E+00 0. -1.
        -13    1    3    3    0    0 -0.89909157494E+02  0.80748319593E+02  0.64536050839E+02  0.13699945101E+03  0.00000000000E+00 0. -1.
         13    1    3    3    0    0  0.94287133632E+01  0.31029173425E+02  0.65331609117E+02  0.72937846068E+02  0.00000000000E+00 0.  1.
         21    1    1    2  502  501  0.10196214426E+03 -0.13325946679E+03 -0.40661950133E+02  0.17264923557E+03  0.00000000000E+00 0.  1.
<scales pt_clust_5="13000.00000" pt_clust_6="13000.00000" pt_clust_7="13000.00000" pt_clust_8="13000.00000" pt_clust_9="145.92604"></scales>
<clustering>
<clus scale="   80.037">  5  6 -1 -1</clus>
<clus scale="   85.609">  2  5  1 -1</clus>
<clus scale="   90.757">  7  8 -1 -1</clus>
<clus scale="  145.926">  2  9  1 -1</clus>
<clus scale="   85.609">  2  5  1 -1</clus>
</clustering>
</event>
<event>
 9    2  0.2869112E-005  0.1213095E+03  0.7546771E-02  0.1245924E+00
         -1   -1    0    0    0  501 -0.00000000000E+00  0.00000000000E+00  0.79761875310E+02  0.79761875310E+02  0.00000000000E+00 0.  1.
          2   -1    0    0  502    0  0.00000000000E+00 -0.00000000000E+00 -0.88407363310E+03  0.88407363310E+03  0.00000000000E+00 0. -1.
         23    2    1    2    0    0 -0.52485583761E+02 -0.16418863084E+02  0.27856850015E+02  0.11320699378E+03  0.94950006739E+02 0.  0.
         24    2    1    2    0    0  0.71967168803E+02  0.26196027974E+02 -0.81611401563E+03  0.82355684976E+03  0.79613397186E+02 0.  0.
        -11    1    4    4    0    0 -0.97422052233E+01  0.23175233796E+02 -0.11653677379E+03  0.11921753927E+03  0.00000000000E+00 0.  1.
         12    1    4    4    0    0  0.81709374026E+02  0.30207941781E+01 -0.69957724184E+03  0.70433931049E+03  0.00000000000E+00 0. -1.
        -11    1    3    3    0    0 -0.64395897927E+02 -0.33849918795E+02  0.45402933604E+02  0.85755903890E+02  0.00000000000E+00 0.  1.
         11    1    3    3    0    0  0.11910314166E+02  0.17431055711E+02 -0.17546083588E+02  0.27451089888E+02  0.00000000000E+00 0. -1.
         21    1    1    2  502  501 -0.19481585042E+02 -0.97771648902E+01 -0.16054592176E+02  0.27071664873E+02  0.00000000000E+00 0. -1.
<scales pt_clust_5="13000.00000" pt_clust_6="13000.00000" pt_clust_7="13000.00000" pt_clust_8="13000.00000" pt_clust_9="21.79736"></scales>
<clustering>
<clus scale="   21.797">  1  9  2 -1</clus>
<clus scale="   79.613">  5  6 -1 -1</clus>
<clus scale="   94.950">  7  8 -1 -1</clus>
<clus scale="  109.721">  2  5  1 -1</clus>
<clus scale="  109.721">  2  5  1 -1</clus>
</clustering>
</event>
<event>
 9    2  0.2869112E-005  0.1180779E+03  0.7546771E-02  0.1250306E+00
          2   -1    0    0  502    0  0.00000000000E+00  0.00000000000E+00  0.13369027458E+04  0.13369027458E+04  0.00000000000E+00 0. -1.
         -1   -1    0    0    0  501 -0.00000000000E+00 -0.00000000000E+00 -0.44704579010E+02  0.44704579010E+02  0.00000000000E+00 0.  1.
         23    2    1    2    0    0  0.28297711423E+02 -0.35533805090E+02  0.20342006392E+03  0.22796514174E+03  0.92330773125E+02 0.  0.
         24    2    1    2    0    0  0.53208202889E+02  0.72833369861E+02  0.10483912015E+04  0.10553285350E+04  0.80364126075E+02 0.  0.
        -11    1    4    4    0    0  0.27931363360E+02 -0.54426476554E+01  0.12120335975E+03  0.12449914814E+03  0.00000000000E+00 0.  1.
         12    1    4    4    0    0  0.25276839529E+02  0.78276017517E+02  0.92718784173E+03  0.93082938683E+03  0.00000000000E+00 0. -1.
        -11    1    3    3    0    0 -0.25830917170E+02  0.10394478064E+02  0.31942702299E+02  0.42374729335E+02  0.00000000000E+00 0. -1.
         11    1    3    3    0    0  0.54128628593E+02 -0.45928283154E+02  0.17147736162E+03  0.18559041240E+03  0.00000000000E+00 0.  1.
         21    1    1    2  502  501 -0.81505914313E+02 -0.37299564772E+02  0.40386901394E+02  0.98313648108E+02  0.00000000000E+00 0.  1.
<scales pt_clust_5="13000.00000" pt_clust_6="13000.00000" pt_clust_7="13000.00000" pt_clust_8="13000.00000" pt_clust_9="89.63521"></scales>
<clustering>
<clus scale="   80.364">  5  6 -1 -1</clus>
<clus scale="   89.635">  2  9  1 -1</clus>
<clus scale="   92.331">  7  8 -1 -1</clus>
<clus scale="  108.976">  1  5  2 -1</clus>
<clus scale="  108.976">  1  5  2 -1</clus>
</clustering>
</event>
<event>
 9    2  0.2869112E-005  0.1120685E+03  0.7546771E-02  0.1260910E+00
         -1   -1    0    0    0  501 -0.00000000000E+00  0.00000000000E+00  0.10637930247E+03  0.10637930247E+03  0.00000000000E+00 0.  1.
          2   -1    0    0  502    0  0.00000000000E+00 -0.00000000000E+00 -0.30535731202E+03  0.30535731202E+03  0.00000000000E+00 0. -1.
         24    2    1    2    0    0 -0.34411147488E+02 -0.62450601004E+02  0.47877938684E+02  0.11885481444E+03  0.82158172233E+02 0.  0.
         23    2    1    2    0    0 -0.15116546312E+02  0.32965358292E+02 -0.14864333844E+03  0.17900428378E+03  0.92911068931E+02 0.  0.
        -13    1    3    3    0    0 -0.51103019593E+02 -0.18796505436E+02  0.47282984493E+02  0.72114546735E+02  0.00000000000E+00 0.  1.
         14    1    3    3    0    0  0.16691872105E+02 -0.43654095568E+02  0.59495419080E+00  0.46740267701E+02  0.00000000000E+00 0. -1.
        -13    1    4    4    0    0  0.14211875258E+02  0.26409595771E+02 -0.14576080113E+03  0.14881416362E+03  0.00000000000E+00 0. -1.
         13    1    4    4    0    0 -0.29328421570E+02  0.65557625213E+01 -0.28825373067E+01  0.30190120161E+02  0.00000000000E+00 0.  1.
         21    1    1    2  502  501  0.49527693799E+02  0.29485242712E+02 -0.98212609791E+02  0.11387751627E+03  0.00000000000E+00 0.  1.
<scales pt_clust_5="13000.00000" pt_clust_6="13000.00000" pt_clust_7="13000.00000" pt_clust_8="13000.00000" pt_clust_9="57.64002"></scales>
<clustering>
<clus scale="   57.640">  2  9  1 -1</clus>
<clus scale="   82.158">  5  6 -1 -1</clus>
<clus scale="   92.911">  7  8 -1 -1</clus>
<clus scale="  103.329">  1  5  2 -1</clus>
<clus scale="   57.640">  2  5  1 -1</clus>
</clustering>
</event>
<event>
 9    2  0.2869112E-005  0.9303368E+02  0.7546771E-02  0.1301224E+00
          2   -1    0    0  502    0  0.00000000000E+00  0.00000000000E+00  0.83050235903E+02  0.83050235903E+02  0.00000000000E+00 0. -1.
         -1   -1    0    0    0  501 -0.00000000000E+00 -0.00000000000E+00 -0.25600551426E+03  0.25600551426E+03  0.00000000000E+00 0.  1.
         24    2    1    2    0    0  0.49888559147E+02 -0.31402792972E+02 -0.14221364825E+03  0.17333712173E+03  0.79661987676E+02 0.  0.
         23    2    1    2    0    0 -0.19514790734E+02 -0.16276688547E+02  0.13795544096E+02  0.93750172486E+02  0.89179707091E+02 0.  0.
        -13    1    3    3    0    0  0.38653226719E+02 -0.51988441048E+02 -0.61649420379E+02  0.89428859835E+02  0.00000000000E+00 0.  1.
         14    1    3    3    0    0  0.11235332428E+02  0.20585648076E+02 -0.80564227874E+02  0.83908261896E+02  0.00000000000E+00 0. -1.
        -13    1    4    4    0    0  0.25490229082E+02 -0.27543396730E+02 -0.13546655040E+02  0.39898650915E+02  0.00000000000E+00 0.  1.
         13    1    4    4    0    0 -0.45005019816E+02  0.11266708183E+02  0.27342199136E+02  0.53851521571E+02  0.00000000000E+00 0. -1.
         21    1    1    2  502  501 -0.30373768413E+02  0.47679481519E+02 -0.44537174199E+02  0.71968455946E+02  0.00000000000E+00 0. -1.
<scales pt_clust_5="13000.00000" pt_clust_6="13000.00000" pt_clust_7="13000.00000" pt_clust_8="13000.00000" pt_clust_9="56.53228"></scales>
<clustering>
<clus scale="   56.532">  2  9  1 -1</clus>
<clus scale="   79.662">  5  6 -1 -1</clus>
<clus scale="   83.954">  2  5  1 -1</clus>
<clus scale="   89.180">  7  8 -1 -1</clus>
<clus scale="   93.034">  1  5  2 -1</clus>
</clustering>
</event>
<event>
 9    2  0.2869112E-005  0.1116757E+03  0.7546771E-02  0.1261505E+00
         -1   -1    0    0    0  501 -0.00000000000E+00  0.00000000000E+00  0.82358272333E+02  0.82358272333E+02  0.00000000000E+00 0.  1.
          2   -1    0    0  502    0  0.00000000000E+00 -0.00000000000E+00 -0.63863399253E+03  0.63863399253E+03  0.00000000000E+00 0. -1.
         23    2    1    2    0    0 -0.35115120791E+02  0.78033624467E+01  0.79020223845E+01  0.98162462088E+02  0.90991553628E+02 0.  0.
         24    2    1    2    0    0  0.43807754609E+02  0.53752254880E+02 -0.54855262938E+03  0.55872988023E+03  0.80378278147E+02 0.  0.
        -11    1    4    4    0    0 -0.25963922005E+01  0.58324733242E+02 -0.26365469727E+03  0.27004132120E+03  0.00000000000E+00 0.  1.
         12    1    4    4    0    0  0.46404146809E+02 -0.45724783616E+01 -0.28489793211E+03  0.28868855903E+03  0.00000000000E+00 0. -1.
        -11    1    3    3    0    0 -0.41322320963E+02 -0.15432356482E+02  0.38979934191E+02  0.58865330254E+02  0.00000000000E+00 0.  1.
         11    1    3    3    0    0  0.62072001720E+01  0.23235718929E+02 -0.31077911806E+02  0.39297131834E+02  0.00000000000E+00 0. -1.
         21    1    1    2  502  501 -0.86926338172E+01 -0.61555617327E+02 -0.15625113200E+02  0.64099922540E+02  0.00000000000E+00 0.  1.
<scales pt_clust_5="13000.00000" pt_clust_6="13000.00000" pt_clust_7="13000.00000" pt_clust_8="13000.00000" pt_clust_9="62.16636"></scales>
<clustering>
<clus scale="   62.166">  1  9  2 -1</clus>
<clus scale="   80.378">  5  6 -1 -1</clus>
<clus scale="   90.992">  7  8 -1 -1</clus>
<clus scale="  103.212">  2  5  1 -1</clus>
<clus scale="  103.212">  2  5  1 -1</clus>
</clustering>
</event>
<event>
 9    2  0.2869112E-005  0.1298260E+03  0.7546771E-02  0.1231371E+00
         -1   -1    0    0    0  501 -0.00000000000E+00  0.00000000000E+00  0.26824890235E+03  0.26824890235E+03  0.00000000000E+00 0.  1.
          2   -1    0    0  502    0  0.00000000000E+00 -0.00000000000E+00 -0.55749438122E+03  0.55749438122E+03  0.00000000000E+00 0. -1.
         23    2    1    2    0    0 -0.86183805515E+01 -0.96692987183E+02  0.22698061896E+03  0.26267117616E+03  0.89733690153E+02 0.  0.
         24    2    1    2    0    0 -0.22606757086E+02  0.76633386572E+02 -0.50902332124E+03  0.52526633023E+03  0.10205995644E+03 0.  0.
        -11    1    4    4    0    0  0.18905880440E+01 -0.24879963061E+02 -0.86232322964E+02  0.89769707634E+02  0.00000000000E+00 0.  1.
         12    1    4    4    0    0 -0.24497345129E+02  0.10151334963E+03 -0.42279099827E+03  0.43549662260E+03  0.00000000000E+00 0. -1.
        -13    1    3    3    0    0  0.20253976068E+02 -0.23624008148E+02  0.14811935804E+03  0.15135277181E+03  0.00000000000E+00 0. -1.
         13    1    3    3    0    0 -0.28872356620E+02 -0.73068979036E+02  0.78861260923E+02  0.11131840436E+03  0.00000000000E+00 0.  1.
         21    1    1    2  502  501  0.31225137637E+02  0.20059600611E+02 -0.72027765952E+01  0.37805777175E+02  0.00000000000E+00 0.  1.
<scales pt_clust_5="13000.00000" pt_clust_6="13000.00000" pt_clust_7="13000.00000" pt_clust_8="13000.00000" pt_clust_9="37.11330"></scales>
<clustering>
<clus scale="   37.113">  1  9  2 -1</clus>
<clus scale="   89.734">  7  8 -1 -1</clus>
<clus scale="  102.060">  5  6 -1 -1</clus>
<clus scale="  120.377">  1  7  2 -1</clus>
<clus scale="  129.826">  2  5  1 -1</clus>
</clustering>
</event>
<event>
 9    2  0.2869112E-005  0.9928898E+02  0.7546771E-02  0.1285607E+00
          2   -1    0    0  502    0  0.00000000000E+00  0.00000000000E+00  0.54186519274E+03  0.54186519274E+03  0.00000000000E+00 0. -1.
         -1   -1    0    0    0  501 -0.00000000000E+00 -0.00000000000E+00 -0.40391869881E+02  0.40391869881E+02  0.00000000000E+00 0.  1.
         24    2    1    2    0    0 -0.15056579372E+02  0.15489620967E+02  0.27379987623E+02  0.87902890747E+02  0.80688447373E+02 0.  0.
         23    2    1    2    0    0  0.35508360195E+02 -0.34533017002E+02  0.43258036786E+03  0.44431166262E+03  0.88508225507E+02 0.  0.
        -13    1    3    3    0    0 -0.32533104837E+02  0.40984030537E+02  0.13628351443E+02  0.54072411010E+02  0.00000000000E+00 0.  1.
         14    1    3    3    0    0  0.17476525465E+02 -0.25494409570E+02  0.13751636180E+02  0.33830479738E+02  0.00000000000E+00 0. -1.
        -11    1    4    4    0    0  0.49833215137E+02  0.13191923700E+02  0.22672587252E+03  0.23251235978E+03  0.00000000000E+00 0. -1.
         11    1    4    4    0    0 -0.14324854942E+02 -0.47724940701E+02  0.20585449534E+03  0.21179930284E+03  0.00000000000E+00 0.  1.
         21    1    1    2  502  501 -0.20451780823E+02  0.19043396034E+02  0.41512967383E+02  0.50042509252E+02  0.00000000000E+00 0.  1.
<scales pt_clust_5="13000.00000" pt_clust_6="13000.00000" pt_clust_7="13000.00000" pt_clust_8="13000.00000" pt_clust_9="27.94506"></scales>
<clustering>
<clus scale="   27.945">  2  9  1 -1</clus>
<clus scale="   80.688">  5  6 -1 -1</clus>
<clus scale="   88.508">  7  8 -1 -1</clus>
<clus scale="   92.386">  2  5  1 -1</clus>
<clus scale="   99.289">  1  5  2 -1</clus>
</clustering>
</event>
<event>
 9    2  0.2869112E-005  0.9122636E+02  0.7546771E-02  0.1305229E+00
          4   -1    0    0  502    0  0.00000000000E+00  0.00000000000E+00  0.52978659218E+02  0.52978659218E+02  0.00000000000E+00 0. -1.
         -3   -1    0    0    0  501 -0.00000000000E+00 -0.00000000000E+00 -0.24414226595E+03  0.24414226595E+03  0.00000000000E+00 0.  1.
         23    2    1    2    0    0 -0.14847709713E+02 -0.92425244444E+01 -0.90572471449E+02  0.12963515795E+03  0.91082505739E+02 0.  0.
         24    2    1    2    0    0 -0.12610790246E+01 -0.92132251264E+01 -0.23152940307E+02  0.86265192184E+02  0.82578150259E+02 0.  0.
        -13    1    4    4    0    0 -0.15304473911E+02  0.27383966489E+02 -0.33325262248E+02  0.45767692166E+02  0.00000000000E+00 0.  1.
         14    1    4    4    0    0  0.14043394887E+02 -0.36597191615E+02  0.10172321941E+02  0.40497500018E+02  0.00000000000E+00 0. -1.
        -11    1    3    3    0    0  0.63354833106E+01  0.38987663581E+02 -0.31787339178E+02  0.50701195176E+02  0.00000000000E+00 0.  1.
         11    1    3    3    0    0 -0.21183193024E+02 -0.48230188026E+02 -0.58785132272E+02  0.78933962779E+02  0.00000000000E+00 0. -1.
         21    1    1    2  502  501  0.16108788738E+02  0.18455749571E+02 -0.77438194974E+02  0.81220575027E+02  0.00000000000E+00 0.  1.
<scales pt_clust_5="13000.00000" pt_clust_6="13000.00000" pt_clust_7="13000.00000" pt_clust_8="13000.00000" pt_clust_9="24.49710"></scales>
<clustering>
<clus scale="   24.497">  2  9  1 -1</clus>
<clus scale="   82.578">  5  6 -1 -1</clus>
<clus scale="   82.737">  1  5  2 -1</clus>
<clus scale="   91.083">  7  8 -1 -1</clus>
<clus scale="   82.737">  1  5  2 -1</clus>
</clustering>
</event>
<event>
 9    2  0.2869112E-005  0.4485688E+03  0.7546771E-02  0.1028234E+00
         -1   -1    0    0    0  501 -0.00000000000E+00  0.00000000000E+00  0.11205223812E+04  0.11205223812E+04  0.00000000000E+00 0.  1.
          2   -1    0    0  502    0  0.00000000000E+00 -0.00000000000E+00 -0.31349450780E+03  0.31349450780E+03  0.00000000000E+00 0. -1.
         23    2    1    2    0    0 -0.88838045989E+02  0.42250455581E+03  0.83157970096E+03  0.94107044315E+03  0.87672583074E+02 0.  0.
         24    2    1    2    0    0  0.11721353668E+03 -0.42608032393E+03 -0.53104624484E+02  0.45253336874E+03  0.81748963657E+02 0.  0.
        -13    1    4    4    0    0  0.37654856291E+01 -0.75157593783E+02 -0.35771054147E+02  0.83321132374E+02  0.00000000000E+00 0.  1.
         14    1    4    4    0    0  0.11344805105E+03 -0.35092273015E+03 -0.17333570337E+02  0.36921223636E+03  0.00000000000E+00 0. -1.
        -13    1    3    3    0    0 -0.39965132728E+02  0.30841340644E+03  0.65676362584E+03  0.72667358651E+03  0.00000000000E+00 0.  1.
         13    1    3    3    0    0 -0.48872913261E+02  0.11409114938E+03  0.17481607512E+03  0.21439685664E+03  0.00000000000E+00 0. -1.
         21    1    1    2  502  501 -0.28375490686E+02  0.35757681170E+01  0.28552796879E+02  0.40413077079E+02  0.00000000000E+00 0. -1.
<scales pt_clust_5="13000.00000" pt_clust_6="13000.00000" pt_clust_7="13000.00000" pt_clust_8="13000.00000" pt_clust_9="28.59991"></scales>
<clustering>
<clus scale="   28.600">  1  9  2 -1</clus>
<clus scale="   81.749">  5  6 -1 -1</clus>
<clus scale="   87.673">  7  8 -1 -1</clus>
<clus scale="  447.449">  2  5  1 -1</clus>
<clus scale="  447.449">  2  5  1 -1</clus>
</clustering>
</event>
<event>
 9    2  0.2869112E-005  0.1245967E+03  0.7546771E-02  0.1240650E+00
         -1   -1    0    0    0  501 -0.00000000000E+00  0.00000000000E+00  0.62286149874E+02  0.62286149874E+02  0.00000000000E+00 0.  1.
          2   -1    0    0  502    0  0.00000000000E+00 -0.00000000000E+00 -0.68854328483E+03  0.68854328483E+03  0.00000000000E+00 0. -1.
         23    2    1    2    0    0 -0.17478165082E+02 -0.82114443692E+02 -0.72554078074E+02  0.14725884835E+03  0.96813253505E+02 0.  0.
         24    2    1    2    0    0 -0.34734682278E+02  0.72051914701E+02 -0.53538114365E+03  0.54732888987E+03  0.80857703082E+02 0.  0.
        -11    1    4    4    0    0 -0.53531505802E+02  0.27430018559E+02 -0.21293340647E+03  0.22126604715E+03  0.00000000000E+00 0.  1.
         12    1    4    4    0    0  0.18796823524E+02  0.44621896141E+02 -0.32244773718E+03  0.32606284272E+03  0.00000000000E+00 0. -1.
        -11    1    3    3    0    0  0.36808108549E+02 -0.46514872008E+02 -0.52772461774E+02  0.79393972659E+02  0.00000000000E+00 0. -1.
         11    1    3    3    0    0 -0.54286273631E+02 -0.35599571684E+02 -0.19781616300E+02  0.67864875689E+02  0.00000000000E+00 0.  1.
         21    1    1    2  502  501  0.52212847360E+02  0.10062528991E+02 -0.18321913236E+02  0.56241696487E+02  0.00000000000E+00 0. -1.
<scales pt_clust_5="13000.00000" pt_clust_6="13000.00000" pt_clust_7="13000.00000" pt_clust_8="13000.00000" pt_clust_9="53.17364"></scales>
<clustering>
<clus scale="   53.174">  1  9  2 -1</clus>
<clus scale="   80.858">  5  6 -1 -1</clus>
<clus scale="   96.813">  7  8 -1 -1</clus>
<clus scale="  112.648">  2  5  1 -1</clus>
<clus scale="  112.648">  2  5  1 -1</clus>
</clustering>
</event>
<event>
 9    2  0.2869112E-005  0.1025657E+03  0.7546771E-02  0.1281337E+00
         -1   -1    0    0    0  501 -0.00000000000E+00  0.00000000000E+00  0.31014256121E+02  0.31014256121E+02  0.00000000000E+00 0.  1.
          2   -1    0    0  502    0  0.00000000000E+00 -0.00000000000E+00 -0.59315452870E+03  0.59315452870E+03  0.00000000000E+00 0. -1.
         23    2    1    2    0    0 -0.24640520127E+01 -0.30752401821E+02 -0.94947591222E+02  0.13673617172E+03  0.93434221819E+02 0.  0.
         24    2    1    2    0    0 -0.20943966870E+02  0.40798441540E+02 -0.44205734393E+03  0.45164653411E+03  0.80416005082E+02 0.  0.
        -13    1    4    4    0    0 -0.18793967737E+02  0.31584896529E+02 -0.66585877983E+02  0.76055887732E+02  0.00000000000E+00 0.  1.
         14    1    4    4    0    0 -0.21499991333E+01  0.92135450111E+01 -0.37547146594E+03  0.37559064638E+03  0.00000000000E+00 0. -1.
        -11    1    3    3    0    0 -0.41746414833E+02  0.35821384243E+01 -0.22801184987E+02  0.47702084901E+02  0.00000000000E+00 0.  1.
         11    1    3    3    0    0  0.39282362820E+02 -0.34334540246E+02 -0.72146406235E+02  0.89034086817E+02  0.00000000000E+00 0. -1.
         21    1    1    2  502  501  0.23408018883E+02 -0.10046039718E+02 -0.25135337428E+02  0.35786078992E+02  0.00000000000E+00 0. -1.
<scales pt_clust_5="13000.00000" pt_clust_6="13000.00000" pt_clust_7="13000.00000" pt_clust_8="13000.00000" pt_clust_9="25.47270"></scales>
<clustering>
<clus scale="   25.473">  1  9  2 -1</clus>
<clus scale="   80.416">  5  6 -1 -1</clus>
<clus scale="   90.865">  2  5  1 -1</clus>
<clus scale="   93.434">  7  8 -1 -1</clus>
<clus scale="   90.865">  2  5  1 -1</clus>
</clustering>
</event>
<event>
 9    2  0.2869112E-005  0.1049227E+03  0.7546771E-02  0.1274252E+00
         -1   -1    0    0    0  501 -0.00000000000E+00  0.00000000000E+00  0.78754640736E+02  0.78754640736E+02  0.00000000000E+00 0.  1.
          2   -1    0    0  502    0  0.00000000000E+00 -0.00000000000E+00 -0.43286670546E+03  0.43286670546E+03  0.00000000000E+00 0. -1.
         23    2    1    2    0    0  0.52525895721E+02 -0.60557626583E+02 -0.10232807642E+03  0.15818115015E+03  0.90133485350E+02 0.  0.
         24    2    1    2    0    0 -0.44652467505E+02  0.18059789064E+02 -0.28420038802E+03  0.29941353562E+03  0.80985220419E+02 0.  0.
        -11    1    4    4    0    0  0.23263440470E+02  0.11580987685E+02 -0.75989933096E+02  0.80310502864E+02  0.00000000000E+00 0.  1.
         12    1    4    4    0    0 -0.67915907975E+02  0.64788013790E+01 -0.20821045493E+03  0.21910303276E+03  0.00000000000E+00 0. -1.
        -11    1    3    3    0    0  0.27634911384E+01 -0.37714118254E+02  0.45554600250E+01  0.38088631046E+02  0.00000000000E+00 0.  1.
         11    1    3    3    0    0  0.49762404583E+02 -0.22843508329E+02 -0.10688353644E+03  0.12009251911E+03  0.00000000000E+00 0. -1.
         21    1    1    2  502  501 -0.78734282155E+01  0.42497837519E+02  0.32416399716E+02  0.54026660421E+02  0.00000000000E+00 0.  1.
<scales pt_clust_5="13000.00000" pt_clust_6="13000.00000" pt_clust_7="13000.00000" pt_clust_8="13000.00000" pt_clust_9="43.22103"></scales>
<clustering>
<clus scale="   43.221">  1  9  2 -1</clus>
<clus scale="   80.985">  5  6 -1 -1</clus>
<clus scale="   90.133">  7  8 -1 -1</clus>
<clus scale="   97.177">  2  5  1 -1</clus>
<clus scale="   97.177">  2  5  1 -1</clus>
</clustering>
</event>
<event>
 9    2  0.2869112E-005  0.1495581E+03  0.7546771E-02  0.1203332E+00
          2   -1    0    0  502    0  0.00000000000E+00  0.00000000000E+00  0.59990545906E+02  0.59990545906E+02  0.00000000000E+00 0. -1.
         -1   -1    0    0    0  501 -0.00000000000E+00 -0.00000000000E+00 -0.57861631334E+03  0.57861631334E+03  0.00000000000E+00 0.  1.
         23    2    1    2    0    0  0.11236117381E+03  0.90580662285E+02 -0.19788409992E+03  0.26183611269E+03  0.92575067639E+02 0.  0.
         24    2    1    2    0    0 -0.85803340999E+02 -0.49251901485E+02 -0.13913696146E+03  0.18863873383E+03  0.80234124464E+02 0.  0.
        -13    1    4    4    0    0 -0.49416758333E+02 -0.61121774627E+02 -0.54195848466E+02  0.95472914110E+02  0.00000000000E+00 0.  1.
         14    1    4    4    0    0 -0.36386582665E+02  0.11869873143E+02 -0.84941112996E+02  0.93165819717E+02  0.00000000000E+00 0. -1.
        -13    1    3    3    0    0  0.30913721042E+02  0.22823551743E+02 -0.12151016767E+01  0.38445404601E+02  0.00000000000E+00 0. -1.
         13    1    3    3    0    0  0.81447452768E+02  0.67757110542E+02 -0.19666899824E+03  0.22339070809E+03  0.00000000000E+00 0.  1.
         21    1    1    2  502  501 -0.26557832811E+02 -0.41328760800E+02 -0.18160470605E+03  0.18813201273E+03  0.00000000000E+00 0.  1.
<scales pt_clust_5="13000.00000" pt_clust_6="13000.00000" pt_clust_7="13000.00000" pt_clust_8="13000.00000" pt_clust_9="49.12621"></scales>
<clustering>
<clus scale="   49.126">  2  9  1 -1</clus>
<clus scale="   80.234">  5  6 -1 -1</clus>
<clus scale="   92.575">  7  8 -1 -1</clus>
<clus scale="  142.250">  1  5  2 -1</clus>
<clus scale="  142.250">  1  5  2 -1</clus>
</clustering>
</event>
<event>
 9    2  0.2869112E-005  0.1035149E+03  0.7546771E-02  0.1288732E+00
         -1   -1    0    0    0  501 -0.00000000000E+00  0.00000000000E+00  0.77497235521E+02  0.77497235521E+02  0.00000000000E+00 0.  1.
          2   -1    0    0  502    0  0.00000000000E+00 -0.00000000000E+00 -0.15195646113E+03  0.15195646113E+03  0.00000000000E+00 0. -1.
         24    2    1    2    0    0 -0.10275425908E+02  0.18526776306E+02 -0.10661972337E+02  0.78450981430E+02  0.74780030859E+02 0.  0.
         23    2    1    2    0    0  0.21657556572E+02  0.31270239310E+01 -0.70197182201E+02  0.12571637397E+03  0.10197124232E+03 0.  0.
        -11    1    3    3    0    0 -0.40298344829E+02  0.20462379449E+02 -0.15904028579E+02  0.47912458648E+02  0.00000000000E+00 0.  1.
         12    1    3    3    0    0  0.30022918921E+02 -0.19356031431E+01  0.52420562421E+01  0.30538522782E+02  0.00000000000E+00 0. -1.
        -11    1    4    4    0    0  0.35462721192E+02 -0.30912186433E+02 -0.63156587672E+00  0.47048557256E+02  0.00000000000E+00 0.  1.
         11    1    4    4    0    0 -0.13805164620E+02  0.34039210364E+02 -0.69565616324E+02  0.78667816717E+02  0.00000000000E+00 0. -1.
         21    1    1    2  502  501 -0.11382130664E+02 -0.21653800237E+02  0.63999289341E+01  0.25286341244E+02  0.00000000000E+00 0.  1.
<scales pt_clust_5="13000.00000" pt_clust_6="13000.00000" pt_clust_7="13000.00000" pt_clust_8="13000.00000" pt_clust_9="24.46303"></scales>
<clustering>
<clus scale="   24.463">  1  9  2 -1</clus>
<clus scale="   74.780">  5  6 -1 -1</clus>
<clus scale="   76.872">  1  5  2 -1</clus>
<clus scale="  101.971">  7  8 -1 -1</clus>
<clus scale="  103.515">  2  5  1 -1</clus>
</clustering>
</event>
<event>
 9    2  0.2869112E-005  0.1265945E+03  0.7546771E-02  0.1236059E+00
          2   -1    0    0  502    0  0.00000000000E+00  0.00000000000E+00  0.19868406216E+03  0.19868406216E+03  0.00000000000E+00 0. -1.
         -1   -1    0    0    0  501 -0.00000000000E+00 -0.00000000000E+00 -0.20557563427E+03  0.20557563427E+03  0.00000000000E+00 0.  1.
         24    2    1    2    0    0  0.46762277286E+02 -0.99407709661E+02 -0.12003422031E+03  0.18159452162E+03  0.80621045158E+02 0.  0.
         23    2    1    2    0    0 -0.48470080525E+02  0.66752331148E+02  0.13491725023E+03  0.18337874417E+03  0.92843292617E+02 0.  0.
        -13    1    3    3    0    0  0.10815301582E+02 -0.67719730807E+02 -0.11435180542E+03  0.13333892190E+03  0.00000000000E+00 0.  1.
         14    1    3    3    0    0  0.35946975704E+02 -0.31687978854E+02 -0.56824148815E+01  0.48255599727E+02  0.00000000000E+00 0. -1.
        -11    1    4    4    0    0 -0.38912084991E+02  0.86708719932E+02  0.12943926220E+03  0.16058354545E+03  0.00000000000E+00 0. -1.
         11    1    4    4    0    0 -0.95579955335E+01 -0.19956388784E+02  0.54779880351E+01  0.22795198723E+02  0.00000000000E+00 0.  1.
         21    1    1    2  502  501  0.17078032387E+01  0.32655378513E+02 -0.21774602047E+02  0.39286430635E+02  0.00000000000E+00 0. -1.
<scales pt_clust_5="13000.00000" pt_clust_6="13000.00000" pt_clust_7="13000.00000" pt_clust_8="13000.00000" pt_clust_9="32.70001"></scales>
<clustering>
<clus scale="   32.700">  2  9  1 -1</clus>
<clus scale="   80.621">  5  6 -1 -1</clus>
<clus scale="   92.843">  7  8 -1 -1</clus>
<clus scale="  117.924">  2  5  1 -1</clus>
<clus scale="  126.594">  1  5  2 -1</clus>
</clustering>
</event>
<event>
 9    2  0.2869112E-005  0.1035055E+03  0.7546771E-02  0.1274939E+00
          4   -1    0    0  502    0  0.00000000000E+00  0.00000000000E+00  0.26810002497E+03  0.26810002497E+03  0.00000000000E+00 0. -1.
         -3   -1    0    0    0  501 -0.00000000000E+00 -0.00000000000E+00 -0.27094973888E+03  0.27094973888E+03  0.00000000000E+00 0.  1.
         23    2    1    2    0    0  0.46255877258E+02  0.24495613510E+01 -0.92179819886E+02  0.13988107094E+03  0.94466863399E+02 0.  0.
         24    2    1    2    0    0 -0.21240362483E+02 -0.24437087608E+02  0.23127669651E+03  0.25336724624E+03  0.98273734374E+02 0.  0.
        -11    1    4    4    0    0 -0.28755600646E+02  0.33993149035E+02  0.10278658617E+03  0.11201562858E+03  0.00000000000E+00 0.  1.
         12    1    4    4    0    0  0.75152381636E+01 -0.58430236642E+02  0.12849011034E+03  0.14135161766E+03  0.00000000000E+00 0. -1.
        -13    1    3    3    0    0  0.68873470551E+02  0.24202298793E+02 -0.56128891442E+02  0.92085605102E+02  0.00000000000E+00 0. -1.
         13    1    3    3    0    0 -0.22617593293E+02 -0.21752737442E+02 -0.36050928444E+02  0.47795465834E+02  0.00000000000E+00 0.  1.
         21    1    1    2  502  501 -0.25015514775E+02  0.21987526256E+02 -0.14194659053E+03  0.14580144668E+03  0.00000000000E+00 0.  1.
<scales pt_clust_5="13000.00000" pt_clust_6="13000.00000" pt_clust_7="13000.00000" pt_clust_8="13000.00000" pt_clust_9="33.30506"></scales>
<clustering>
<clus scale="   33.305">  2  9  1 -1</clus>
<clus scale="   94.467">  7  8 -1 -1</clus>
<clus scale="   98.274">  5  6 -1 -1</clus>
<clus scale="   99.898">  2  7  1 -1</clus>
<clus scale="  103.506">  1  5  2 -1</clus>
</clustering>
</event>
<event>
 9    2  0.2869112E-005  0.9712236E+02  0.7546771E-02  0.1289280E+00
          2   -1    0    0  502    0  0.00000000000E+00  0.00000000000E+00  0.11405852082E+03  0.11405852082E+03  0.00000000000E+00 0. -1.
         -1   -1    0    0    0  501 -0.00000000000E+00 -0.00000000000E+00 -0.21356605530E+03  0.21356605530E+03  0.00000000000E+00 0.  1.
         23    2    1    2    0    0  0.10889933014E+02 -0.56016048758E+02 -0.81597887672E+02  0.13367050732E+03  0.89180720426E+02 0.  0.
         24    2    1    2    0    0 -0.11193321887E+02  0.32585694158E+02  0.62631357790E+02  0.11007363613E+03  0.83704244061E+02 0.  0.
        -11    1    4    4    0    0  0.23281420537E+01  0.32222729336E+02 -0.11821809612E+02  0.34401739982E+02  0.00000000000E+00 0.  1.
         12    1    4    4    0    0 -0.13521463940E+02  0.36296482141E+00  0.74453167402E+02  0.75671896148E+02  0.00000000000E+00 0. -1.
        -13    1    3    3    0    0  0.56043822909E+01 -0.26594992253E+02 -0.96510888658E+02  0.10026492080E+03  0.00000000000E+00 0.  1.
         13    1    3    3    0    0  0.52855507226E+01 -0.29421056506E+02  0.14913000987E+02  0.33405586520E+02  0.00000000000E+00 0. -1.
         21    1    1    2  502  501  0.30338887311E+00  0.23430354601E+02 -0.80541004597E+02  0.83880432659E+02  0.00000000000E+00 0. -1.
<scales pt_clust_5="13000.00000" pt_clust_6="13000.00000" pt_clust_7="13000.00000" pt_clust_8="13000.00000" pt_clust_9="23.43232"></scales>
<clustering>
<clus scale="   23.432">  2  9  1 -1</clus>
<clus scale="   83.704">  5  6 -1 -1</clus>
<clus scale="   89.181">  7  8 -1 -1</clus>
<clus scale="   92.119">  1  5  2 -1</clus>
<clus scale="   92.119">  1  5  2 -1</clus>
</clustering>
</event>
<event>
 9    2  0.2869112E-005  0.1213035E+03  0.7546771E-02  0.1258105E+00
          2   -1    0    0  502    0  0.00000000000E+00  0.00000000000E+00  0.12848110371E+03  0.12848110371E+03  0.00000000000E+00 0. -1.
         -1   -1    0    0    0  501 -0.00000000000E+00 -0.00000000000E+00 -0.23994845973E+03  0.23994845973E+03  0.00000000000E+00 0.  1.
         23    2    1    2    0    0  0.24141093116E+02  0.56595874510E+00  0.74895222218E+01  0.12232544082E+03  0.11968420047E+03 0.  0.
         24    2    1    2    0    0 -0.36942270126E+01  0.25737928234E+02  0.30563790903E+02  0.92916658051E+02  0.83804962657E+02 0.  0.
        -13    1    4    4    0    0 -0.14337901370E+02 -0.25452994878E+02 -0.50600652012E+01  0.29648518071E+02  0.00000000000E+00 0.  1.
         14    1    4    4    0    0  0.10643674358E+02  0.51190923111E+02  0.35623856104E+02  0.63268139980E+02  0.00000000000E+00 0. -1.
        -11    1    3    3    0    0 -0.30886249746E+02 -0.11351893110E+02  0.44205521610E+02  0.55108565952E+02  0.00000000000E+00 0.  1.
         11    1    3    3    0    0  0.55027342862E+02  0.11917851855E+02 -0.36715999388E+02  0.67216874863E+02  0.00000000000E+00 0. -1.
         21    1    1    2  502  501 -0.20446866104E+02 -0.26303886979E+02 -0.14952066914E+03  0.15318746458E+03  0.00000000000E+00 0.  1.
<scales pt_clust_5="13000.00000" pt_clust_6="13000.00000" pt_clust_7="13000.00000" pt_clust_8="13000.00000" pt_clust_9="33.31619"></scales>
<clustering>
<clus scale="   33.316">  2  9  1 -1</clus>
<clus scale="   83.805">  5  6 -1 -1</clus>
<clus scale="   86.102">  1  5  2 -1</clus>
<clus scale="  119.684">  7  8 -1 -1</clus>
<clus scale="   86.102">  1  5  2 -1</clus>
</clustering>
</event>
<event>
 9    2  0.2869112E-005  0.9423889E+02  0.7546771E-02  0.1301886E+00
          2   -1    0    0  502    0  0.00000000000E+00  0.00000000000E+00  0.61871238111E+03  0.61871238111E+03  0.00000000000E+00 0. -1.
         -1   -1    0    0    0  501 -0.00000000000E+00 -0.00000000000E+00 -0.21794645809E+02  0.21794645809E+02  0.00000000000E+00 0.  1.
         23    2    1    2    0    0 -0.23270252062E+02 -0.18491544305E+02  0.12166271545E+03  0.15494426437E+03  0.91227555542E+02 0.  0.
         24    2    1    2    0    0  0.31556005214E+01  0.87891643216E+01  0.34895740452E+03  0.35730589909E+03  0.76216980609E+02 0.  0.
        -11    1    4    4    0    0  0.31199291061E+02 -0.19606559405E+02  0.16262337098E+03  0.16674583570E+03  0.00000000000E+00 0.  1.
         12    1    4    4    0    0 -0.28043690539E+02  0.28395723726E+02  0.18633403354E+03  0.19056006339E+03  0.00000000000E+00 0. -1.
        -13    1    3    3    0    0 -0.52595056396E+02 -0.29614330311E+02  0.10007823579E+03  0.11687130442E+03  0.00000000000E+00 0. -1.
         13    1    3    3    0    0  0.29324804334E+02  0.11122786006E+02  0.21584479654E+02  0.38072959954E+02  0.00000000000E+00 0.  1.
         21    1    1    2  502  501  0.20114651541E+02  0.97023799832E+01  0.12629761534E+03  0.12825686346E+03  0.00000000000E+00 0.  1.
<scales pt_clust_5="13000.00000" pt_clust_6="13000.00000" pt_clust_7="13000.00000" pt_clust_8="13000.00000" pt_clust_9="22.33238"></scales>
<clustering>
<clus scale="   22.332">  1  9  2 -1</clus>
<clus scale="   76.217">  5  6 -1 -1</clus>
<clus scale="   79.797">  1  5  2 -1</clus>
<clus scale="   91.228">  7  8 -1 -1</clus>
<clus scale="   22.332">  1  5  2 -1</clus>
</clustering>
</event>
<event>
 9    2  0.2869112E-005  0.1555661E+03  0.7546771E-02  0.1194964E+00
         -1   -1    0    0    0  501 -0.00000000000E+00  0.00000000000E+00  0.48938410583E+02  0.48938410583E+02  0.00000000000E+00 0.  1.
          2   -1    0    0  502    0  0.00000000000E+00 -0.00000000000E+00 -0.84424409457E+03  0.84424409457E+03  0.00000000000E+00 0. -1.
         23    2    1    2    0    0  0.10197904765E+03  0.13669492895E+03 -0.48343909517E+03  0.52010899462E+03  0.87833807785E+02 0.  0.
         24    2    1    2    0    0 -0.50610021800E+02 -0.77174842639E+02 -0.22265092767E+03  0.25415819744E+03  0.80657442895E+02 0.  0.
        -13    1    4    4    0    0 -0.69996149480E+02 -0.46076225181E+02 -0.13168220601E+03  0.15608549852E+03  0.00000000000E+00 0.  1.
         14    1    4    4    0    0  0.19386127680E+02 -0.31098617458E+02 -0.90968721659E+02  0.98072698925E+02  0.00000000000E+00 0. -1.
        -11    1    3    3    0    0  0.33644826639E+02  0.10383194275E+03 -0.21432627675E+03  0.24051777399E+03  0.00000000000E+00 0.  1.
         11    1    3    3    0    0  0.68334221011E+02  0.32862986199E+02 -0.26911281841E+03  0.27959122064E+03  0.00000000000E+00 0. -1.
         21    1    1    2  502  501 -0.51369025851E+02 -0.59520086314E+02 -0.89215661155E+02  0.11891531309E+03  0.00000000000E+00 0.  1.
<scales pt_clust_5="13000.00000" pt_clust_6="13000.00000" pt_clust_7="13000.00000" pt_clust_8="13000.00000" pt_clust_9="78.62199"></scales>
<clustering>
<clus scale="   78.622">  1  9  2 -1</clus>
<clus scale="   80.657">  5  6 -1 -1</clus>
<clus scale="   87.834">  7  8 -1 -1</clus>
<clus scale="  151.630">  2  5  1 -1</clus>
<clus scale="  151.630">  2  5  1 -1</clus>
</clustering>
</event>
<event>
 9    2  0.2869112E-005  0.1012991E+03  0.7546771E-02  0.1283258E+00
         -1   -1    0    0    0  501 -0.00000000000E+00  0.00000000000E+00  0.30918429216E+03  0.30918429216E+03  0.00000000000E+00 0.  1.
          2   -1    0    0  502    0  0.00000000000E+00 -0.00000000000E+00 -0.12537997946E+03  0.12537997946E+03  0.00000000000E+00 0. -1.
         23    2    1    2    0    0 -0.45779913799E+01  0.39906201943E+01  0.20852046847E+03  0.22760276975E+03  0.91023908805E+02 0.  0.
         24    2    1    2    0    0  0.36750672638E+02  0.31585668592E+02 -0.87691361070E+02  0.12779945145E+03  0.79338884437E+02 0.  0.
        -11    1    4    4    0    0 -0.14426471312E+02  0.36074567260E+02 -0.22851496766E+02  0.45074254092E+02  0.00000000000E+00 0.  1.
         12    1    4    4    0    0  0.51177143950E+02 -0.44888986685E+01 -0.64839864304E+02  0.82725197353E+02  0.00000000000E+00 0. -1.
        -11    1    3    3    0    0 -0.31981822054E+02 -0.19972432034E+02  0.39113431779E+02  0.54328588504E+02  0.00000000000E+00 0. -1.
         11    1    3    3    0    0  0.27403830674E+02  0.23963052228E+02  0.16940703669E+03  0.17327418125E+03  0.00000000000E+00 0.  1.
         21    1    1    2  502  501 -0.32172681258E+02 -0.35576288786E+02  0.62975205305E+02  0.79162050418E+02  0.00000000000E+00 0. -1.
<scales pt_clust_5="13000.00000" pt_clust_6="13000.00000" pt_clust_7="13000.00000" pt_clust_8="13000.00000" pt_clust_9="47.96617"></scales>
<clustering>
<clus scale="   47.966">  1  9  2 -1</clus>
<clus scale="   79.339">  5  6 -1 -1</clus>
<clus scale="   90.944">  2  5  1 -1</clus>
<clus scale="   91.024">  7  8 -1 -1</clus>
<clus scale="   90.944">  2  5  1 -1</clus>
</clustering>
</event>
<event>
 9    2  0.2869112E-005  0.1035152E+03  0.7546771E-02  0.1278292E+00
          2   -1    0    0  502    0  0.00000000000E+00  0.00000000000E+00  0.32946513874E+03  0.32946513874E+03  0.00000000000E+00 0. -1.
         -1   -1    0    0    0  501 -0.00000000000E+00 -0.00000000000E+00 -0.60710359894E+02  0.60710359894E+02  0.00000000000E+00 0.  1.
         23    2    1    2    0    0 -0.26840300171E+02  0.11601211969E+02  0.22729150093E+02  0.99400647023E+02  0.92243615130E+02 0.  0.
         24    2    1    2    0    0  0.33922934250E+02 -0.39163311903E+02  0.24396831806E+03  0.26224301701E+03  0.81032890161E+02 0.  0.
        -11    1    4    4    0    0  0.20671133646E+01 -0.49356258158E+02  0.73723886427E+02  0.88744152523E+02  0.00000000000E+00 0.  1.
         12    1    4    4    0    0  0.31855820885E+02  0.10192946255E+02  0.17024443163E+03  0.17349886449E+03  0.00000000000E+00 0. -1.
        -13    1    3    3    0    0 -0.45926775154E+02  0.26999117492E+02 -0.14140991651E+02  0.55119766566E+02  0.00000000000E+00 0.  1.
         13    1    3    3    0    0  0.19086474984E+02 -0.15397905524E+02  0.36870141744E+02  0.44280880457E+02  0.00000000000E+00 0. -1.
         21    1    1    2  502  501 -0.70826340787E+01  0.27562099934E+02  0.20573106938E+01  0.28531834598E+02  0.00000000000E+00 0.  1.
<scales pt_clust_5="13000.00000" pt_clust_6="13000.00000" pt_clust_7="13000.00000" pt_clust_8="13000.00000" pt_clust_9="28.45757"></scales>
<clustering>
<clus scale="   28.458">  2  9  1 -1</clus>
<clus scale="   81.033">  5  6 -1 -1</clus>
<clus scale="   92.244">  7  8 -1 -1</clus>
<clus scale="   93.663">  1  5  2 -1</clus>
<clus scale="   93.663">  1  5  2 -1</clus>
</clustering>
</event>
<event>
 9    2  0.2869112E-005  0.9191560E+02  0.7546771E-02  0.1304934E+00
          2   -1    0    0  502    0  0.00000000000E+00  0.00000000000E+00  0.10734456001E+03  0.10734456001E+03  0.00000000000E+00 0. -1.
         -1   -1    0    0    0  501 -0.00000000000E+00 -0.00000000000E+00 -0.10370341452E+03  0.10370341452E+03  0.00000000000E+00 0.  1.
         24    2    1    2    0    0 -0.42171613400E+01  0.77132323864E+01 -0.33623515108E+02  0.85429167692E+02  0.78040524862E+02 0.  0.
         23    2    1    2    0    0  0.16343423686E+01 -0.30586926956E+02  0.40288136775E+02  0.10240203994E+03  0.89021416769E+02 0.  0.
        -13    1    3    3    0    0  0.35709101069E+02 -0.65870444890E+00 -0.61368147489E+01  0.36238574557E+02  0.00000000000E+00 0.  1.
         14    1    3    3    0    0 -0.39926262409E+02  0.83719368353E+01 -0.27486700359E+02  0.49190593135E+02  0.00000000000E+00 0. -1.
        -11    1    4    4    0    0 -0.27286515236E+02 -0.48795677281E+02  0.10118791958E+02  0.56815156303E+02  0.00000000000E+00 0.  1.
         11    1    4    4    0    0  0.28920857605E+02  0.18208750326E+02  0.30169344817E+02  0.45586883637E+02  0.00000000000E+00 0. -1.
         21    1    1    2  502  501  0.25828189714E+01  0.22873694569E+02 -0.30234761830E+01  0.23216766900E+02  0.00000000000E+00 0. -1.
<scales pt_clust_5="13000.00000" pt_clust_6="13000.00000" pt_clust_7="13000.00000" pt_clust_8="13000.00000" pt_clust_9="23.01905"></scales>
<clustering>
<clus scale="   23.019">  2  9  1 -1</clus>
<clus scale="   78.041">  5  6 -1 -1</clus>
<clus scale="   81.326">  2  5  1 -1</clus>
<clus scale="   89.021">  7  8 -1 -1</clus>
<clus scale="   91.916">  1  5  2 -1</clus>
</clustering>
</event>
<event>
 9    2  0.2869112E-005  0.9919107E+02  0.7546771E-02  0.1291958E+00
          2   -1    0    0  502    0  0.00000000000E+00  0.00000000000E+00  0.82907998478E+02  0.82907998478E+02  0.00000000000E+00 0. -1.
         -1   -1    0    0    0  501 -0.00000000000E+00 -0.00000000000E+00 -0.25742958014E+03  0.25742958014E+03  0.00000000000E+00 0.  1.
         23    2    1    2    0    0  0.20685389465E+02  0.69509455813E+00 -0.10182056702E+03  0.14329570140E+03  0.98680604372E+02 0.  0.
         24    2    1    2    0    0  0.61809177944E+01  0.12477496246E+02  0.31522154694E+02  0.88608558344E+02  0.81632951177E+02 0.  0.
        -13    1    4    4    0    0 -0.30182677925E+02 -0.10257788752E+02 -0.50132497192E+01  0.32269938791E+02  0.00000000000E+00 0.  1.
         14    1    4    4    0    0  0.36363595719E+02  0.22735284998E+02  0.36535404413E+02  0.56338619553E+02  0.00000000000E+00 0. -1.
        -13    1    3    3    0    0  0.15321141180E+02 -0.36651107938E+02 -0.97546349006E+02  0.10532488445E+03  0.00000000000E+00 0.  1.
         13    1    3    3    0    0  0.53642482854E+01  0.37346202496E+02 -0.42742180128E+01  0.37970816954E+02  0.00000000000E+00 0. -1.
         21    1    1    2  502  501 -0.26866307260E+02 -0.13172590804E+02 -0.10422316933E+03  0.10843331887E+03  0.00000000000E+00 0. -1.
<scales pt_clust_5="13000.00000" pt_clust_6="13000.00000" pt_clust_7="13000.00000" pt_clust_8="13000.00000" pt_clust_9="29.92183"></scales>
<clustering>
<clus scale="   29.922">  2  9  1 -1</clus>
<clus scale="   81.633">  5  6 -1 -1</clus>
<clus scale="   82.249">  1  5  2 -1</clus>
<clus scale="   98.681">  7  8 -1 -1</clus>
<clus scale="   82.249">  1  5  2 -1</clus>
</clustering>
</event>
<event>
 9    2  0.2869112E-005  0.1035951E+03  0.7546771E-02  0.1289097E+00
         -1   -1    0    0    0  501 -0.00000000000E+00  0.00000000000E+00  0.25560010948E+02  0.25560010948E+02  0.00000000000E+00 0.  1.
          2   -1    0    0  502    0  0.00000000000E+00 -0.00000000000E+00 -0.54433898246E+03  0.54433898246E+03  0.00000000000E+00 0. -1.
         24    2    1    2    0    0  0.23592316711E+02  0.10482893191E+02 -0.16359185794E+03  0.18189779222E+03  0.75219826999E+02 0.  0.
         23    2    1    2    0    0  0.12968657207E+01 -0.36617273236E+01 -0.34536390977E+03  0.36038788848E+03  0.10289854168E+03 0.  0.
        -11    1    3    3    0    0  0.44008310003E+02 -0.77998753994E+01 -0.60457454206E+02  0.75184261483E+02  0.00000000000E+00 0.  1.
         12    1    3    3    0    0 -0.20415993292E+02  0.18282768591E+02 -0.10313440373E+03  0.10671353074E+03  0.00000000000E+00 0. -1.
        -13    1    4    4    0    0  0.50582775492E+01  0.47445921038E+02 -0.11721679802E+03  0.12655622993E+03  0.00000000000E+00 0.  1.
         13    1    4    4    0    0 -0.37614118285E+01 -0.51107648361E+02 -0.22814711175E+03  0.23383165855E+03  0.00000000000E+00 0. -1.
         21    1    1    2  502  501 -0.24889182432E+02 -0.68211658679E+01 -0.98232038025E+01  0.27613312711E+02  0.00000000000E+00 0.  1.
<scales pt_clust_5="13000.00000" pt_clust_6="13000.00000" pt_clust_7="13000.00000" pt_clust_8="13000.00000" pt_clust_9="25.80697"></scales>
<clustering>
<clus scale="   25.807">  1  9  2 -1</clus>
<clus scale="   75.220">  5  6 -1 -1</clus>
<clus scale="   76.170">  1  5  2 -1</clus>
<clus scale="  102.899">  7  8 -1 -1</clus>
<clus scale="  103.595">  2  5  1 -1</clus>
</clustering>
</event>
<event>
 9    2  0.2869112E-005  0.1311710E+03  0.7546771E-02  0.1228490E+00
         -1   -1    0    0    0  501 -0.00000000000E+00  0.00000000000E+00  0.68665550117E+02  0.68665550117E+02  0.00000000000E+00 0.  1.
          2   -1    0    0  502    0  0.00000000000E+00 -0.00000000000E+00 -0.46773780813E+03  0.46773780813E+03  0.00000000000E+00 0. -1.
         24    2    1    2    0    0 -0.67359202133E+02  0.79733002006E+02 -0.22109815083E+03  0.25764112425E+03  0.81240032526E+02 0.  0.
         23    2    1    2    0    0  0.58616872968E+02 -0.59364725526E+02 -0.20751070651E+03  0.24183384781E+03  0.91993522572E+02 0.  0.
        -11    1    3    3    0    0 -0.52301506365E+02  0.12906341370E+01 -0.91773326386E+02  0.10563832988E+03  0.00000000000E+00 0.  1.
         12    1    3    3    0    0 -0.15057695769E+02  0.78442367869E+02 -0.12932482445E+03  0.15200279437E+03  0.00000000000E+00 0. -1.
        -11    1    4    4    0    0  0.35131734454E+02 -0.59383270452E+00 -0.13298034639E+02  0.37568991579E+02  0.00000000000E+00 0. -1.
         11    1    4    4    0    0  0.23485138514E+02 -0.58770892822E+02 -0.19421267187E+03  0.20426485623E+03  0.00000000000E+00 0.  1.
         21    1    1    2  502  501  0.87423291649E+01 -0.20368276480E+02  0.29536599333E+02  0.36928386184E+02  0.00000000000E+00 0.  1.
<scales pt_clust_5="13000.00000" pt_clust_6="13000.00000" pt_clust_7="13000.00000" pt_clust_8="13000.00000" pt_clust_9="22.16518"></scales>
<clustering>
<clus scale="   22.165">  1  9  2 -1</clus>
<clus scale="   81.240">  5  6 -1 -1</clus>
<clus scale="   91.994">  7  8 -1 -1</clus>
<clus scale="  123.867">  1  5  2 -1</clus>
<clus scale="  131.171">  2  5  1 -1</clus>
</clustering>
</event>
<event>
 9    2  0.2869112E-005  0.1175245E+03  0.7546771E-02  0.1252215E+00
         -1   -1    0    0    0  501 -0.00000000000E+00  0.00000000000E+00  0.64773483481E+02  0.64773483481E+02  0.00000000000E+00 0.  1.
          2   -1    0    0  502    0  0.00000000000E+00 -0.00000000000E+00 -0.67850034901E+03  0.67850034901E+03  0.00000000000E+00 0. -1.
         23    2    1    2    0    0 -0.90001202527E+01 -0.24361068556E+02 -0.34030588500E+02  0.10241100475E+03  0.93034773685E+02 0.  0.
         24    2    1    2    0    0 -0.43201996144E+02  0.68500997305E+02 -0.55778505548E+03  0.56907497434E+03  0.78507064616E+02 0.  0.
        -11    1    4    4    0    0 -0.28382368464E+02 -0.11988462396E+02 -0.14023899445E+03  0.14358362593E+03  0.00000000000E+00 0.  1.
         12    1    4    4    0    0 -0.14819627680E+02  0.80489459701E+02 -0.41754606103E+03  0.42549134841E+03  0.00000000000E+00 0. -1.
        -13    1    3    3    0    0 -0.32593859421E+02 -0.38180606548E+01 -0.55494734333E+02  0.64471720916E+02  0.00000000000E+00 0.  1.
         13    1    3    3    0    0  0.23593739168E+02 -0.20543007901E+02  0.21464145833E+02  0.37939283835E+02  0.00000000000E+00 0. -1.
         21    1    1    2  502  501  0.52202116397E+02 -0.44139928750E+02 -0.21911221544E+02  0.71787853401E+02  0.00000000000E+00 0.  1.
<scales pt_clust_5="13000.00000" pt_clust_6="13000.00000" pt_clust_7="13000.00000" pt_clust_8="13000.00000" pt_clust_9="68.36223"></scales>
<clustering>
<clus scale="   68.362">  1  9  2 -1</clus>
<clus scale="   78.507">  5  6 -1 -1</clus>
<clus scale="   93.035">  7  8 -1 -1</clus>
<clus scale="  106.395">  2  5  1 -1</clus>
<clus scale="  106.395">  2  5  1 -1</clus>
</clustering>
</event>
<event>
 9    2  0.2869112E-005  0.1505614E+03  0.7546771E-02  0.1201314E+00
         -1   -1    0    0    0  501 -0.00000000000E+00  0.00000000000E+00  0.44333803393E+02  0.44333803393E+02  0.00000000000E+00 0.  1.
          2   -1    0    0  502    0  0.00000000000E+00 -0.00000000000E+00 -0.60957725673E+03  0.60957725673E+03  0.00000000000E+00 0. -1.
         23    2    1    2    0    0  0.12974957808E+03  0.28165372958E+01 -0.23236946061E+03  0.28077826057E+03  0.89431423402E+02 0.  0.
         24    2    1    2    0    0 -0.11480846778E+03  0.17797763469E+02 -0.29839265262E+03  0.33027082353E+03  0.80888176365E+02 0.  0.
        -13    1    4    4    0    0 -0.36576169879E+02  0.10636304356E+02 -0.24394904056E+02  0.45233378354E+02  0.00000000000E+00 0.  1.
         14    1    4    4    0    0 -0.78232297903E+02  0.71614591127E+01 -0.27399774857E+03  0.28503744517E+03  0.00000000000E+00 0. -1.
        -13    1    3    3    0    0  0.47180375571E+01  0.21240761803E+02 -0.79540165314E+02  0.82462523237E+02  0.00000000000E+00 0.  1.
         13    1    3    3    0    0  0.12503154052E+03 -0.18424224507E+02 -0.15282929529E+03  0.19831573733E+03  0.00000000000E+00 0. -1.
         21    1    1    2  502  501 -0.14941110300E+02 -0.20614300765E+02 -0.34481340108E+02  0.42861976023E+02  0.00000000000E+00 0.  1.
<scales pt_clust_5="13000.00000" pt_clust_6="13000.00000" pt_clust_7="13000.00000" pt_clust_8="13000.00000" pt_clust_9="25.45950"></scales>
<clustering>
<clus scale="   25.460">  1  9  2 -1</clus>
<clus scale="   80.888">  5  6 -1 -1</clus>
<clus scale="   89.431">  7  8 -1 -1</clus>
<clus scale="  145.649">  2  5  1 -1</clus>
<clus scale="  145.649">  2  5  1 -1</clus>
</clustering>
</event>
<event>
 9    2  0.2869112E-005  0.2176538E+03  0.7546771E-02  0.1136642E+00
         -1   -1    0    0    0  501 -0.00000000000E+00  0.00000000000E+00  0.60906311636E+03  0.60906311636E+03  0.00000000000E+00 0.  1.
          2   -1    0    0  502    0  0.00000000000E+00 -0.00000000000E+00 -0.44999877184E+03  0.44999877184E+03  0.00000000000E+00 0. -1.
         24    2    1    2    0    0 -0.31171833446E+01 -0.21824779070E+03  0.46019658031E+03  0.51552730256E+03  0.79659853016E+02 0.  0.
         23    2    1    2    0    0 -0.90276428464E+02  0.17522984064E+03 -0.36314557165E+03  0.42345725814E+03  0.92660739668E+02 0.  0.
        -11    1    3    3    0    0 -0.33011308090E+02 -0.12629732243E+03  0.20962313984E+03  0.24694659518E+03  0.00000000000E+00 0.  1.
         12    1    3    3    0    0  0.29894124746E+02 -0.91950468264E+02  0.25057344047E+03  0.26858070738E+03  0.00000000000E+00 0. -1.
        -13    1    4    4    0    0 -0.59138694816E+02  0.17297943490E+03 -0.27753954833E+03  0.33233638231E+03  0.00000000000E+00 0. -1.
         13    1    4    4    0    0 -0.31137733648E+02  0.22504057437E+01 -0.85606023324E+02  0.91120875830E+02  0.00000000000E+00 0.  1.
         21    1    1    2  502  501  0.93393611809E+02  0.43017950050E+02  0.62013335862E+02  0.12007732749E+03  0.00000000000E+00 0.  1.
<scales pt_clust_5="13000.00000" pt_clust_6="13000.00000" pt_clust_7="13000.00000" pt_clust_8="13000.00000" pt_clust_9="102.82466"></scales>
<clustering>
<clus scale="   79.660">  5  6 -1 -1</clus>
<clus scale="   92.661">  7  8 -1 -1</clus>
<clus scale="  102.825">  1  9  2 -1</clus>
<clus scale="  212.445">  1  5  2 -1</clus>
<clus scale="  217.654">  2  5  1 -1</clus>
</clustering>
</event>
<event>
 9    2  0.2869112E-005  0.1071896E+03  0.7546771E-02  0.1270587E+00
          2   -1    0    0  502    0  0.00000000000E+00  0.00000000000E+00  0.33486578863E+03  0.33486578863E+03  0.00000000000E+00 0. -1.
         -1   -1    0    0    0  501 -0.00000000000E+00 -0.00000000000E+00 -0.83405699048E+02  0.83405699048E+02  0.00000000000E+00 0.  1.
         23    2    1    2    0    0 -0.29750216936E+02 -0.13431463874E+02  0.55082963594E+02  0.11159061705E+03  0.91393945673E+02 0.  0.
         24    2    1    2    0    0  0.64501764274E+02  0.10834099846E+02  0.23372039971E+03  0.25560312172E+03  0.80186503105E+02 0.  0.
        -11    1    4    4    0    0  0.35639977646E+02 -0.34555565952E+02  0.10829823966E+03  0.11913355472E+03  0.00000000000E+00 0.  1.
         12    1    4    4    0    0  0.28861786627E+02  0.45389665798E+02  0.12542216004E+03  0.13646956700E+03  0.00000000000E+00 0. -1.
        -13    1    3    3    0    0  0.25929901454E+02  0.58634937618E+01  0.44328132688E+02  0.51688719234E+02  0.00000000000E+00 0. -1.
         13    1    3    3    0    0 -0.55680118390E+02 -0.19294957636E+02  0.10754830907E+02  0.59901897816E+02  0.00000000000E+00 0.  1.
         21    1    1    2  502  501 -0.34751547338E+02  0.25973640277E+01 -0.37343273715E+02  0.51077748913E+02  0.00000000000E+00 0.  1.
<scales pt_clust_5="13000.00000" pt_clust_6="13000.00000" pt_clust_7="13000.00000" pt_clust_8="13000.00000" pt_clust_9="34.84848"></scales>
<clustering>
<clus scale="   34.848">  2  9  1 -1</clus>
<clus scale="   80.187">  5  6 -1 -1</clus>
<clus scale="   91.394">  7  8 -1 -1</clus>
<clus scale="   97.809">  1  5  2 -1</clus>
<clus scale="   97.809">  1  5  2 -1</clus>
</clustering>
</event>
<event>
 9    2  0.2869112E-005  0.1266714E+03  0.7546771E-02  0.1234636E+00
          2   -1    0    0  502    0  0.00000000000E+00  0.00000000000E+00  0.74163668911E+03  0.74163668911E+03  0.00000000000E+00 0. -1.
         -1   -1    0    0    0  501 -0.00000000000E+00 -0.00000000000E+00 -0.48641837747E+02  0.48641837747E+02  0.00000000000E+00 0.  1.
         23    2    1    2    0    0  0.61077826261E+02 -0.22101171280E+02  0.59679389844E+02  0.12761527902E+03  0.92222921409E+02 0.  0.
         24    2    1    2    0    0 -0.87965250875E+02  0.22671031547E+02  0.62065662787E+03  0.63293944572E+03  0.84533018420E+02 0.  0.
        -13    1    4    4    0    0  0.19138912357E+01  0.21515694547E+02  0.40876182534E+02  0.46232568499E+02  0.00000000000E+00 0.  1.
         14    1    4    4    0    0 -0.89879142110E+02  0.11553370002E+01  0.57978044533E+03  0.58670687722E+03  0.00000000000E+00 0. -1.
        -13    1    3    3    0    0  0.22419413298E+02 -0.34855435086E+02 -0.13743508257E+02  0.43662517871E+02  0.00000000000E+00 0.  1.
         13    1    3    3    0    0  0.38658412963E+02  0.12754263806E+02  0.73422898101E+02  0.83952761144E+02  0.00000000000E+00 0. -1.
         21    1    1    2  502  501  0.26887424613E+02 -0.56986026721E+00  0.12658833652E+02  0.29723802120E+02  0.00000000000E+00 0.  1.
<scales pt_clust_5="13000.00000" pt_clust_6="13000.00000" pt_clust_7="13000.00000" pt_clust_8="13000.00000" pt_clust_9="26.89346"></scales>
<clustering>
<clus scale="   26.893">  2  9  1 -1</clus>
<clus scale="   84.533">  5  6 -1 -1</clus>
<clus scale="   92.223">  7  8 -1 -1</clus>
<clus scale="  121.187">  1  5  2 -1</clus>
<clus scale="  121.187">  1  5  2 -1</clus>
</clustering>
</event>
<event>
 9    2  0.2869112E-005  0.1006007E+03  0.7546771E-02  0.1285310E+00
         -1   -1    0    0    0  501 -0.00000000000E+00  0.00000000000E+00  0.23889636221E+03  0.23889636221E+03  0.00000000000E+00 0.  1.
          2   -1    0    0  502    0  0.00000000000E+00 -0.00000000000E+00 -0.23027400400E+03  0.23027400400E+03  0.00000000000E+00 0. -1.
         23    2    1    2    0    0 -0.63279954789E+02 -0.52585758847E+01  0.99677198690E+01  0.11281580837E+03  0.92714863318E+02 0.  0.
         24    2    1    2    0    0  0.25030490768E+02 -0.29103663792E+02 -0.16353994316E+03  0.18620501397E+03  0.80333339949E+02 0.  0.
        -13    1    4    4    0    0 -0.28573213202E+02 -0.18894207748E+02 -0.69398600261E+02  0.77392411238E+02  0.00000000000E+00 0.  1.
         14    1    4    4    0    0  0.53603703970E+02 -0.10209456043E+02 -0.94141342894E+02  0.10881260273E+03  0.00000000000E+00 0. -1.
        -13    1    3    3    0    0  0.21487313706E+02  0.96133561524E+01  0.12627328564E+02  0.26712744028E+02  0.00000000000E+00 0.  1.
         13    1    3    3    0    0 -0.84767268494E+02 -0.14871932037E+02 -0.26596086954E+01  0.86103064341E+02  0.00000000000E+00 0. -1.
         21    1    1    2  502  501  0.38249464020E+02  0.34362239677E+02  0.16219458150E+03  0.17014954387E+03  0.00000000000E+00 0.  1.
<scales pt_clust_5="13000.00000" pt_clust_6="13000.00000" pt_clust_7="13000.00000" pt_clust_8="13000.00000" pt_clust_9="51.41775"></scales>
<clustering>
<clus scale="   51.418">  1  9  2 -1</clus>
<clus scale="   80.333">  5  6 -1 -1</clus>
<clus scale="   89.319">  2  5  1 -1</clus>
<clus scale="   92.715">  7  8 -1 -1</clus>
<clus scale="   89.319">  2  5  1 -1</clus>
</clustering>
</event>
<event>
 9    2  0.2869112E-005  0.1217403E+03  0.7546771E-02  0.1245798E+00
          4   -1    0    0  502    0  0.00000000000E+00  0.00000000000E+00  0.44918560849E+02  0.44918560849E+02  0.00000000000E+00 0. -1.
         -3   -1    0    0    0  501 -0.00000000000E+00 -0.00000000000E+00 -0.42105294929E+03  0.42105294929E+03  0.00000000000E+00 0.  1.
         23    2    1    2    0    0 -0.31795225785E+02 -0.69796117206E+02 -0.15490202152E+03  0.19903579623E+03  0.98682204827E+02 0.  0.
         24    2    1    2    0    0  0.53315140462E+02  0.45414699151E+02 -0.12420825697E+03  0.16460664577E+03  0.82235379439E+02 0.  0.
        -11    1    4    4    0    0  0.84314682903E+01  0.46148214552E+02 -0.10645622931E+03  0.11633432908E+03  0.00000000000E+00 0.  1.
         12    1    4    4    0    0  0.44883672172E+02 -0.73351540099E+00 -0.17752027655E+02  0.48272316687E+02  0.00000000000E+00 0. -1.
        -13    1    3    3    0    0 -0.29565115860E+02  0.15521915748E+02 -0.75112329191E+02  0.82200291611E+02  0.00000000000E+00 0.  1.
         13    1    3    3    0    0 -0.22301099254E+01 -0.85318032954E+02 -0.79789692327E+02  0.11683550462E+03  0.00000000000E+00 0. -1.
         21    1    1    2  502  501 -0.21519914677E+02  0.24381418055E+02 -0.97024109952E+02  0.10232906814E+03  0.00000000000E+00 0.  1.
<scales pt_clust_5="13000.00000" pt_clust_6="13000.00000" pt_clust_7="13000.00000" pt_clust_8="13000.00000" pt_clust_9="32.52015"></scales>
<clustering>
<clus scale="   32.520">  2  9  1 -1</clus>
<clus scale="   82.235">  5  6 -1 -1</clus>
<clus scale="   98.682">  7  8 -1 -1</clus>
<clus scale="  108.836">  1  5  2 -1</clus>
<clus scale="  108.836">  1  5  2 -1</clus>
</clustering>
</event>
<event>
 9    2  0.2869112E-005  0.1127163E+03  0.7546771E-02  0.1258338E+00
          2   -1    0    0  502    0  0.00000000000E+00  0.00000000000E+00  0.57166550418E+02  0.57166550418E+02  0.00000000000E+00 0. -1.
         -1   -1    0    0    0  501 -0.00000000000E+00 -0.00000000000E+00 -0.40911645956E+03  0.40911645956E+03  0.00000000000E+00 0.  1.
         24    2    1    2    0    0 -0.45974620950E+02  0.90346578907E+02 -0.11401985022E+03  0.17282328262E+03  0.81186148325E+02 0.  0.
         23    2    1    2    0    0  0.17376120210E+01 -0.45779141385E+02 -0.97380595553E+02  0.13952038508E+03  0.88793064944E+02 0.  0.
        -13    1    3    3    0    0 -0.30838864763E+02  0.90827434895E+01 -0.74623217826E+02  0.81253654981E+02  0.00000000000E+00 0.  1.
         14    1    3    3    0    0 -0.15135756187E+02  0.81263835418E+02 -0.39396632398E+02  0.91569627642E+02  0.00000000000E+00 0. -1.
        -11    1    4    4    0    0 -0.17162959952E+02  0.22889124351E+02 -0.30524649147E+02  0.41835791058E+02  0.00000000000E+00 0.  1.
         11    1    4    4    0    0  0.18900571973E+02 -0.68668265737E+02 -0.66855946406E+02  0.97684594026E+02  0.00000000000E+00 0. -1.
         21    1    1    2  502  501  0.44237008929E+02 -0.44567437522E+02 -0.14054946336E+03  0.15393934227E+03  0.00000000000E+00 0. -1.
<scales pt_clust_5="13000.00000" pt_clust_6="13000.00000" pt_clust_7="13000.00000" pt_clust_8="13000.00000" pt_clust_9="62.79466"></scales>
<clustering>
<clus scale="   62.795">  2  9  1 -1</clus>
<clus scale="   81.186">  5  6 -1 -1</clus>
<clus scale="   88.793">  7  8 -1 -1</clus>
<clus scale="  106.827">  2  5  1 -1</clus>
<clus scale="  112.716">  1  5  2 -1</clus>
</clustering>
</event>
<event>
 9    2  0.2869112E-005  0.1089155E+03  0.7546771E-02  0.1267474E+00
          2   -1    0    0  502    0  0.00000000000E+00  0.00000000000E+00  0.35785402410E+03  0.35785402410E+03  0.00000000000E+00 0. -1.
         -1   -1    0    0    0  501 -0.00000000000E+00 -0.00000000000E+00 -0.47211963907E+02  0.47211963907E+02  0.00000000000E+00 0.  1.
         23    2    1    2    0    0  0.99493384455E+01  0.63337960496E+02  0.66625708572E+02  0.13045067717E+03  0.92020147556E+02 0.  0.
         24    2    1    2    0    0  0.99297874234E+01 -0.56348601789E+02  0.22739367867E+03  0.24777608513E+03  0.80070829032E+02 0.  0.
        -13    1    4    4    0    0  0.26123078614E+02 -0.44745666701E+02  0.60315428045E+02  0.79514406148E+02  0.00000000000E+00 0.  1.
         14    1    4    4    0    0 -0.16193291190E+02 -0.11602935088E+02  0.16707825063E+03  0.16826167898E+03  0.00000000000E+00 0. -1.
        -13    1    3    3    0    0 -0.97381367253E+01  0.74468681085E+02  0.18608190937E+02  0.77373642408E+02  0.00000000000E+00 0.  1.
         13    1    3    3    0    0  0.19687475171E+02 -0.11130720589E+02  0.48017517635E+02  0.53077034763E+02  0.00000000000E+00 0. -1.
         21    1    1    2  502  501 -0.19879125869E+02 -0.69893587071E+01  0.16622672952E+02  0.26839225706E+02  0.00000000000E+00 0. -1.
<scales pt_clust_5="13000.00000" pt_clust_6="13000.00000" pt_clust_7="13000.00000" pt_clust_8="13000.00000" pt_clust_9="21.07204"></scales>
<clustering>
<clus scale="   21.072">  2  9  1 -1</clus>
<clus scale="   80.071">  5  6 -1 -1</clus>
<clus scale="   92.020">  7  8 -1 -1</clus>
<clus scale="   99.026">  1  5  2 -1</clus>
<clus scale="   99.026">  1  5  2 -1</clus>
</clustering>
</event>
<event>
 9    2  0.2869112E-005  0.1606468E+03  0.7546771E-02  0.1191495E+00
          2   -1    0    0  502    0  0.00000000000E+00  0.00000000000E+00  0.10814497584E+04  0.10814497584E+04  0.00000000000E+00 0. -1.
         -1   -1    0    0    0  501 -0.00000000000E+00 -0.00000000000E+00 -0.45718974525E+02  0.45718974525E+02  0.00000000000E+00 0.  1.
         24    2    1    2    0    0 -0.10345751359E+03  0.42209998102E+02  0.28540133996E+03  0.31705230934E+03  0.81136310921E+02 0.  0.
         23    2    1    2    0    0  0.14653676168E+03  0.63775713729E+02  0.50801737255E+03  0.54215386527E+03  0.10153225414E+03 0.  0.
        -11    1    3    3    0    0 -0.91437611089E+02  0.65068798592E+02  0.22918365119E+03  0.25518607181E+03  0.00000000000E+00 0.  1.
         12    1    3    3    0    0 -0.12019902502E+02 -0.22858800490E+02  0.56217688765E+02  0.61866237530E+02  0.00000000000E+00 0. -1.
        -13    1    4    4    0    0  0.90180529205E+02 -0.11181993620E+02  0.19026405394E+03  0.21085059889E+03  0.00000000000E+00 0.  1.
         13    1    4    4    0    0  0.56356232474E+02  0.74957707350E+02  0.31775331861E+03  0.33130326639E+03  0.00000000000E+00 0. -1.
         21    1    1    2  502  501 -0.43079248088E+02 -0.10598571183E+03  0.24231207137E+03  0.26796255831E+03  0.00000000000E+00 0. -1.
<scales pt_clust_5="13000.00000" pt_clust_6="13000.00000" pt_clust_7="13000.00000" pt_clust_8="13000.00000" pt_clust_9="114.40626"></scales>
<clustering>
<clus scale="   81.136">  5  6 -1 -1</clus>
<clus scale="  101.532">  7  8 -1 -1</clus>
<clus scale="  114.406">  2  9  1 -1</clus>
<clus scale="  148.599">  2  5  1 -1</clus>
<clus scale="  160.647">  1  5  2 -1</clus>
</clustering>
</event>
<event>
 9    2  0.2869112E-005  0.1272855E+03  0.7546771E-02  0.1234481E+00
         -1   -1    0    0    0  501 -0.00000000000E+00  0.00000000000E+00  0.18904431869E+03  0.18904431869E+03  0.00000000000E+00 0.  1.
          2   -1    0    0  502    0  0.00000000000E+00 -0.00000000000E+00 -0.13147105734E+03  0.13147105734E+03  0.00000000000E+00 0. -1.
         23    2    1    2    0    0  0.76874369441E+02 -0.33158792246E+02  0.71936124516E+02  0.14312827524E+03  0.91113791403E+02 0.  0.
         24    2    1    2    0    0 -0.67071281484E+02  0.63509976231E+02 -0.47564492266E+02  0.13134751915E+03  0.80359915266E+02 0.  0.
        -13    1    4    4    0    0 -0.22818121128E+02 -0.24774418386E+01  0.17330938579E+02  0.28760490293E+02  0.00000000000E+00 0.  1.
         14    1    4    4    0    0 -0.44253160356E+02  0.65987418070E+02 -0.64895430845E+02  0.10258702886E+03  0.00000000000E+00 0. -1.
        -11    1    3    3    0    0  0.11765920108E+02 -0.27726184202E+02 -0.15583089844E+02  0.33911809971E+02  0.00000000000E+00 0. -1.
         11    1    3    3    0    0  0.65108449333E+02 -0.54326080443E+01  0.87519214360E+02  0.10921646527E+03  0.00000000000E+00 0.  1.
         21    1    1    2  502  501 -0.98030879575E+01 -0.30351183985E+02  0.33201629103E+02  0.46039581643E+02  0.00000000000E+00 0. -1.
<scales pt_clust_5="13000.00000" pt_clust_6="13000.00000" pt_clust_7="13000.00000" pt_clust_8="13000.00000" pt_clust_9="31.89506"></scales>
<clustering>
<clus scale="   31.895">  1  9  2 -1</clus>
<clus scale="   80.360">  5  6 -1 -1</clus>
<clus scale="   91.114">  7  8 -1 -1</clus>
<clus scale="  119.823">  2  5  1 -1</clus>
<clus scale="  119.823">  2  5  1 -1</clus>
</clustering>
</event>
<event>
 9    2  0.2869112E-005  0.1239315E+03  0.7546771E-02  0.1239702E+00
          2   -1    0    0  502    0  0.00000000000E+00  0.00000000000E+00  0.47242955568E+03  0.47242955568E+03  0.00000000000E+00 0. -1.
         -1   -1    0    0    0  501 -0.00000000000E+00 -0.00000000000E+00 -0.39400474247E+02  0.39400474247E+02  0.00000000000E+00 0.  1.
         23    2    1    2    0    0  0.76869491747E+02 -0.57197613273E+00  0.13932832839E+03  0.18329595101E+03  0.90971295734E+02 0.  0.
         24    2    1    2    0    0 -0.95441741541E+02  0.10768195509E+02  0.24106901908E+03  0.27179792843E+03  0.80837874016E+02 0.  0.
        -13    1    4    4    0    0 -0.40919649492E+02 -0.15893647637E+02  0.32613837437E+02  0.54687184441E+02  0.00000000000E+00 0.  1.
         14    1    4    4    0    0 -0.54522092049E+02  0.26661843145E+02  0.20845518164E+03  0.21711074399E+03  0.00000000000E+00 0. -1.
        -11    1    3    3    0    0  0.25588553107E+02 -0.31046799165E+02  0.10889658105E+02  0.41680480349E+02  0.00000000000E+00 0.  1.
         11    1    3    3    0    0  0.51280938640E+02  0.30474823032E+02  0.12843867028E+03  0.14161547066E+03  0.00000000000E+00 0. -1.
         21    1    1    2  502  501  0.18572249794E+02 -0.10196219376E+02  0.52631733969E+02  0.56736150491E+02  0.00000000000E+00 0.  1.
<scales pt_clust_5="13000.00000" pt_clust_6="13000.00000" pt_clust_7="13000.00000" pt_clust_8="13000.00000" pt_clust_9="21.18706"></scales>
<clustering>
<clus scale="   21.187">  1  9  2 -1</clus>
<clus scale="   80.838">  5  6 -1 -1</clus>
<clus scale="   90.971">  7  8 -1 -1</clus>
<clus scale="  116.696">  1  5  2 -1</clus>
<clus scale="   21.187">  1  5  2 -1</clus>
</clustering>
</event>
<event>
 9    2  0.2869112E-005  0.1311954E+03  0.7546771E-02  0.1229325E+00
         -1   -1    0    0    0  501 -0.00000000000E+00  0.00000000000E+00  0.16528423357E+03  0.16528423357E+03  0.00000000000E+00 0.  1.
          2   -1    0    0  502    0  0.00000000000E+00 -0.00000000000E+00 -0.23056820165E+03  0.23056820165E+03  0.00000000000E+00 0. -1.
         23    2    1    2    0    0 -0.81133648046E+02 -0.79523031425E+02  0.67111446912E+02  0.16328597255E+03  0.96186179632E+02 0.  0.
         24    2    1    2    0    0  0.75867496176E+02  0.39429127013E+02 -0.14740707802E+03  0.18943174865E+03  0.82734561782E+02 0.  0.
        -13    1    4    4    0    0  0.64915353084E+02 -0.66224813364E+01 -0.53935508129E+02  0.84657541673E+02  0.00000000000E+00 0.  1.
         14    1    4    4    0    0  0.10952143093E+02  0.46051608349E+02 -0.93471569889E+02  0.10477420698E+03  0.00000000000E+00 0. -1.
        -13    1    3    3    0    0 -0.61526356750E+02 -0.30528773729E+02 -0.10449661806E+02  0.69474412788E+02  0.00000000000E+00 0. -1.
         13    1    3    3    0    0 -0.19607291296E+02 -0.48994257696E+02  0.77561108719E+02  0.93811559761E+02  0.00000000000E+00 0.  1.
         21    1    1    2  502  501  0.52661518695E+01  0.40093904412E+02  0.15011663027E+02  0.43134714017E+02  0.00000000000E+00 0. -1.
<scales pt_clust_5="13000.00000" pt_clust_6="13000.00000" pt_clust_7="13000.00000" pt_clust_8="13000.00000" pt_clust_9="40.43827"></scales>
<clustering>
<clus scale="   40.438">  1  9  2 -1</clus>
<clus scale="   82.735">  5  6 -1 -1</clus>
<clus scale="   96.186">  7  8 -1 -1</clus>
<clus scale="  121.678">  2  5  1 -1</clus>
<clus scale="  121.678">  2  5  1 -1</clus>
</clustering>
</event>
<event>
 9    2  0.2869112E-005  0.1575044E+03  0.7546771E-02  0.1193268E+00
          2   -1    0    0  502    0  0.00000000000E+00  0.00000000000E+00  0.10028881134E+04  0.10028881134E+04  0.00000000000E+00 0. -1.
         -1   -1    0    0    0  501 -0.00000000000E+00 -0.00000000000E+00 -0.46473162740E+02  0.46473162740E+02  0.00000000000E+00 0.  1.
         23    2    1    2    0    0 -0.86119602996E+02  0.92117688822E+02  0.14009343305E+03  0.20897559385E+03  0.90235105299E+02 0.  0.
         24    2    1    2    0    0  0.68433973876E+02 -0.11072607237E+03  0.78594525465E+03  0.80061420046E+03  0.79559303596E+02 0.  0.
        -13    1    4    4    0    0  0.50756377127E+02 -0.92218407193E+02  0.39352558713E+03  0.40736081325E+03  0.00000000000E+00 0.  1.
         14    1    4    4    0    0  0.17677596749E+02 -0.18507665175E+02  0.39241966752E+03  0.39325338721E+03  0.00000000000E+00 0. -1.
        -13    1    3    3    0    0 -0.81335844988E+02  0.21294105753E+02  0.76378607034E+02  0.11358983331E+03  0.00000000000E+00 0.  1.
         13    1    3    3    0    0 -0.47837580084E+01  0.70823583070E+02  0.63714826011E+02  0.95385760537E+02  0.00000000000E+00 0. -1.
         21    1    1    2  502  501  0.17685629120E+02  0.18608383545E+02  0.30376262980E+02  0.39771481845E+02  0.00000000000E+00 0. -1.
<scales pt_clust_5="13000.00000" pt_clust_6="13000.00000" pt_clust_7="13000.00000" pt_clust_8="13000.00000" pt_clust_9="25.67204"></scales>
<clustering>
<clus scale="   25.672">  2  9  1 -1</clus>
<clus scale="   79.559">  5  6 -1 -1</clus>
<clus scale="   90.235">  7  8 -1 -1</clus>
<clus scale="  151.641">  1  5  2 -1</clus>
<clus scale="  151.641">  1  5  2 -1</clus>
</clustering>
</event>
<event>
 9    2  0.2869112E-005  0.1086632E+03  0.7546771E-02  0.1267280E+00
         -1   -1    0    0    0  501 -0.00000000000E+00  0.00000000000E+00  0.11763496497E+02  0.11763496497E+02  0.00000000000E+00 0.  1.
          2   -1    0    0  502    0  0.00000000000E+00 -0.00000000000E+00 -0.21080639626E+04  0.21080639626E+04  0.00000000000E+00 0. -1.
         23    2    1    2    0    0  0.30926406058E+02  0.52493074314E+01 -0.34721184699E+03  0.36040448377E+03  0.91385597408E+02 0.  0.
         24    2    1    2    0    0 -0.60253849426E+02 -0.26480673557E+02 -0.16597204686E+04  0.16629992429E+04  0.81010466472E+02 0.  0.
        -11    1    4    4    0    0 -0.16056194646E+02 -0.13739236877E+02 -0.84330756935E+02  0.86938165277E+02  0.00000000000E+00 0.  1.
         12    1    4    4    0    0 -0.44197654780E+02 -0.12741436680E+02 -0.15753897116E+04  0.15760610776E+04  0.00000000000E+00 0. -1.
        -11    1    3    3    0    0  0.15263766566E+02 -0.42824490948E+02 -0.18444583111E+03  0.18996627124E+03  0.00000000000E+00 0. -1.
         11    1    3    3    0    0  0.15662639492E+02  0.48073798379E+02 -0.16276601588E+03  0.17043821253E+03  0.00000000000E+00 0.  1.
         21    1    1    2  502  501  0.29327443368E+02  0.21231366126E+02 -0.89368150581E+02  0.96423732454E+02  0.00000000000E+00 0.  1.
<scales pt_clust_5="13000.00000" pt_clust_6="13000.00000" pt_clust_7="13000.00000" pt_clust_8="13000.00000" pt_clust_9="36.20594"></scales>
<clustering>
<clus scale="   36.206">  1  9  2 -1</clus>
<clus scale="   81.010">  5  6 -1 -1</clus>
<clus scale="   91.386">  7  8 -1 -1</clus>
<clus scale="  100.095">  2  5  1 -1</clus>
<clus scale="  100.095">  2  5  1 -1</clus>
</clustering>
</event>
<event>
 9    2  0.2869112E-005  0.1008202E+03  0.7546771E-02  0.1282422E+00
         -1   -1    0    0    0  501 -0.00000000000E+00  0.00000000000E+00  0.54273601620E+02  0.54273601620E+02  0.00000000000E+00 0.  1.
          2   -1    0    0  502    0  0.00000000000E+00 -0.00000000000E+00 -0.40768731567E+03  0.40768731567E+03  0.00000000000E+00 0. -1.
         23    2    1    2    0    0  0.28909612671E+01 -0.63574973806E+02 -0.46041941191E+02  0.11952337187E+03  0.90087963247E+02 0.  0.
         24    2    1    2    0    0  0.57234758942E+01  0.41618467131E+02 -0.30512135347E+03  0.31874448525E+03  0.82061876344E+02 0.  0.
        -11    1    4    4    0    0  0.41655375777E+01 -0.22216830320E+02 -0.39069568693E+02  0.45137240176E+02  0.00000000000E+00 0.  1.
         12    1    4    4    0    0  0.15579383165E+01  0.63835297452E+02 -0.26605178478E+03  0.27360724507E+03  0.00000000000E+00 0. -1.
        -11    1    3    3    0    0  0.28513787956E+02 -0.41616384134E+01 -0.46632883439E+02  0.54817708413E+02  0.00000000000E+00 0. -1.
         11    1    3    3    0    0 -0.25622826689E+02 -0.59413335393E+02  0.59094224762E+00  0.64705663452E+02  0.00000000000E+00 0.  1.
         21    1    1    2  502  501 -0.86144371613E+01  0.21956506675E+02 -0.22504193840E+01  0.23693060173E+02  0.00000000000E+00 0.  1.
<scales pt_clust_5="13000.00000" pt_clust_6="13000.00000" pt_clust_7="13000.00000" pt_clust_8="13000.00000" pt_clust_9="23.58594"></scales>
<clustering>
<clus scale="   23.586">  1  9  2 -1</clus>
<clus scale="   82.062">  5  6 -1 -1</clus>
<clus scale="   90.088">  7  8 -1 -1</clus>
<clus scale="   93.718">  2  5  1 -1</clus>
<clus scale="   93.718">  2  5  1 -1</clus>
</clustering>
</event>
<event>
 9    2  0.2869112E-005  0.9827124E+02  0.7546771E-02  0.1288264E+00
          2   -1    0    0  502    0  0.00000000000E+00  0.00000000000E+00  0.41260707007E+03  0.41260707007E+03  0.00000000000E+00 0. -1.
         -1   -1    0    0    0  501 -0.00000000000E+00 -0.00000000000E+00 -0.43110676424E+02  0.43110676424E+02  0.00000000000E+00 0.  1.
         23    2    1    2    0    0  0.55631594378E+02 -0.24420461067E+02  0.65683704757E+02  0.12530971646E+03  0.87732221886E+02 0.  0.
         24    2    1    2    0    0 -0.34924434979E+02  0.20936260295E+02  0.29412564173E+03  0.30728304381E+03  0.79088132695E+02 0.  0.
        -11    1    4    4    0    0  0.15092526568E+02  0.17252100249E+02  0.26674696164E+02  0.35170424175E+02  0.00000000000E+00 0.  1.
         12    1    4    4    0    0 -0.50016961548E+02  0.36841600466E+01  0.26745094557E+03  0.27211261963E+03  0.00000000000E+00 0. -1.
        -11    1    3    3    0    0  0.33766780682E+02 -0.18977168276E+02 -0.15001334737E+02  0.41537554542E+02  0.00000000000E+00 0.  1.
         11    1    3    3    0    0  0.21864813696E+02 -0.54432927911E+01  0.80685039494E+02  0.83772161919E+02  0.00000000000E+00 0. -1.
         21    1    1    2  502  501 -0.20707159399E+02  0.34842007715E+01  0.96870471556E+01  0.23124986226E+02  0.00000000000E+00 0. -1.
<scales pt_clust_5="13000.00000" pt_clust_6="13000.00000" pt_clust_7="13000.00000" pt_clust_8="13000.00000" pt_clust_9="20.99824"></scales>
<clustering>
<clus scale="   20.998">  2  9  1 -1</clus>
<clus scale="   79.088">  5  6 -1 -1</clus>
<clus scale="   87.732">  7  8 -1 -1</clus>
<clus scale="   90.638">  1  5  2 -1</clus>
<clus scale="   90.638">  1  5  2 -1</clus>
</clustering>
</event>
<event>
 9    2  0.2869112E-005  0.1584767E+03  0.7546771E-02  0.1204188E+00
          4   -1    0    0  502    0  0.00000000000E+00  0.00000000000E+00  0.59131022545E+02  0.59131022545E+02  0.00000000000E+00 0. -1.
         -3   -1    0    0    0  501 -0.00000000000E+00 -0.00000000000E+00 -0.11390539557E+04  0.11390539557E+04  0.00000000000E+00 0.  1.
         24    2    1    2    0    0  0.14329032814E+03  0.46153536545E+02 -0.66666095965E+03  0.68816879062E+03  0.80480943011E+02 0.  0.
         23    2    1    2    0    0 -0.52659917135E+02  0.47151121084E+02 -0.56465876449E+02  0.13024904132E+03  0.93702307711E+02 0.  0.
        -11    1    3    3    0    0  0.10358153095E+03  0.69308677978E+02 -0.47612201724E+03  0.49216359241E+03  0.00000000000E+00 0.  1.
         12    1    3    3    0    0  0.39708797195E+02 -0.23155141434E+02 -0.19053894241E+03  0.19600519821E+03  0.00000000000E+00 0. -1.
        -13    1    4    4    0    0 -0.61748557266E+02  0.65902117663E+02 -0.27190156926E+02  0.94314781825E+02  0.00000000000E+00 0. -1.
         13    1    4    4    0    0  0.90886401313E+01 -0.18750996579E+02 -0.29275719523E+02  0.35934259499E+02  0.00000000000E+00 0.  1.
         21    1    1    2  502  501 -0.90630411006E+02 -0.93304657628E+02 -0.35679609701E+03  0.37976714626E+03  0.00000000000E+00 0. -1.
<scales pt_clust_5="13000.00000" pt_clust_6="13000.00000" pt_clust_7="13000.00000" pt_clust_8="13000.00000" pt_clust_9="136.51990"></scales>
<clustering>
<clus scale="   80.481">  5  6 -1 -1</clus>
<clus scale="   93.702">  7  8 -1 -1</clus>
<clus scale="  117.373">  1  7  2 -1</clus>
<clus scale="  136.520">  1  9  2 -1</clus>
<clus scale="  117.373">  1  5  2 -1</clus>
</clustering>
</event>
<event>
 9    2  0.2869112E-005  0.1166379E+03  0.7546771E-02  0.1256357E+00
          4   -1    0    0  502    0  0.00000000000E+00  0.00000000000E+00  0.20505875304E+03  0.20505875304E+03  0.00000000000E+00 0. -1.
         -3   -1    0    0    0  501 -0.00000000000E+00 -0.00000000000E+00 -0.11498998584E+03  0.11498998584E+03  0.00000000000E+00 0.  1.
         24    2    1    2    0    0 -0.58108795409E+02 -0.51614738198E+02  0.10318152517E+02  0.11026662584E+03  0.77534193750E+02 0.  0.
         23    2    1    2    0    0  0.34671016793E+02  0.45905148317E+02  0.11854721106E+03  0.16409727119E+03  0.97801386059E+02 0.  0.
        -11    1    3    3    0    0 -0.71671525004E+02 -0.54699838674E+02 -0.40731428458E+01  0.90252259473E+02  0.00000000000E+00 0.  1.
         12    1    3    3    0    0  0.13562729595E+02  0.30851004758E+01  0.14391295363E+02  0.20014366371E+02  0.00000000000E+00 0. -1.
        -13    1    4    4    0    0  0.24535181919E+02  0.76925226284E+02  0.87320024561E+02  0.11892961061E+03  0.00000000000E+00 0. -1.
         13    1    4    4    0    0  0.10135834874E+02 -0.31020077968E+02  0.31227186502E+02  0.45167660583E+02  0.00000000000E+00 0.  1.
         21    1    1    2  502  501  0.23437778616E+02  0.57095898814E+01 -0.38796596382E+02  0.45684841839E+02  0.00000000000E+00 0. -1.
<scales pt_clust_5="13000.00000" pt_clust_6="13000.00000" pt_clust_7="13000.00000" pt_clust_8="13000.00000" pt_clust_9="24.12320"></scales>
<clustering>
<clus scale="   24.123">  2  9  1 -1</clus>
<clus scale="   77.534">  5  6 -1 -1</clus>
<clus scale="   97.801">  7  8 -1 -1</clus>
<clus scale="  100.254">  2  5  1 -1</clus>
<clus scale="  116.638">  1  5  2 -1</clus>
</clustering>
</event>
<event>
 9    2  0.2869112E-005  0.1389936E+03  0.7546771E-02  0.1217175E+00
          2   -1    0    0  502    0  0.00000000000E+00  0.00000000000E+00  0.14282991924E+04  0.14282991924E+04  0.00000000000E+00 0. -1.
         -1   -1    0    0    0  501 -0.00000000000E+00 -0.00000000000E+00 -0.29781950306E+02  0.29781950306E+02  0.00000000000E+00 0.  1.
         23    2    1    2    0    0 -0.59872957791E+02  0.11466450292E+03  0.44646153939E+03  0.47371431622E+03  0.91348935031E+02 0.  0.
         24    2    1    2    0    0  0.73066607851E+02 -0.66237290363E+02  0.91016371945E+03  0.91898941769E+03  0.80108962100E+02 0.  0.
        -11    1    4    4    0    0 -0.11079149484E+02 -0.22228795060E+02  0.90596332379E+02  0.93939141595E+02  0.00000000000E+00 0.  1.
         12    1    4    4    0    0  0.84145757336E+02 -0.44008495303E+02  0.81956738707E+03  0.82505027609E+03  0.00000000000E+00 0. -1.
        -13    1    3    3    0    0 -0.51448155870E+02  0.27437418835E+02  0.27548692887E+03  0.28158972402E+03  0.00000000000E+00 0. -1.
         13    1    3    3    0    0 -0.84248019207E+01  0.87227084086E+02  0.17097461052E+03  0.19212459220E+03  0.00000000000E+00 0.  1.
         21    1    1    2  502  501 -0.13193650060E+02 -0.48427212558E+02  0.41891983218E+02  0.65377408759E+02  0.00000000000E+00 0.  1.
<scales pt_clust_5="13000.00000" pt_clust_6="13000.00000" pt_clust_7="13000.00000" pt_clust_8="13000.00000" pt_clust_9="50.19230"></scales>
<clustering>
<clus scale="   50.192">  2  9  1 -1</clus>
<clus scale="   80.109">  5  6 -1 -1</clus>
<clus scale="   91.349">  7  8 -1 -1</clus>
<clus scale="  131.879">  1  5  2 -1</clus>
<clus scale="  131.879">  1  5  2 -1</clus>
</clustering>
</event>
<event>
 9    2  0.2869112E-005  0.9318169E+02  0.7546771E-02  0.1302783E+00
         -1   -1    0    0    0  501 -0.00000000000E+00  0.00000000000E+00  0.46307848198E+02  0.46307848198E+02  0.00000000000E+00 0.  1.
          2   -1    0    0  502    0  0.00000000000E+00 -0.00000000000E+00 -0.34627401914E+03  0.34627401914E+03  0.00000000000E+00 0. -1.
         23    2    1    2    0    0 -0.28811211186E+02  0.47346848676E+01 -0.50580684678E+02  0.10959580197E+03  0.92737969653E+02 0.  0.
         24    2    1    2    0    0 -0.43399629068E+01 -0.98356043825E+01 -0.23059568310E+03  0.24454030583E+03  0.80684680828E+02 0.  0.
        -11    1    4    4    0    0  0.36630875239E+02  0.64349350853E+01 -0.98866192633E+02  0.10563026771E+03  0.00000000000E+00 0.  1.
         12    1    4    4    0    0 -0.40970838145E+02 -0.16270539468E+02 -0.13172949047E+03  0.13891003813E+03  0.00000000000E+00 0. -1.
        -13    1    3    3    0    0 -0.94586581749E+01  0.31236168454E+02 -0.65779933779E+02  0.73431356532E+02  0.00000000000E+00 0. -1.
         13    1    3    3    0    0 -0.19352553011E+02 -0.26501483586E+02  0.15199249101E+02  0.36164445434E+02  0.00000000000E+00 0.  1.
         21    1    1    2  502  501  0.33151174093E+02  0.51009195149E+01 -0.18789803162E+02  0.38445759539E+02  0.00000000000E+00 0. -1.
<scales pt_clust_5="13000.00000" pt_clust_6="13000.00000" pt_clust_7="13000.00000" pt_clust_8="13000.00000" pt_clust_9="33.54131"></scales>
<clustering>
<clus scale="   33.541">  1  9  2 -1</clus>
<clus scale="   80.685">  5  6 -1 -1</clus>
<clus scale="   81.194">  2  5  1 -1</clus>
<clus scale="   92.738">  7  8 -1 -1</clus>
<clus scale="   81.194">  2  5  1 -1</clus>
</clustering>
</event>
<event>
 9    2  0.2869112E-005  0.1002346E+03  0.7546771E-02  0.1284279E+00
          2   -1    0    0  502    0  0.00000000000E+00  0.00000000000E+00  0.67328267212E+02  0.67328267212E+02  0.00000000000E+00 0. -1.
         -1   -1    0    0    0  501 -0.00000000000E+00 -0.00000000000E+00 -0.28195431051E+03  0.28195431051E+03  0.00000000000E+00 0.  1.
         23    2    1    2    0    0 -0.38301068891E+02 -0.64903166016E+01 -0.17831412666E+03  0.20327230952E+03  0.89524342853E+02 0.  0.
         24    2    1    2    0    0  0.44096558118E+02 -0.17773967899E+02  0.95586980639E+01  0.93794786869E+02  0.80284948542E+02 0.  0.
        -13    1    4    4    0    0  0.41193472721E+02 -0.45440620929E+02 -0.64954976427E+01  0.61676119486E+02  0.00000000000E+00 0.  1.
         14    1    4    4    0    0  0.29030853969E+01  0.27666653030E+02  0.16054195707E+02  0.32118667383E+02  0.00000000000E+00 0. -1.
        -13    1    3    3    0    0 -0.26971725695E+02 -0.45169642705E+02 -0.69026484302E+02  0.86789550893E+02  0.00000000000E+00 0.  1.
         13    1    3    3    0    0 -0.11329343196E+02  0.38679326104E+02 -0.10928764236E+03  0.11648275863E+03  0.00000000000E+00 0. -1.
         21    1    1    2  502  501 -0.57954892269E+01  0.24264284501E+02 -0.45870614699E+02  0.52215481331E+02  0.00000000000E+00 0.  1.
<scales pt_clust_5="13000.00000" pt_clust_6="13000.00000" pt_clust_7="13000.00000" pt_clust_8="13000.00000" pt_clust_9="24.94681"></scales>
<clustering>
<clus scale="   24.947">  2  9  1 -1</clus>
<clus scale="   80.285">  5  6 -1 -1</clus>
<clus scale="   89.524">  7  8 -1 -1</clus>
<clus scale="   92.076">  1  5  2 -1</clus>
<clus scale="   92.076">  1  5  2 -1</clus>
</clustering>
</event>
<event>
 9    2  0.2869112E-005  0.1725228E+03  0.7546771E-02  0.1176291E+00
         -1   -1    0    0    0  501 -0.00000000000E+00  0.00000000000E+00  0.19223677705E+03  0.19223677705E+03  0.00000000000E+00 0.  1.
          2   -1    0    0  502    0  0.00000000000E+00 -0.00000000000E+00 -0.67390371923E+03  0.67390371923E+03  0.00000000000E+00 0. -1.
         24    2    1    2    0    0 -0.27166737625E+01  0.14525891530E+03  0.12371612381E+03  0.20700177477E+03  0.80227942001E+02 0.  0.
         23    2    1    2    0    0 -0.25038364418E+02 -0.18609023786E+03 -0.52825198999E+03  0.56755956486E+03  0.88414921850E+02 0.  0.
        -13    1    3    3    0    0  0.28465598666E+02  0.12629928163E+03  0.96013179524E+02  0.16118414776E+03  0.00000000000E+00 0.  1.
         14    1    3    3    0    0 -0.31182272428E+02  0.18959633672E+02  0.27702944291E+02  0.45817627013E+02  0.00000000000E+00 0. -1.
        -13    1    4    4    0    0 -0.45383526616E+02 -0.10895014602E+03 -0.39495705188E+03  0.41221459415E+03  0.00000000000E+00 0. -1.
         13    1    4    4    0    0  0.20345162198E+02 -0.77140091849E+02 -0.13329493812E+03  0.15534497070E+03  0.00000000000E+00 0.  1.
         21    1    1    2  502  501  0.27755038181E+02  0.40831322566E+02 -0.77131075999E+02  0.91579156644E+02  0.00000000000E+00 0.  1.
<scales pt_clust_5="13000.00000" pt_clust_6="13000.00000" pt_clust_7="13000.00000" pt_clust_8="13000.00000" pt_clust_9="49.37144"></scales>
<clustering>
<clus scale="   49.371">  2  9  1 -1</clus>
<clus scale="   80.228">  5  6 -1 -1</clus>
<clus scale="   88.415">  7  8 -1 -1</clus>
<clus scale="  168.474">  1  5  2 -1</clus>
<clus scale="   49.371">  2  5  1 -1</clus>
</clustering>
</event>
<event>
 9    2  0.2869112E-005  0.1166996E+03  0.7546771E-02  0.1257666E+00
          2   -1    0    0  502    0  0.00000000000E+00  0.00000000000E+00  0.51829934342E+03  0.51829934342E+03  0.00000000000E+00 0. -1.
         -1   -1    0    0    0  501 -0.00000000000E+00 -0.00000000000E+00 -0.14076701403E+03  0.14076701403E+03  0.00000000000E+00 0.  1.
         23    2    1    2    0    0 -0.68028078777E+02  0.26824698314E+02 -0.93758737129E+02  0.15767082782E+03  0.10354711592E+03 0.  0.
         24    2    1    2    0    0  0.48670131328E+02 -0.21140286890E+02  0.47131722723E+03  0.48122021434E+03  0.81346620045E+02 0.  0.
        -13    1    4    4    0    0  0.50799295948E+02  0.29904565194E+01  0.13901320271E+03  0.14803439407E+03  0.00000000000E+00 0.  1.
         14    1    4    4    0    0 -0.21291646197E+01 -0.24130743410E+02  0.33230402451E+03  0.33318582027E+03  0.00000000000E+00 0. -1.
        -11    1    3    3    0    0 -0.11111150976E+02  0.59888437170E+02 -0.46806000437E+02  0.76817213303E+02  0.00000000000E+00 0.  1.
         11    1    3    3    0    0 -0.56916927801E+02 -0.33063738857E+02 -0.46952736692E+02  0.80853614516E+02  0.00000000000E+00 0. -1.
         21    1    1    2  502  501  0.19357947449E+02 -0.56844114237E+01 -0.26160711124E-01  0.20175315290E+02  0.00000000000E+00 0.  1.
<scales pt_clust_5="13000.00000" pt_clust_6="13000.00000" pt_clust_7="13000.00000" pt_clust_8="13000.00000" pt_clust_9="20.17530"></scales>
<clustering>
<clus scale="   20.175">  2  9  1 -1</clus>
<clus scale="   81.347">  5  6 -1 -1</clus>
<clus scale="   97.540">  1  5  2 -1</clus>
<clus scale="  103.547">  7  8 -1 -1</clus>
<clus scale="   97.540">  1  5  2 -1</clus>
</clustering>
</event>
<event>
 9    2  0.2869112E-005  0.1143191E+03  0.7546771E-02  0.1259181E+00
         -1   -1    0    0    0  501 -0.00000000000E+00  0.00000000000E+00  0.33618451341E+03  0.33618451341E+03  0.00000000000E+00 0.  1.
          2   -1    0    0  502    0  0.00000000000E+00 -0.00000000000E+00 -0.94552894453E+02  0.94552894453E+02  0.00000000000E+00 0. -1.
         23    2    1    2    0    0 -0.77238711971E+02 -0.26306861554E+02  0.25928408002E+03  0.28804710836E+03  0.95315438903E+02 0.  0.
         24    2    1    2    0    0  0.61040604148E+02  0.36827550832E+01 -0.39771213260E+02  0.10714500320E+03  0.78477922156E+02 0.  0.
        -13    1    4    4    0    0  0.29098100321E+02  0.16795423028E+02  0.19282329321E+02  0.38737499932E+02  0.00000000000E+00 0.  1.
         14    1    4    4    0    0  0.31942503827E+02 -0.13112667945E+02 -0.59053542580E+02  0.68407503263E+02  0.00000000000E+00 0. -1.
        -13    1    3    3    0    0 -0.53902504873E+02 -0.31704125038E+02  0.25640703455E+03  0.26392271395E+03  0.00000000000E+00 0.  1.
         13    1    3    3    0    0 -0.23336207098E+02  0.53972634841E+01  0.28770454698E+01  0.24124394406E+02  0.00000000000E+00 0. -1.
         21    1    1    2  502  501  0.16198107823E+02  0.22624106471E+02  0.22118752197E+02  0.35545296305E+02  0.00000000000E+00 0. -1.
<scales pt_clust_5="13000.00000" pt_clust_6="13000.00000" pt_clust_7="13000.00000" pt_clust_8="13000.00000" pt_clust_9="27.82497"></scales>
<clustering>
<clus scale="   27.825">  1  9  2 -1</clus>
<clus scale="   78.478">  5  6 -1 -1</clus>
<clus scale="   95.315">  7  8 -1 -1</clus>
<clus scale="  100.711">  2  5  1 -1</clus>
<clus scale="  100.711">  2  5  1 -1</clus>
</clustering>
</event>
<event>
 9    2  0.2869112E-005  0.1107899E+03  0.7546771E-02  0.1263851E+00
         -1   -1    0    0    0  501 -0.00000000000E+00  0.00000000000E+00  0.22697635305E+02  0.22697635305E+02  0.00000000000E+00 0.  1.
          2   -1    0    0  502    0  0.00000000000E+00 -0.00000000000E+00 -0.64215606138E+03  0.64215606138E+03  0.00000000000E+00 0. -1.
         24    2    1    2    0    0 -0.46287814411E+02 -0.40316164898E+02 -0.18548246447E+03  0.21146486824E+03  0.80905444553E+02 0.  0.
         23    2    1    2    0    0  0.56319090488E+02  0.22723396398E+02 -0.37019184187E+03  0.38646688934E+03  0.92878760076E+02 0.  0.
        -11    1    3    3    0    0 -0.46176472744E+01 -0.31602707553E+02 -0.14167272850E+02  0.34939453502E+02  0.00000000000E+00 0.  1.
         12    1    3    3    0    0 -0.41670167137E+02 -0.87134573449E+01 -0.17131519162E+03  0.17652541474E+03  0.00000000000E+00 0. -1.
        -11    1    4    4    0    0 -0.26148522380E+02  0.50832028039E+01 -0.89200272690E+02  0.93092818313E+02  0.00000000000E+00 0.  1.
         11    1    4    4    0    0  0.82467612868E+02  0.17640193594E+02 -0.28099156918E+03  0.29337407103E+03  0.00000000000E+00 0. -1.
         21    1    1    2  502  501 -0.10031276077E+02  0.17592768500E+02 -0.63784119729E+02  0.66921939099E+02  0.00000000000E+00 0. -1.
<scales pt_clust_5="13000.00000" pt_clust_6="13000.00000" pt_clust_7="13000.00000" pt_clust_8="13000.00000" pt_clust_9="20.25172"></scales>
<clustering>
<clus scale="   20.252">  2  9  1 -1</clus>
<clus scale="   80.905">  5  6 -1 -1</clus>
<clus scale="   92.879">  7  8 -1 -1</clus>
<clus scale="  100.964">  1  5  2 -1</clus>
<clus scale="   20.252">  2  5  1 -1</clus>
</clustering>
</event>
<event>
 9    2  0.2869112E-005  0.1347168E+03  0.7546771E-02  0.1222589E+00
          2   -1    0    0  502    0  0.00000000000E+00  0.00000000000E+00  0.54843816588E+03  0.54843816588E+03  0.00000000000E+00 0. -1.
         -1   -1    0    0    0  501 -0.00000000000E+00 -0.00000000000E+00 -0.57738122727E+02  0.57738122727E+02  0.00000000000E+00 0.  1.
         23    2    1    2    0    0  0.76338770507E+02 -0.77344644365E+02  0.17289834516E+03  0.22344426127E+03  0.90684608629E+02 0.  0.
         24    2    1    2    0    0 -0.46457280924E+02  0.84748776492E+02  0.32684173924E+03  0.35064703181E+03  0.82384369534E+02 0.  0.
        -13    1    4    4    0    0  0.94321787090E+01  0.35190062019E+02  0.39419126829E+02  0.53676568632E+02  0.00000000000E+00 0.  1.
         14    1    4    4    0    0 -0.55889459633E+02  0.49558714473E+02  0.28742261241E+03  0.29697046318E+03  0.00000000000E+00 0. -1.
        -13    1    3    3    0    0 -0.37336393351E+01 -0.56855645214E+02  0.52993709698E+02  0.77812837777E+02  0.00000000000E+00 0.  1.
         13    1    3    3    0    0  0.80072409842E+02 -0.20488999152E+02  0.11990463546E+03  0.14563142349E+03  0.00000000000E+00 0. -1.
         21    1    1    2  502  501 -0.29881489583E+02 -0.74041321269E+01 -0.90400412394E+01  0.32084995526E+02  0.00000000000E+00 0.  1.
<scales pt_clust_5="13000.00000" pt_clust_6="13000.00000" pt_clust_7="13000.00000" pt_clust_8="13000.00000" pt_clust_9="30.78514"></scales>
<clustering>
<clus scale="   30.785">  2  9  1 -1</clus>
<clus scale="   82.384">  5  6 -1 -1</clus>
<clus scale="   90.685">  7  8 -1 -1</clus>
<clus scale="  129.275">  1  5  2 -1</clus>
<clus scale="  129.275">  1  5  2 -1</clus>
</clustering>
</event>
<event>
 9    2  0.2869112E-005  0.4140436E+03  0.7546771E-02  0.1039023E+00
          2   -1    0    0  502    0  0.00000000000E+00  0.00000000000E+00  0.28804675067E+04  0.28804675067E+04  0.00000000000E+00 0. -1.
         -1   -1    0    0    0  501 -0.00000000000E+00 -0.00000000000E+00 -0.65607285989E+02  0.65607285989E+02  0.00000000000E+00 0.  1.
         24    2    1    2    0    0 -0.10831367483E+02 -0.21206503261E+03  0.30711240452E+03  0.38258702798E+03  0.83462017655E+02 0.  0.
         23    2    1    2    0    0 -0.67320114337E+02 -0.11635896202E+03  0.46980735483E+03  0.49777449844E+03  0.94810837009E+02 0.  0.
        -11    1    3    3    0    0  0.32927054615E+02 -0.47119103781E+02  0.75212658657E+02  0.94664380255E+02  0.00000000000E+00 0.  1.
         12    1    3    3    0    0 -0.43758422098E+02 -0.16494592883E+03  0.23189974587E+03  0.28792264773E+03  0.00000000000E+00 0. -1.
        -11    1    4    4    0    0  0.27405337027E+01 -0.61381871391E+02  0.29788359562E+03  0.30415437067E+03  0.00000000000E+00 0.  1.
         11    1    4    4    0    0 -0.70060648039E+02 -0.54977090628E+02  0.17192375921E+03  0.19362012777E+03  0.00000000000E+00 0. -1.
         21    1    1    2  502  501  0.78151481820E+02  0.32842399463E+03  0.20379404614E+04  0.20657132663E+04  0.00000000000E+00 0. -1.
<scales pt_clust_5="13000.00000" pt_clust_6="13000.00000" pt_clust_7="13000.00000" pt_clust_8="13000.00000" pt_clust_9="337.59439"></scales>
<clustering>
<clus scale="   83.462">  5  6 -1 -1</clus>
<clus scale="   94.811">  7  8 -1 -1</clus>
<clus scale="  147.786">  5  7 -1 -1</clus>
<clus scale="  337.594">  1  9  2 -1</clus>
<clus scale="  337.594">  1  5  2 -1</clus>
</clustering>
</event>
<event>
 9    2  0.2869112E-005  0.1085686E+03  0.7546771E-02  0.1271985E+00
          2   -1    0    0  502    0  0.00000000000E+00  0.00000000000E+00  0.36874220558E+03  0.36874220558E+03  0.00000000000E+00 0. -1.
         -1   -1    0    0    0  501 -0.00000000000E+00 -0.00000000000E+00 -0.82969421763E+02  0.82969421763E+02  0.00000000000E+00 0.  1.
         23    2    1    2    0    0 -0.22866390765E+00  0.50024093622E+02  0.29435716423E+02  0.11937080633E+03  0.10430947115E+03 0.  0.
         24    2    1    2    0    0  0.10159048996E+02 -0.25428614785E+02  0.28150547872E+03  0.29577582332E+03  0.86534284457E+02 0.  0.
        -11    1    4    4    0    0  0.42060375363E+02  0.96659891333E+01  0.12485451055E+03  0.13210282104E+03  0.00000000000E+00 0.  1.
         12    1    4    4    0    0 -0.31901326367E+02 -0.35094603918E+02  0.15665096817E+03  0.16367300228E+03  0.00000000000E+00 0. -1.
        -11    1    3    3    0    0 -0.40365132278E+02 -0.10432635225E+02  0.19842410598E+02  0.46172557216E+02  0.00000000000E+00 0. -1.
         11    1    3    3    0    0  0.40136468371E+02  0.60456728847E+02  0.95933058248E+01  0.73198249110E+02  0.00000000000E+00 0.  1.
         21    1    1    2  502  501 -0.99303850884E+01 -0.24595478837E+02 -0.25168411329E+02  0.36564997690E+02  0.00000000000E+00 0.  1.
<scales pt_clust_5="13000.00000" pt_clust_6="13000.00000" pt_clust_7="13000.00000" pt_clust_8="13000.00000" pt_clust_9="26.52452"></scales>
<clustering>
<clus scale="   26.525">  2  9  1 -1</clus>
<clus scale="   86.534">  5  6 -1 -1</clus>
<clus scale="   91.623">  1  5  2 -1</clus>
<clus scale="  104.309">  7  8 -1 -1</clus>
<clus scale="   91.623">  1  5  2 -1</clus>
</clustering>
</event>
<event>
 9    2  0.2869112E-005  0.1137626E+03  0.7546771E-02  0.1261908E+00
          2   -1    0    0  502    0  0.00000000000E+00  0.00000000000E+00  0.45137556485E+03  0.45137556485E+03  0.00000000000E+00 0. -1.
         -1   -1    0    0    0  501 -0.00000000000E+00 -0.00000000000E+00 -0.34451792664E+02  0.34451792664E+02  0.00000000000E+00 0.  1.
         23    2    1    2    0    0  0.24446685523E+02 -0.67258393078E+02  0.21227935153E+03  0.24567397960E+03  0.10085558634E+03 0.  0.
         24    2    1    2    0    0 -0.12172762629E+02  0.38153208192E+02  0.17372582384E+03  0.19595246616E+03  0.81319515981E+02 0.  0.
        -13    1    4    4    0    0 -0.27090689982E+02 -0.17968620873E+02  0.58764717588E+02  0.67157046190E+02  0.00000000000E+00 0.  1.
         14    1    4    4    0    0  0.14917927354E+02  0.56121829065E+02  0.11496110625E+03  0.12879541997E+03  0.00000000000E+00 0. -1.
        -11    1    3    3    0    0  0.53854035304E+02 -0.31594835477E+02  0.60229043378E+02  0.86752685340E+02  0.00000000000E+00 0.  1.
         11    1    3    3    0    0 -0.29407349781E+02 -0.35663557601E+02  0.15205030815E+03  0.15892129426E+03  0.00000000000E+00 0. -1.
         21    1    1    2  502  501 -0.12273922895E+02  0.29105184886E+02  0.30918596818E+02  0.44200911752E+02  0.00000000000E+00 0. -1.
<scales pt_clust_5="13000.00000" pt_clust_6="13000.00000" pt_clust_7="13000.00000" pt_clust_8="13000.00000" pt_clust_9="31.58735"></scales>
<clustering>
<clus scale="   31.587">  2  9  1 -1</clus>
<clus scale="   81.320">  5  6 -1 -1</clus>
<clus scale="   96.866">  1  5  2 -1</clus>
<clus scale="  100.856">  7  8 -1 -1</clus>
<clus scale="   96.866">  1  5  2 -1</clus>
</clustering>
</event>
<event>
 9    2  0.2869112E-005  0.1073689E+03  0.7546771E-02  0.1269543E+00
         -1   -1    0    0    0  501 -0.00000000000E+00  0.00000000000E+00  0.28385983121E+02  0.28385983121E+02  0.00000000000E+00 0.  1.
          2   -1    0    0  502    0  0.00000000000E+00 -0.00000000000E+00 -0.13282826501E+04  0.13282826501E+04  0.00000000000E+00 0. -1.
         23    2    1    2    0    0  0.69872809073E+02  0.54490991673E+01 -0.17315975027E+03  0.20813866168E+03  0.91790529158E+02 0.  0.
         24    2    1    2    0    0 -0.45435566184E+02  0.32159897787E+02 -0.10769619052E+04  0.10815287234E+04  0.82211826456E+02 0.  0.
        -11    1    4    4    0    0 -0.81642352406E+01 -0.19661201586E+02 -0.89154034511E+02  0.91660566518E+02  0.00000000000E+00 0.  1.
         12    1    4    4    0    0 -0.37271330943E+02  0.51821099373E+02 -0.98780787073E+03  0.98986815684E+03  0.00000000000E+00 0. -1.
        -11    1    3    3    0    0  0.23524799173E+02  0.28956551124E+02 -0.12600676954E+02  0.39378612074E+02  0.00000000000E+00 0.  1.
         11    1    3    3    0    0  0.46348009899E+02 -0.23507451957E+02 -0.16055907331E+03  0.16876004960E+03  0.00000000000E+00 0. -1.
         21    1    1    2  502  501 -0.24437242889E+02 -0.37608996954E+02 -0.49775011487E+02  0.67001248201E+02  0.00000000000E+00 0. -1.
<scales pt_clust_5="13000.00000" pt_clust_6="13000.00000" pt_clust_7="13000.00000" pt_clust_8="13000.00000" pt_clust_9="44.85104"></scales>
<clustering>
<clus scale="   44.851">  1  9  2 -1</clus>
<clus scale="   82.212">  5  6 -1 -1</clus>
<clus scale="   91.791">  7  8 -1 -1</clus>
<clus scale="   99.304">  2  5  1 -1</clus>
<clus scale="   99.304">  2  5  1 -1</clus>
</clustering>
</event>
<event>
 9    2  0.2869112E-005  0.9675925E+02  0.7546771E-02  0.1305701E+00
         -1   -1    0    0    0  501 -0.00000000000E+00  0.00000000000E+00  0.27062470432E+02  0.27062470432E+02  0.00000000000E+00 0.  1.
          2   -1    0    0  502    0  0.00000000000E+00 -0.00000000000E+00 -0.53525177643E+03  0.53525177643E+03  0.00000000000E+00 0. -1.
         24    2    1    2    0    0 -0.16553065116E+02 -0.35192065516E+02 -0.82401699751E+02  0.11040721588E+03  0.62347636338E+02 0.  0.
         23    2    1    2    0    0  0.23650969491E+02  0.12964915564E+02 -0.41535815422E+03  0.42634925504E+03  0.92324609967E+02 0.  0.
        -13    1    3    3    0    0 -0.23902242937E+02 -0.48916829022E+02 -0.47743268004E+02  0.72412657862E+02  0.00000000000E+00 0.  1.
         14    1    3    3    0    0  0.73491778205E+01  0.13724763506E+02 -0.34658431748E+02  0.37994558020E+02  0.00000000000E+00 0. -1.
        -13    1    4    4    0    0  0.42971108395E+02  0.41801094076E+02 -0.29779282340E+03  0.30376703786E+03  0.00000000000E+00 0. -1.
         13    1    4    4    0    0 -0.19320138903E+02 -0.28836178511E+02 -0.11756533081E+03  0.12258221717E+03  0.00000000000E+00 0.  1.
         21    1    1    2  502  501 -0.70979043750E+01  0.22227149951E+02 -0.10429452036E+02  0.25557775945E+02  0.00000000000E+00 0.  1.
<scales pt_clust_5="13000.00000" pt_clust_6="13000.00000" pt_clust_7="13000.00000" pt_clust_8="13000.00000" pt_clust_9="23.33295"></scales>
<clustering>
<clus scale="   23.333">  1  9  2 -1</clus>
<clus scale="   62.348">  5  6 -1 -1</clus>
<clus scale="   68.744">  1  5  2 -1</clus>
<clus scale="   92.325">  7  8 -1 -1</clus>
<clus scale="   96.759">  2  5  1 -1</clus>
</clustering>
</event>
<event>
 9    2  0.2869112E-005  0.9591519E+02  0.7546771E-02  0.1293012E+00
         -1   -1    0    0    0  501 -0.00000000000E+00  0.00000000000E+00  0.92770276033E+02  0.92770276033E+02  0.00000000000E+00 0.  1.
          2   -1    0    0  502    0  0.00000000000E+00 -0.00000000000E+00 -0.14483476254E+03  0.14483476254E+03  0.00000000000E+00 0. -1.
         24    2    1    2    0    0 -0.61485481881E+00 -0.74843344036E+01  0.16586092902E+02  0.87626889513E+02  0.85714526074E+02 0.  0.
         23    2    1    2    0    0  0.45409792083E+01  0.32344035322E+02 -0.75463648464E+02  0.12390446324E+03  0.92686550575E+02 0.  0.
        -11    1    3    3    0    0  0.38749500271E+02  0.11376838963E+02  0.17389281655E+02  0.43969800460E+02  0.00000000000E+00 0.  1.
         12    1    3    3    0    0 -0.39364355090E+02 -0.18861173367E+02 -0.80318875317E+00  0.43657089053E+02  0.00000000000E+00 0. -1.
        -13    1    4    4    0    0 -0.16057403113E+02 -0.28409966650E+02 -0.15641012848E+02  0.36188502079E+02  0.00000000000E+00 0.  1.
         13    1    4    4    0    0  0.20598382321E+02  0.60754001972E+02 -0.59822635616E+02  0.87715961159E+02  0.00000000000E+00 0. -1.
         21    1    1    2  502  501 -0.39261243895E+01 -0.24859700918E+02  0.68130690545E+01  0.26073685823E+02  0.00000000000E+00 0.  1.
<scales pt_clust_5="13000.00000" pt_clust_6="13000.00000" pt_clust_7="13000.00000" pt_clust_8="13000.00000" pt_clust_9="25.16782"></scales>
<clustering>
<clus scale="   25.168">  1  9  2 -1</clus>
<clus scale="   85.715">  5  6 -1 -1</clus>
<clus scale="   89.196">  1  5  2 -1</clus>
<clus scale="   92.687">  7  8 -1 -1</clus>
<clus scale="   95.915">  2  5  1 -1</clus>
</clustering>
</event>
<event>
 9    2  0.2869112E-005  0.1009351E+03  0.7546771E-02  0.1284141E+00
         -1   -1    0    0    0  501 -0.00000000000E+00  0.00000000000E+00  0.36449637546E+02  0.36449637546E+02  0.00000000000E+00 0.  1.
          2   -1    0    0  502    0  0.00000000000E+00 -0.00000000000E+00 -0.10784448242E+04  0.10784448242E+04  0.00000000000E+00 0. -1.
         23    2    1    2    0    0  0.10842156508E+02  0.14748854446E+02 -0.19680639226E+03  0.21808573926E+03  0.92160471839E+02 0.  0.
         24    2    1    2    0    0 -0.37475974596E+02  0.36437676053E+02 -0.83213236174E+03  0.83764884079E+03  0.80493230302E+02 0.  0.
        -13    1    4    4    0    0  0.21733941799E+02 -0.33015765918E+01 -0.12385330314E+03  0.12578913042E+03  0.00000000000E+00 0.  1.
         14    1    4    4    0    0 -0.59209916395E+02  0.39739252645E+02 -0.70827905860E+03  0.71185971037E+03  0.00000000000E+00 0. -1.
        -11    1    3    3    0    0 -0.34079267948E+02  0.24159349642E+02 -0.55186122523E+02  0.69214007240E+02  0.00000000000E+00 0. -1.
         11    1    3    3    0    0  0.44921424456E+02 -0.94104951955E+01 -0.14162026974E+03  0.14887173202E+03  0.00000000000E+00 0.  1.
         21    1    1    2  502  501  0.26633818087E+02 -0.51186530499E+02 -0.13056432684E+02  0.59159881718E+02  0.00000000000E+00 0.  1.
<scales pt_clust_5="13000.00000" pt_clust_6="13000.00000" pt_clust_7="13000.00000" pt_clust_8="13000.00000" pt_clust_9="57.70114"></scales>
<clustering>
<clus scale="   57.701">  1  9  2 -1</clus>
<clus scale="   80.493">  5  6 -1 -1</clus>
<clus scale="   90.407">  2  5  1 -1</clus>
<clus scale="   92.160">  7  8 -1 -1</clus>
<clus scale="   90.407">  2  5  1 -1</clus>
</clustering>
</event>
<event>
 9    2  0.2869112E-005  0.9553865E+02  0.7546771E-02  0.1299769E+00
          2   -1    0    0  502    0  0.00000000000E+00  0.00000000000E+00  0.11208500519E+04  0.11208500519E+04  0.00000000000E+00 0. -1.
         -1   -1    0    0    0  501 -0.00000000000E+00 -0.00000000000E+00 -0.19607592176E+03  0.19607592176E+03  0.00000000000E+00 0.  1.
         23    2    1    2    0    0 -0.49059324909E+01 -0.58958339493E+01 -0.75671307371E+02  0.11867590353E+03  0.91098816064E+02 0.  0.
         24    2    1    2    0    0  0.19678841383E+02  0.21438294341E+02  0.10967206209E+04  0.10996158071E+04  0.74242479359E+02 0.  0.
        -11    1    4    4    0    0 -0.20424914226E+02  0.10732973215E+02  0.13191130772E+03  0.13391402816E+03  0.00000000000E+00 0.  1.
         12    1    4    4    0    0  0.40103755609E+02  0.10705321127E+02  0.96480931319E+03  0.96570177898E+03  0.00000000000E+00 0. -1.
        -11    1    3    3    0    0  0.23873181619E+02  0.19342440415E+02  0.33143693137E+01  0.30903783680E+02  0.00000000000E+00 0. -1.
         11    1    3    3    0    0 -0.28779114110E+02 -0.25238274364E+02 -0.78985676685E+02  0.87772119851E+02  0.00000000000E+00 0.  1.
         21    1    1    2  502  501 -0.14772908892E+02 -0.15542460392E+02 -0.96275183352E+02  0.98634263021E+02  0.00000000000E+00 0.  1.
<scales pt_clust_5="13000.00000" pt_clust_6="13000.00000" pt_clust_7="13000.00000" pt_clust_8="13000.00000" pt_clust_9="21.44311"></scales>
<clustering>
<clus scale="   21.443">  2  9  1 -1</clus>
<clus scale="   74.242">  5  6 -1 -1</clus>
<clus scale="   79.628">  1  5  2 -1</clus>
<clus scale="   91.099">  7  8 -1 -1</clus>
<clus scale="   79.628">  1  5  2 -1</clus>
</clustering>
</event>
<event>
 9    2  0.2869112E-005  0.1961419E+03  0.7546771E-02  0.1154086E+00
         -1   -1    0    0    0  501 -0.00000000000E+00  0.00000000000E+00  0.21307759641E+03  0.21307759641E+03  0.00000000000E+00 0.  1.
          2   -1    0    0  502    0  0.00000000000E+00 -0.00000000000E+00 -0.20732572956E+03  0.20732572956E+03  0.00000000000E+00 0. -1.
         24    2    1    2    0    0 -0.13453190634E+03  0.91571875510E+02  0.31323472135E+02  0.18402231881E+03  0.79992572809E+02 0.  0.
         23    2    1    2    0    0  0.15489583095E+03 -0.96234726214E+02 -0.44101684968E+02  0.20845618926E+03  0.90858038993E+02 0.  0.
        -11    1    3    3    0    0 -0.78882448055E+02  0.87194328932E+02  0.46072626042E+02  0.12628530587E+03  0.00000000000E+00 0.  1.
         12    1    3    3    0    0 -0.55649458290E+02  0.43775465787E+01 -0.14749153907E+02  0.57737012938E+02  0.00000000000E+00 0. -1.
        -13    1    4    4    0    0  0.11951534172E+03 -0.10098507338E+03 -0.62267770717E+02  0.16840183260E+03  0.00000000000E+00 0. -1.
         13    1    4    4    0    0  0.35380489232E+02  0.47503471677E+01  0.18166085748E+02  0.40054356666E+02  0.00000000000E+00 0.  1.
         21    1    1    2  502  501 -0.20363924604E+02  0.46628507039E+01  0.18530079684E+02  0.27924817906E+02  0.00000000000E+00 0.  1.
<scales pt_clust_5="13000.00000" pt_clust_6="13000.00000" pt_clust_7="13000.00000" pt_clust_8="13000.00000" pt_clust_9="20.89095"></scales>
<clustering>
<clus scale="   20.891">  1  9  2 -1</clus>
<clus scale="   79.993">  5  6 -1 -1</clus>
<clus scale="   90.858">  7  8 -1 -1</clus>
<clus scale="  191.351">  1  5  2 -1</clus>
<clus scale="  196.142">  2  5  1 -1</clus>
</clustering>
</event>
<event>
 9    2  0.2869112E-005  0.4267574E+03  0.7546771E-02  0.1053805E+00
          2   -1    0    0  502    0  0.00000000000E+00  0.00000000000E+00  0.40556542315E+03  0.40556542315E+03  0.00000000000E+00 0. -1.
         -1   -1    0    0    0  501 -0.00000000000E+00 -0.00000000000E+00 -0.16229410406E+04  0.16229410406E+04  0.00000000000E+00 0.  1.
         23    2    1    2    0    0  0.17001285807E+03  0.39891127334E+03 -0.13275220439E+04  0.13994844861E+04  0.90595110183E+02 0.  0.
         24    2    1    2    0    0  0.11215655860E+03 -0.20532830239E+03 -0.48277461249E+02  0.25193833371E+03  0.80021280484E+02 0.  0.
        -11    1    4    4    0    0  0.57109488794E+02 -0.47564726668E+02  0.99632586554E+01  0.74987755376E+02  0.00000000000E+00 0.  1.
         12    1    4    4    0    0  0.55047069803E+02 -0.15776357572E+03 -0.58240719905E+02  0.17695057834E+03  0.00000000000E+00 0. -1.
        -13    1    3    3    0    0  0.39610275067E+02  0.20784053822E+03 -0.62070000365E+03  0.65577065941E+03  0.00000000000E+00 0. -1.
         13    1    3    3    0    0  0.13040258301E+03  0.19107073512E+03 -0.70682204023E+03  0.74371382670E+03  0.00000000000E+00 0.  1.
         21    1    1    2  502  501 -0.28216941667E+03 -0.19358297095E+03  0.15842388766E+03  0.37708364394E+03  0.00000000000E+00 0. -1.
<scales pt_clust_5="13000.00000" pt_clust_6="13000.00000" pt_clust_7="13000.00000" pt_clust_8="13000.00000" pt_clust_9="417.03050"></scales>
<clustering>
<clus scale="   80.021">  5  6 -1 -1</clus>
<clus scale="   90.595">  7  8 -1 -1</clus>
<clus scale="  247.270">  1  5  2 -1</clus>
<clus scale="  417.031">  1  9  2 -1</clus>
<clus scale="  247.270">  1  5  2 -1</clus>
</clustering>
</event>
<event>
 9    2  0.2869112E-005  0.1053454E+03  0.7546771E-02  0.1273299E+00
          2   -1    0    0  502    0  0.00000000000E+00  0.00000000000E+00  0.36904307058E+03  0.36904307058E+03  0.00000000000E+00 0. -1.
         -1   -1    0    0    0  501 -0.00000000000E+00 -0.00000000000E+00 -0.56863017095E+02  0.56863017095E+02  0.00000000000E+00 0.  1.
         23    2    1    2    0    0 -0.28870028973E+01 -0.45216732620E+02  0.24002290973E+02  0.10399512043E+03  0.90476446697E+02 0.  0.
         24    2    1    2    0    0 -0.32313282528E+02  0.48084269692E+02  0.25302148184E+03  0.27207877952E+03  0.81552110773E+02 0.  0.
        -13    1    4    4    0    0 -0.32470147116E+02  0.11594982032E+02  0.28848494998E+02  0.44955419314E+02  0.00000000000E+00 0.  1.
         14    1    4    4    0    0  0.15686458809E+00  0.36489287661E+02  0.22417298684E+03  0.22712336021E+03  0.00000000000E+00 0. -1.
        -13    1    3    3    0    0  0.17889851080E+02 -0.52093778908E+02 -0.16892686462E+02  0.57612250680E+02  0.00000000000E+00 0. -1.
         13    1    3    3    0    0 -0.20776853978E+02  0.68770462880E+01  0.40894977435E+02  0.46382869750E+02  0.00000000000E+00 0.  1.
         21    1    1    2  502  501  0.35200285425E+02 -0.28675370728E+01  0.35156280670E+02  0.49832187724E+02  0.00000000000E+00 0. -1.
<scales pt_clust_5="13000.00000" pt_clust_6="13000.00000" pt_clust_7="13000.00000" pt_clust_8="13000.00000" pt_clust_9="35.31689"></scales>
<clustering>
<clus scale="   35.317">  2  9  1 -1</clus>
<clus scale="   81.552">  5  6 -1 -1</clus>
<clus scale="   90.476">  7  8 -1 -1</clus>
<clus scale="   97.788">  1  5  2 -1</clus>
<clus scale="   97.788">  1  5  2 -1</clus>
</clustering>
</event>
<event>
 9    2  0.2869112E-005  0.1027680E+03  0.7546771E-02  0.1276666E+00
         -1   -1    0    0    0  501 -0.00000000000E+00  0.00000000000E+00  0.76670167658E+02  0.76670167658E+02  0.00000000000E+00 0.  1.
          2   -1    0    0  502    0  0.00000000000E+00 -0.00000000000E+00 -0.54660130879E+03  0.54660130879E+03  0.00000000000E+00 0. -1.
         23    2    1    2    0    0  0.47370220503E+02  0.40735230089E+02 -0.57730940581E+01  0.10753048795E+03  0.87328005028E+02 0.  0.
         24    2    1    2    0    0 -0.54074234088E+02 -0.55603295097E+01 -0.46927311814E+03  0.47956943365E+03  0.82550846305E+02 0.  0.
        -11    1    4    4    0    0 -0.26817505230E+02 -0.41720790536E+02 -0.17731935149E+03  0.18412483635E+03  0.00000000000E+00 0.  1.
         12    1    4    4    0    0 -0.27256728858E+02  0.36160461027E+02 -0.29195376665E+03  0.29544459729E+03  0.00000000000E+00 0. -1.
        -11    1    3    3    0    0  0.17034982458E+02  0.41802749134E+02 -0.41034342666E+02  0.61003915780E+02  0.00000000000E+00 0. -1.
         11    1    3    3    0    0  0.30335238045E+02 -0.10675190453E+01  0.35261248608E+02  0.46526572166E+02  0.00000000000E+00 0.  1.
         21    1    1    2  502  501  0.67040135851E+01 -0.35174900579E+02  0.51150710601E+01  0.36171554858E+02  0.00000000000E+00 0. -1.
<scales pt_clust_5="13000.00000" pt_clust_6="13000.00000" pt_clust_7="13000.00000" pt_clust_8="13000.00000" pt_clust_9="35.80806"></scales>
<clustering>
<clus scale="   35.808">  1  9  2 -1</clus>
<clus scale="   82.551">  5  6 -1 -1</clus>
<clus scale="   87.328">  7  8 -1 -1</clus>
<clus scale="   98.741">  2  5  1 -1</clus>
<clus scale="   98.741">  2  5  1 -1</clus>
</clustering>
</event>
<event>
 9    2  0.2869112E-005  0.1064785E+03  0.7546771E-02  0.1270047E+00
         -1   -1    0    0    0  501 -0.00000000000E+00  0.00000000000E+00  0.80211189599E+02  0.80211189599E+02  0.00000000000E+00 0.  1.
          2   -1    0    0  502    0  0.00000000000E+00 -0.00000000000E+00 -0.74116812204E+03  0.74116812204E+03  0.00000000000E+00 0. -1.
         23    2    1    2    0    0  0.74808529373E+02  0.50855273091E+01 -0.21891500364E+02  0.11954684554E+03  0.90498794669E+02 0.  0.
         24    2    1    2    0    0 -0.51603994470E+02 -0.18574776639E+02 -0.66014986919E+03  0.66770090041E+03  0.83777371915E+02 0.  0.
        -11    1    4    4    0    0 -0.23623123831E+02  0.20539482271E+02 -0.85643666869E+02  0.91185305758E+02  0.00000000000E+00 0.  1.
         12    1    4    4    0    0 -0.27980870639E+02 -0.39114258909E+02 -0.57450620232E+03  0.57651559465E+03  0.00000000000E+00 0. -1.
        -11    1    3    3    0    0  0.20998179614E+01  0.35883236943E+02 -0.18704833470E+02  0.40520201432E+02  0.00000000000E+00 0.  1.
         11    1    3    3    0    0  0.72708711411E+02 -0.30797709634E+02 -0.31866668940E+01  0.79026644113E+02  0.00000000000E+00 0. -1.
         21    1    1    2  502  501 -0.23204534903E+02  0.13489249330E+02  0.21084437114E+02  0.34131565682E+02  0.00000000000E+00 0.  1.
<scales pt_clust_5="13000.00000" pt_clust_6="13000.00000" pt_clust_7="13000.00000" pt_clust_8="13000.00000" pt_clust_9="26.84046"></scales>
<clustering>
<clus scale="   26.840">  1  9  2 -1</clus>
<clus scale="   83.777">  5  6 -1 -1</clus>
<clus scale="   90.499">  7  8 -1 -1</clus>
<clus scale="  100.828">  2  5  1 -1</clus>
<clus scale="  100.828">  2  5  1 -1</clus>
</clustering>
</event>
<event>
 9    2  0.2869112E-005  0.9122199E+02  0.7546771E-02  0.1306186E+00
         -1   -1    0    0    0  501 -0.00000000000E+00  0.00000000000E+00  0.57699753682E+02  0.57699753682E+02  0.00000000000E+00 0.  1.
          2   -1    0    0  502    0  0.00000000000E+00 -0.00000000000E+00 -0.26313462360E+03  0.26313462360E+03  0.00000000000E+00 0. -1.
         24    2    1    2    0    0 -0.28756039471E+02  0.14346822862E+02 -0.88629446820E+02  0.12354315362E+03  0.79843539690E+02 0.  0.
         23    2    1    2    0    0  0.95828772076E+00  0.24108104647E+02 -0.11740827446E+03  0.14983745793E+03  0.89913524357E+02 0.  0.
        -13    1    3    3    0    0 -0.45498633067E+02 -0.18397835623E+02 -0.54940156037E+02  0.73668356246E+02  0.00000000000E+00 0.  1.
         14    1    3    3    0    0  0.16742593595E+02  0.32744658485E+02 -0.33689290783E+02  0.49874797374E+02  0.00000000000E+00 0. -1.
        -11    1    4    4    0    0  0.38539584565E+02  0.77079489448E+01 -0.95668040835E+02  0.10342671847E+03  0.00000000000E+00 0.  1.
         11    1    4    4    0    0 -0.37581296845E+02  0.16400155702E+02 -0.21740233626E+02  0.46410739465E+02  0.00000000000E+00 0. -1.
         21    1    1    2  502  501  0.27797751750E+02 -0.38454927509E+02  0.60285136631E+00  0.47453765729E+02  0.00000000000E+00 0.  1.
<scales pt_clust_5="13000.00000" pt_clust_6="13000.00000" pt_clust_7="13000.00000" pt_clust_8="13000.00000" pt_clust_9="47.44994"></scales>
<clustering>
<clus scale="   47.450">  1  9  2 -1</clus>
<clus scale="   79.844">  5  6 -1 -1</clus>
<clus scale="   81.314">  1  5  2 -1</clus>
<clus scale="   89.914">  7  8 -1 -1</clus>
<clus scale="   91.222">  2  5  1 -1</clus>
</clustering>
</event>
<event>
 9    2  0.2869112E-005  0.1013711E+03  0.7546771E-02  0.1282696E+00
         -1   -1    0    0    0  501 -0.00000000000E+00  0.00000000000E+00  0.84324299629E+02  0.84324299629E+02  0.00000000000E+00 0.  1.
          2   -1    0    0  502    0  0.00000000000E+00 -0.00000000000E+00 -0.74368056182E+03  0.74368056182E+03  0.00000000000E+00 0. -1.
         23    2    1    2    0    0 -0.10159714715E+03  0.54128275013E+02 -0.96429993184E+02  0.17604182261E+03  0.91870176101E+02 0.  0.
         24    2    1    2    0    0  0.32988478899E+02 -0.15743890093E+02 -0.56632958479E+03  0.57327318610E+03  0.81097703332E+02 0.  0.
        -13    1    4    4    0    0  0.21658319784E+02  0.23085507358E+02 -0.93427692298E+02  0.98644600227E+02  0.00000000000E+00 0.  1.
         14    1    4    4    0    0  0.11330159115E+02 -0.38829397451E+02 -0.47290189249E+03  0.47462858588E+03  0.00000000000E+00 0. -1.
        -13    1    3    3    0    0 -0.23408113063E+02  0.64269422203E+02 -0.42789952637E+02  0.80681338822E+02  0.00000000000E+00 0.  1.
         13    1    3    3    0    0 -0.78189034090E+02 -0.10141147190E+02 -0.53640040547E+02  0.95360483787E+02  0.00000000000E+00 0. -1.
         21    1    1    2  502  501  0.68608668254E+02 -0.38384384920E+02  0.34033157801E+01  0.78689852736E+02  0.00000000000E+00 0.  1.
<scales pt_clust_5="13000.00000" pt_clust_6="13000.00000" pt_clust_7="13000.00000" pt_clust_8="13000.00000" pt_clust_9="78.61622"></scales>
<clustering>
<clus scale="   78.616">  1  9  2 -1</clus>
<clus scale="   81.098">  5  6 -1 -1</clus>
<clus scale="   91.721">  2  5  1 -1</clus>
<clus scale="   91.870">  7  8 -1 -1</clus>
<clus scale="   91.721">  2  5  1 -1</clus>
</clustering>
</event>
<event>
 9    2  0.2869112E-005  0.1038182E+03  0.7546771E-02  0.1277702E+00
         -1   -1    0    0    0  501 -0.00000000000E+00  0.00000000000E+00  0.32048576911E+03  0.32048576911E+03  0.00000000000E+00 0.  1.
          2   -1    0    0  502    0  0.00000000000E+00 -0.00000000000E+00 -0.13379038441E+03  0.13379038441E+03  0.00000000000E+00 0. -1.
         23    2    1    2    0    0 -0.26072755203E+02 -0.24401024124E+02  0.11545885915E+03  0.15171923967E+03  0.91721213395E+02 0.  0.
         24    2    1    2    0    0  0.19965791650E+02  0.46874447542E+02 -0.95155707597E+02  0.13454285189E+03  0.80320132210E+02 0.  0.
        -13    1    4    4    0    0  0.20937345839E+02 -0.18381298031E+02 -0.16667490127E+02  0.32466133050E+02  0.00000000000E+00 0.  1.
         14    1    4    4    0    0 -0.97155418870E+00  0.65255745573E+02 -0.78488217470E+02  0.10207671884E+03  0.00000000000E+00 0. -1.
        -11    1    3    3    0    0  0.30929748262E+02 -0.26678667587E+02  0.56058132169E+02  0.69360758459E+02  0.00000000000E+00 0.  1.
         11    1    3    3    0    0 -0.57002503465E+02  0.22776434633E+01  0.59400726983E+02  0.82358481209E+02  0.00000000000E+00 0. -1.
         21    1    1    2  502  501  0.61069635530E+01 -0.22473423418E+02  0.16639223315E+03  0.16801406196E+03  0.00000000000E+00 0.  1.
<scales pt_clust_5="13000.00000" pt_clust_6="13000.00000" pt_clust_7="13000.00000" pt_clust_8="13000.00000" pt_clust_9="23.28840"></scales>
<clustering>
<clus scale="   23.288">  1  9  2 -1</clus>
<clus scale="   80.320">  5  6 -1 -1</clus>
<clus scale="   91.721">  7  8 -1 -1</clus>
<clus scale="   93.898">  2  5  1 -1</clus>
<clus scale="   93.898">  2  5  1 -1</clus>
</clustering>
</event>
<event>
 9    2  0.2869112E-005  0.9414211E+02  0.7546771E-02  0.1299580E+00
         -1   -1    0    0    0  501 -0.00000000000E+00  0.00000000000E+00  0.14829256035E+03  0.14829256035E+03  0.00000000000E+00 0.  1.
          2   -1    0    0  502    0  0.00000000000E+00 -0.00000000000E+00 -0.26161305482E+03  0.26161305482E+03  0.00000000000E+00 0. -1.
         23    2    1    2    0    0 -0.10656160462E+02  0.19939015328E+02 -0.55550584378E+02  0.10903483262E+03  0.91058273713E+02 0.  0.
         24    2    1    2    0    0 -0.38766266217E+02  0.14430494666E+02 -0.15920201037E+03  0.18292032496E+03  0.80021888287E+02 0.  0.
        -13    1    4    4    0    0 -0.54603849303E+02 -0.14741155945E+02 -0.10771067810E+03  0.12165719138E+03  0.00000000000E+00 0.  1.
         14    1    4    4    0    0  0.15837583085E+02  0.29171650612E+02 -0.51491332272E+02  0.61263133584E+02  0.00000000000E+00 0. -1.
        -11    1    3    3    0    0 -0.22443040995E+02  0.46702555013E+02 -0.60194658858E+02  0.79424276446E+02  0.00000000000E+00 0. -1.
         11    1    3    3    0    0  0.11786880533E+02 -0.26763539685E+02  0.46440744797E+01  0.29610556174E+02  0.00000000000E+00 0.  1.
         21    1    1    2  502  501  0.49422426680E+02 -0.34369509995E+02  0.10143210029E+03  0.11795045759E+03  0.00000000000E+00 0.  1.
<scales pt_clust_5="13000.00000" pt_clust_6="13000.00000" pt_clust_7="13000.00000" pt_clust_8="13000.00000" pt_clust_9="60.19833"></scales>
<clustering>
<clus scale="   60.198">  1  9  2 -1</clus>
<clus scale="   80.022">  5  6 -1 -1</clus>
<clus scale="   83.514">  2  5  1 -1</clus>
<clus scale="   91.058">  7  8 -1 -1</clus>
<clus scale="   83.514">  2  5  1 -1</clus>
</clustering>
</event>
<event>
 9    2  0.2869112E-005  0.9664656E+02  0.7546771E-02  0.1287864E+00
          2   -1    0    0  502    0  0.00000000000E+00  0.00000000000E+00  0.51629278859E+03  0.51629278859E+03  0.00000000000E+00 0. -1.
         -1   -1    0    0    0  501 -0.00000000000E+00 -0.00000000000E+00 -0.22770130844E+02  0.22770130844E+02  0.00000000000E+00 0.  1.
         23    2    1    2    0    0  0.28810762268E+02 -0.31791424816E+02  0.18010222056E+03  0.20186381554E+03  0.80445232662E+02 0.  0.
         24    2    1    2    0    0 -0.46269646806E+02  0.41550519784E+02  0.28543435001E+03  0.30280035887E+03  0.79674106567E+02 0.  0.
        -11    1    4    4    0    0 -0.62766761417E+01  0.28224840864E+02  0.22848355558E+02  0.36852213731E+02  0.00000000000E+00 0.  1.
         12    1    4    4    0    0 -0.39992970664E+02  0.13325678920E+02  0.26258599445E+03  0.26594814514E+03  0.00000000000E+00 0. -1.
        -13    1    3    3    0    0  0.28998449088E+02  0.88121281863E+01  0.14517393222E+03  0.14830385783E+03  0.00000000000E+00 0.  1.
         13    1    3    3    0    0 -0.18768681970E+00 -0.40603553002E+02  0.34928288346E+02  0.53559957706E+02  0.00000000000E+00 0. -1.
         21    1    1    2  502  501  0.17458884537E+02 -0.97590949676E+01  0.27986087171E+02  0.34398745021E+02  0.00000000000E+00 0.  1.
<scales pt_clust_5="13000.00000" pt_clust_6="13000.00000" pt_clust_7="13000.00000" pt_clust_8="13000.00000" pt_clust_9="20.00131"></scales>
<clustering>
<clus scale="   20.001">  2  9  1 -1</clus>
<clus scale="   79.674">  5  6 -1 -1</clus>
<clus scale="   80.445">  7  8 -1 -1</clus>
<clus scale="   96.006">  1  5  2 -1</clus>
<clus scale="   96.006">  1  5  2 -1</clus>
</clustering>
</event>
<event>
 9    2  0.2869112E-005  0.1785755E+03  0.7546771E-02  0.1170684E+00
          2   -1    0    0  502    0  0.00000000000E+00  0.00000000000E+00  0.11631396602E+03  0.11631396602E+03  0.00000000000E+00 0. -1.
         -1   -1    0    0    0  501 -0.00000000000E+00 -0.00000000000E+00 -0.96576535334E+03  0.96576535334E+03  0.00000000000E+00 0.  1.
         24    2    1    2    0    0  0.49558702129E+01 -0.95063056438E+02 -0.61161603492E+03  0.62398823101E+03  0.78902426621E+02 0.  0.
         23    2    1    2    0    0 -0.50060790133E+02  0.15367359140E+03  0.22937803601E+02  0.18703336848E+03  0.91289006398E+02 0.  0.
        -11    1    3    3    0    0  0.16041194431E+02 -0.10312002951E+03 -0.45692083119E+03  0.46868721594E+03  0.00000000000E+00 0.  1.
         12    1    3    3    0    0 -0.11085324218E+02  0.80569730761E+01 -0.15469520372E+03  0.15530101507E+03  0.00000000000E+00 0. -1.
        -11    1    4    4    0    0  0.16950241061E+02  0.59942663906E+02  0.34542060939E+02  0.71229120464E+02  0.00000000000E+00 0. -1.
         11    1    4    4    0    0 -0.67011031194E+02  0.93730927493E+02 -0.11604257338E+02  0.11580424802E+03  0.00000000000E+00 0.  1.
         21    1    1    2  502  501  0.45104919920E+02 -0.58610534961E+02 -0.26077315600E+03  0.27105771987E+03  0.00000000000E+00 0. -1.
<scales pt_clust_5="13000.00000" pt_clust_6="13000.00000" pt_clust_7="13000.00000" pt_clust_8="13000.00000" pt_clust_9="73.95707"></scales>
<clustering>
<clus scale="   73.957">  2  9  1 -1</clus>
<clus scale="   78.902">  5  6 -1 -1</clus>
<clus scale="   91.289">  7  8 -1 -1</clus>
<clus scale="  172.572">  2  5  1 -1</clus>
<clus scale="  178.576">  1  5  2 -1</clus>
</clustering>
</event>
<event>
 9    2  0.2869112E-005  0.9809895E+02  0.7546771E-02  0.1288027E+00
          2   -1    0    0  502    0  0.00000000000E+00  0.00000000000E+00  0.84535201552E+03  0.84535201552E+03  0.00000000000E+00 0. -1.
         -1   -1    0    0    0  501 -0.00000000000E+00 -0.00000000000E+00 -0.62087538626E+02  0.62087538626E+02  0.00000000000E+00 0.  1.
         23    2    1    2    0    0 -0.36554208292E+02  0.83022801843E+02  0.10862405791E+03  0.16845665259E+03  0.91375390972E+02 0.  0.
         24    2    1    2    0    0  0.33234661246E+02 -0.47272263981E+01  0.65076943369E+03  0.65706196122E+03  0.84277373478E+02 0.  0.
        -13    1    4    4    0    0  0.31835501770E+02  0.35988676509E+02  0.28388545295E+03  0.28792296610E+03  0.00000000000E+00 0.  1.
         14    1    4    4    0    0  0.13991594760E+01 -0.40715902907E+02  0.36688398074E+03  0.36913899512E+03  0.00000000000E+00 0. -1.
        -13    1    3    3    0    0 -0.42027050544E+02  0.26210248062E+02  0.98829959736E+02  0.11054687251E+03  0.00000000000E+00 0. -1.
         13    1    3    3    0    0  0.54728422524E+01  0.56812553780E+02  0.97940981714E+01  0.57909780075E+02  0.00000000000E+00 0.  1.
         21    1    1    2  502  501  0.33195470454E+01 -0.78295575445E+02  0.23870985295E+02  0.81920940337E+02  0.00000000000E+00 0.  1.
<scales pt_clust_5="13000.00000" pt_clust_6="13000.00000" pt_clust_7="13000.00000" pt_clust_8="13000.00000" pt_clust_9="78.36591"></scales>
<clustering>
<clus scale="   78.366">  2  9  1 -1</clus>
<clus scale="   84.277">  5  6 -1 -1</clus>
<clus scale="   91.375">  7  8 -1 -1</clus>
<clus scale="   91.524">  1  5  2 -1</clus>
<clus scale="   91.524">  1  5  2 -1</clus>
</clustering>
</event>
<event>
 9    2  0.2869112E-005  0.1079975E+03  0.7546771E-02  0.1268670E+00
          2   -1    0    0  502    0  0.00000000000E+00  0.00000000000E+00  0.39169601740E+02  0.39169601740E+02  0.00000000000E+00 0. -1.
         -1   -1    0    0    0  501 -0.00000000000E+00 -0.00000000000E+00 -0.46118454290E+03  0.46118454290E+03  0.00000000000E+00 0.  1.
         23    2    1    2    0    0 -0.14176300951E+02  0.70040849586E+02 -0.19651636889E+03  0.22958454602E+03  0.94782342285E+02 0.  0.
         24    2    1    2    0    0  0.12001190732E+02 -0.40292336180E+02 -0.84970569732E+02  0.12711088969E+03  0.84673960720E+02 0.  0.
        -11    1    4    4    0    0 -0.42015729460E+01  0.24940129086E+02 -0.12306638580E+02  0.28126795182E+02  0.00000000000E+00 0.  1.
         12    1    4    4    0    0  0.16202763678E+02 -0.65232465267E+02 -0.72663931152E+02  0.98984094510E+02  0.00000000000E+00 0. -1.
        -13    1    3    3    0    0  0.26138850498E+02  0.15699355549E+01 -0.12236151426E+02  0.28903764543E+02  0.00000000000E+00 0. -1.
         13    1    3    3    0    0 -0.40315151449E+02  0.68470914031E+02 -0.18428021747E+03  0.20068078148E+03  0.00000000000E+00 0.  1.
         21    1    1    2  502  501  0.21751102189E+01 -0.29748513405E+02 -0.14052800253E+03  0.14365870893E+03  0.00000000000E+00 0.  1.
<scales pt_clust_5="13000.00000" pt_clust_6="13000.00000" pt_clust_7="13000.00000" pt_clust_8="13000.00000" pt_clust_9="29.82793"></scales>
<clustering>
<clus scale="   29.828">  2  9  1 -1</clus>
<clus scale="   84.674">  5  6 -1 -1</clus>
<clus scale="   94.782">  7  8 -1 -1</clus>
<clus scale="   99.244">  1  5  2 -1</clus>
<clus scale="   99.244">  1  5  2 -1</clus>
</clustering>
</event>
<event>
 9    2  0.2869112E-005  0.8817284E+02  0.7546771E-02  0.1309434E+00
         -1   -1    0    0    0  501 -0.00000000000E+00  0.00000000000E+00  0.17804533963E+02  0.17804533963E+02  0.00000000000E+00 0.  1.
          2   -1    0    0  502    0  0.00000000000E+00 -0.00000000000E+00 -0.85546617144E+03  0.85546617144E+03  0.00000000000E+00 0. -1.
         23    2    1    2    0    0  0.24604220816E+02  0.39200382629E+02 -0.12031432060E+03  0.14813897973E+03  0.72990299996E+02 0.  0.
         24    2    1    2    0    0 -0.47106254929E+01 -0.31657069117E+02 -0.61446027922E+03  0.62006793918E+03  0.76801396133E+02 0.  0.
        -13    1    4    4    0    0  0.52149821119E+01 -0.34277648091E+02 -0.10645633243E+03  0.11196027828E+03  0.00000000000E+00 0.  1.
         14    1    4    4    0    0 -0.99256076048E+01  0.26205789738E+01 -0.50800394679E+03  0.50810766091E+03  0.00000000000E+00 0. -1.
        -11    1    3    3    0    0  0.95550568401E+01  0.57007643982E+02 -0.59250102566E+02  0.82775269481E+02  0.00000000000E+00 0.  1.
         11    1    3    3    0    0  0.15049163976E+02 -0.17807261352E+02 -0.61064218038E+02  0.65363710252E+02  0.00000000000E+00 0. -1.
         21    1    1    2  502  501 -0.19893595323E+02 -0.75433135123E+01 -0.10288703766E+03  0.10506378649E+03  0.00000000000E+00 0.  1.
<scales pt_clust_5="13000.00000" pt_clust_6="13000.00000" pt_clust_7="13000.00000" pt_clust_8="13000.00000" pt_clust_9="21.27573"></scales>
<clustering>
<clus scale="   21.276">  2  9  1 -1</clus>
<clus scale="   72.990">  7  8 -1 -1</clus>
<clus scale="   76.801">  5  6 -1 -1</clus>
<clus scale="   84.874">  1  7  2 -1</clus>
<clus scale="   21.276">  2  5  1 -1</clus>
</clustering>
</event>
<event>
 9    2  0.2869112E-005  0.9345779E+02  0.7546771E-02  0.1301088E+00
          2   -1    0    0  502    0  0.00000000000E+00  0.00000000000E+00  0.55264980750E+03  0.55264980750E+03  0.00000000000E+00 0. -1.
         -1   -1    0    0    0  501 -0.00000000000E+00 -0.00000000000E+00 -0.54713075673E+02  0.54713075673E+02  0.00000000000E+00 0.  1.
         23    2    1    2    0    0  0.21998698128E+02  0.91044041650E+01  0.23303158945E+01  0.93429549523E+02  0.90315100938E+02 0.  0.
         24    2    1    2    0    0 -0.34229370837E+02  0.19239050797E+02  0.45136733488E+03  0.45998857407E+03  0.79468398583E+02 0.  0.
        -13    1    4    4    0    0  0.17737854890E+02  0.29542525035E+02  0.14224777900E+03  0.14636195855E+03  0.00000000000E+00 0.  1.
         14    1    4    4    0    0 -0.51967225727E+02 -0.10303474238E+02  0.30911955588E+03  0.31362661551E+03  0.00000000000E+00 0. -1.
        -13    1    3    3    0    0  0.44632377250E+02  0.20339357966E+02  0.28764608224E+02  0.56860718143E+02  0.00000000000E+00 0.  1.
         13    1    3    3    0    0 -0.22633679123E+02 -0.11234953801E+02 -0.26434292329E+02  0.36568831380E+02  0.00000000000E+00 0. -1.
         21    1    1    2  502  501  0.12230672709E+02 -0.28343454962E+02  0.44239081059E+02  0.53944759589E+02  0.00000000000E+00 0. -1.
<scales pt_clust_5="13000.00000" pt_clust_6="13000.00000" pt_clust_7="13000.00000" pt_clust_8="13000.00000" pt_clust_9="30.86974"></scales>
<clustering>
<clus scale="   30.870">  1  9  2 -1</clus>
<clus scale="   79.468">  5  6 -1 -1</clus>
<clus scale="   83.023">  1  5  2 -1</clus>
<clus scale="   90.315">  7  8 -1 -1</clus>
<clus scale="   30.870">  1  5  2 -1</clus>
</clustering>
</event>
<event>
 9    2  0.2869112E-005  0.1169136E+03  0.7546771E-02  0.1253551E+00
          4   -1    0    0  502    0  0.00000000000E+00  0.00000000000E+00  0.14526901523E+03  0.14526901523E+03  0.00000000000E+00 0. -1.
         -3   -1    0    0    0  501 -0.00000000000E+00 -0.00000000000E+00 -0.39767833551E+03  0.39767833551E+03  0.00000000000E+00 0.  1.
         23    2    1    2    0    0 -0.53527359040E+02 -0.47278390916E+02 -0.18948490191E+01  0.12704571408E+03  0.10505521691E+03 0.  0.
         24    2    1    2    0    0 -0.25000586047E+02  0.53412881911E+02  0.38941246029E+02  0.11592016656E+03  0.91886338028E+02 0.  0.
        -11    1    4    4    0    0 -0.15470140686E+02  0.65882835818E+02  0.59461209499E+02  0.90086118483E+02  0.00000000000E+00 0.  1.
         12    1    4    4    0    0 -0.95304453601E+01 -0.12469953907E+02 -0.20519963470E+02  0.25834048077E+02  0.00000000000E+00 0. -1.
        -11    1    3    3    0    0  0.12932637479E+02 -0.49882654471E+02 -0.24150048300E+02  0.56910079618E+02  0.00000000000E+00 0.  1.
         11    1    3    3    0    0 -0.66459996519E+02  0.26042635541E+01  0.22255199281E+02  0.70135634459E+02  0.00000000000E+00 0. -1.
         21    1    1    2  502  501  0.78527945086E+02 -0.61344909945E+01 -0.28945571729E+03  0.29998147011E+03  0.00000000000E+00 0.  1.
<scales pt_clust_5="13000.00000" pt_clust_6="13000.00000" pt_clust_7="13000.00000" pt_clust_8="13000.00000" pt_clust_9="78.76719"></scales>
<clustering>
<clus scale="   78.767">  2  9  1 -1</clus>
<clus scale="   91.886">  5  6 -1 -1</clus>
<clus scale="  105.055">  7  8 -1 -1</clus>
<clus scale="  105.239">  1  5  2 -1</clus>
<clus scale="  105.239">  1  5  2 -1</clus>
</clustering>
</event>
<event>
 9    2  0.2869112E-005  0.1196515E+03  0.7546771E-02  0.1248711E+00
         -1   -1    0    0    0  501 -0.00000000000E+00  0.00000000000E+00  0.27444913069E+03  0.27444913069E+03  0.00000000000E+00 0.  1.
          2   -1    0    0  502    0  0.00000000000E+00 -0.00000000000E+00 -0.63560229637E+03  0.63560229637E+03  0.00000000000E+00 0. -1.
         23    2    1    2    0    0 -0.18919132856E+02  0.10330327499E+03  0.21819056529E+03  0.25871230200E+03  0.91079263345E+02 0.  0.
         24    2    1    2    0    0  0.12598806946E+02 -0.76010678857E+02 -0.60429535152E+03  0.61382358572E+03  0.75300526423E+02 0.  0.
        -13    1    4    4    0    0 -0.11271913251E+02 -0.67931412663E+02 -0.27225507277E+03  0.28082834171E+03  0.00000000000E+00 0.  1.
         14    1    4    4    0    0  0.23870720196E+02 -0.80792661942E+01 -0.33204027875E+03  0.33299524402E+03  0.00000000000E+00 0. -1.
        -13    1    3    3    0    0 -0.11787800983E+02  0.65673184264E+02  0.20890672168E+03  0.21930330081E+03  0.00000000000E+00 0.  1.
         13    1    3    3    0    0 -0.71313318732E+01  0.37630090727E+02  0.92838436108E+01  0.39409001188E+02  0.00000000000E+00 0. -1.
         21    1    1    2  502  501  0.63203259106E+01 -0.27292596134E+02  0.24951620555E+02  0.37515539336E+02  0.00000000000E+00 0. -1.
<scales pt_clust_5="13000.00000" pt_clust_6="13000.00000" pt_clust_7="13000.00000" pt_clust_8="13000.00000" pt_clust_9="28.01486"></scales>
<clustering>
<clus scale="   28.015">  1  9  2 -1</clus>
<clus scale="   75.301">  5  6 -1 -1</clus>
<clus scale="   91.079">  7  8 -1 -1</clus>
<clus scale="  108.126">  2  5  1 -1</clus>
<clus scale="  108.126">  2  5  1 -1</clus>
</clustering>
</event>
<event>
 9    2  0.2869112E-005  0.2595135E+03  0.7546771E-02  0.1107959E+00
         -1   -1    0    0    0  501 -0.00000000000E+00  0.00000000000E+00  0.27568753024E+03  0.27568753024E+03  0.00000000000E+00 0.  1.
          2   -1    0    0  502    0  0.00000000000E+00 -0.00000000000E+00 -0.37767116473E+03  0.37767116473E+03  0.00000000000E+00 0. -1.
         23    2    1    2    0    0  0.22675077874E+03 -0.95758442455E+02  0.38709349521E+01  0.26225499302E+03  0.90427331413E+02 0.  0.
         24    2    1    2    0    0 -0.23048562561E+03  0.74193953820E+02 -0.18108276430E+03  0.31275666913E+03  0.79983749365E+02 0.  0.
        -11    1    4    4    0    0 -0.18365802903E+03  0.87477070570E+02 -0.16355286205E+03  0.26102116425E+03  0.00000000000E+00 0.  1.
         12    1    4    4    0    0 -0.46827596580E+02 -0.13283116751E+02 -0.17529902249E+02  0.51735504877E+02  0.00000000000E+00 0. -1.
        -11    1    3    3    0    0  0.12801342634E+03 -0.42795287563E+02  0.45926878826E+02  0.14257682897E+03  0.00000000000E+00 0.  1.
         11    1    3    3    0    0  0.98737352401E+02 -0.52963154892E+02 -0.42055943874E+02  0.11967816405E+03  0.00000000000E+00 0. -1.
         21    1    1    2  502  501  0.37348468670E+01  0.21564488636E+02  0.75228194854E+02  0.78347032823E+02  0.00000000000E+00 0.  1.
<scales pt_clust_5="13000.00000" pt_clust_6="13000.00000" pt_clust_7="13000.00000" pt_clust_8="13000.00000" pt_clust_9="21.88553"></scales>
<clustering>
<clus scale="   21.886">  1  9  2 -1</clus>
<clus scale="   79.984">  5  6 -1 -1</clus>
<clus scale="   90.427">  7  8 -1 -1</clus>
<clus scale="  256.062">  2  5  1 -1</clus>
<clus scale="  256.062">  2  5  1 -1</clus>
</clustering>
</event>
<event>
 9    2  0.2869112E-005  0.1468197E+03  0.7546771E-02  0.1206070E+00
         -1   -1    0    0    0  501 -0.00000000000E+00  0.00000000000E+00  0.32303218553E+02  0.32303218553E+02  0.00000000000E+00 0.  1.
          2   -1    0    0  502    0  0.00000000000E+00 -0.00000000000E+00 -0.92434874045E+03  0.92434874045E+03  0.00000000000E+00 0. -1.
         23    2    1    2    0    0  0.39495726150E+02  0.11846110203E+03 -0.24848929004E+03  0.29226524798E+03  0.89883829684E+02 0.  0.
         24    2    1    2    0    0 -0.50230047948E+02 -0.10146730663E+03 -0.60558845721E+03  0.62142665215E+03  0.81332849832E+02 0.  0.
        -11    1    4    4    0    0 -0.36487917793E+02 -0.82151074666E+02 -0.26141955832E+03  0.27644231349E+03  0.00000000000E+00 0.  1.
         12    1    4    4    0    0 -0.13742130155E+02 -0.19316231968E+02 -0.34416889889E+03  0.34498433866E+03  0.00000000000E+00 0. -1.
        -11    1    3    3    0    0 -0.28660062643E+02  0.39279620339E+02 -0.92872651759E+02  0.10483137512E+03  0.00000000000E+00 0. -1.
         11    1    3    3    0    0  0.68155788793E+02  0.79181481687E+02 -0.15561663828E+03  0.18743387286E+03  0.00000000000E+00 0.  1.
         21    1    1    2  502  501  0.10734321798E+02 -0.16993795392E+02 -0.37967774647E+02  0.42960058868E+02  0.00000000000E+00 0.  1.
<scales pt_clust_5="13000.00000" pt_clust_6="13000.00000" pt_clust_7="13000.00000" pt_clust_8="13000.00000" pt_clust_9="20.10012"></scales>
<clustering>
<clus scale="   20.100">  1  9  2 -1</clus>
<clus scale="   81.333">  5  6 -1 -1</clus>
<clus scale="   89.884">  7  8 -1 -1</clus>
<clus scale="  141.746">  2  5  1 -1</clus>
<clus scale="  141.746">  2  5  1 -1</clus>
</clustering>
</event>
<event>
 9    2  0.2869112E-005  0.1132842E+03  0.7546771E-02  0.1258191E+00
         -3   -1    0    0    0  501 -0.00000000000E+00  0.00000000000E+00  0.46285423212E+02  0.46285423212E+02  0.00000000000E+00 0.  1.
          4   -1    0    0  502    0  0.00000000000E+00 -0.00000000000E+00 -0.46464136845E+03  0.46464136845E+03  0.00000000000E+00 0. -1.
         23    2    1    2    0    0 -0.50347668277E+02  0.27295710808E+02 -0.84939977714E+02  0.13673435069E+03  0.90562350430E+02 0.  0.
         24    2    1    2    0    0  0.53196503224E+02 -0.48571658775E+02 -0.33562167113E+03  0.35261358672E+03  0.80655820695E+02 0.  0.
        -13    1    4    4    0    0  0.40934566235E+02  0.14839015228E+02 -0.13796803394E+03  0.14467554553E+03  0.00000000000E+00 0.  1.
         14    1    4    4    0    0  0.12261936989E+02 -0.63410674002E+02 -0.19765363719E+03  0.20793804118E+03  0.00000000000E+00 0. -1.
        -13    1    3    3    0    0 -0.54228105635E+02 -0.31186501830E+00 -0.78953067491E+01  0.54800735116E+02  0.00000000000E+00 0.  1.
         13    1    3    3    0    0  0.38804373584E+01  0.27607575826E+02 -0.77044670965E+02  0.81933615575E+02  0.00000000000E+00 0. -1.
         21    1    1    2  502  501 -0.28488349474E+01  0.21275947966E+02  0.22057036100E+01  0.21578854252E+02  0.00000000000E+00 0. -1.
<scales pt_clust_5="13000.00000" pt_clust_6="13000.00000" pt_clust_7="13000.00000" pt_clust_8="13000.00000" pt_clust_9="21.46583"></scales>
<clustering>
<clus scale="   21.466">  1  9  2 -1</clus>
<clus scale="   80.656">  5  6 -1 -1</clus>
<clus scale="   90.562">  7  8 -1 -1</clus>
<clus scale="  105.533">  2  5  1 -1</clus>
<clus scale="  105.533">  2  5  1 -1</clus>
</clustering>
</event>
<event>
 9    2  0.2869112E-005  0.9799973E+02  0.7546771E-02  0.1290388E+00
          2   -1    0    0  502    0  0.00000000000E+00  0.00000000000E+00  0.58901378102E+03  0.58901378102E+03  0.00000000000E+00 0. -1.
         -1   -1    0    0    0  501 -0.00000000000E+00 -0.00000000000E+00 -0.31021627041E+02  0.31021627041E+02  0.00000000000E+00 0.  1.
         23    2    1    2    0    0  0.29921952504E+00  0.11233630559E+02  0.10287888223E+03  0.13699899117E+03  0.89768453173E+02 0.  0.
         24    2    1    2    0    0 -0.23739621739E+02 -0.41478766246E+02  0.42361123207E+03  0.43347232513E+03  0.78534852270E+02 0.  0.
        -11    1    4    4    0    0 -0.15540532586E+02  0.22233507556E+02  0.14887323265E+03  0.15132440785E+03  0.00000000000E+00 0.  1.
         12    1    4    4    0    0 -0.81990891529E+01 -0.63712273801E+02  0.27473799942E+03  0.28214791727E+03  0.00000000000E+00 0. -1.
        -13    1    3    3    0    0  0.39508332985E+02  0.25338404542E+02  0.40559944594E+02  0.62032670630E+02  0.00000000000E+00 0.  1.
         13    1    3    3    0    0 -0.39209113459E+02 -0.14104773983E+02  0.62318937639E+02  0.74966320543E+02  0.00000000000E+00 0. -1.
         21    1    1    2  502  501  0.23440402214E+02  0.30245135686E+02  0.31502039672E+02  0.49564091762E+02  0.00000000000E+00 0.  1.
<scales pt_clust_5="13000.00000" pt_clust_6="13000.00000" pt_clust_7="13000.00000" pt_clust_8="13000.00000" pt_clust_9="38.26514"></scales>
<clustering>
<clus scale="   38.265">  2  9  1 -1</clus>
<clus scale="   78.535">  5  6 -1 -1</clus>
<clus scale="   87.825">  1  5  2 -1</clus>
<clus scale="   89.768">  7  8 -1 -1</clus>
<clus scale="   87.825">  1  5  2 -1</clus>
</clustering>
</event>
<event>
 9    2  0.2869112E-005  0.9268983E+02  0.7546771E-02  0.1303880E+00
         -1   -1    0    0    0  501 -0.00000000000E+00  0.00000000000E+00  0.21848200739E+03  0.21848200739E+03  0.00000000000E+00 0.  1.
          2   -1    0    0  502    0  0.00000000000E+00 -0.00000000000E+00 -0.70863079595E+02  0.70863079595E+02  0.00000000000E+00 0. -1.
         23    2    1    2    0    0  0.11519106192E+02  0.40059391698E+02  0.99818159681E+02  0.14178402726E+03  0.91660246090E+02 0.  0.
         24    2    1    2    0    0  0.61137177044E+01 -0.56073413935E+01 -0.70742060725E+01  0.80411055699E+02  0.79668523680E+02 0.  0.
        -13    1    4    4    0    0  0.33009905536E+02  0.17232014063E+02  0.13449125472E+02  0.39591351937E+02  0.00000000000E+00 0.  1.
         14    1    4    4    0    0 -0.26896187832E+02 -0.22839355457E+02 -0.20523331544E+02  0.40819703763E+02  0.00000000000E+00 0. -1.
        -13    1    3    3    0    0  0.42188733976E+02  0.59427869981E+01  0.82306254903E+02  0.92679693504E+02  0.00000000000E+00 0.  1.
         13    1    3    3    0    0 -0.30669627784E+02  0.34116604700E+02  0.17511904778E+02  0.49104333756E+02  0.00000000000E+00 0. -1.
         21    1    1    2  502  501 -0.17632823897E+02 -0.34452050305E+02  0.54874974185E+02  0.67150004025E+02  0.00000000000E+00 0.  1.
<scales pt_clust_5="13000.00000" pt_clust_6="13000.00000" pt_clust_7="13000.00000" pt_clust_8="13000.00000" pt_clust_9="38.70220"></scales>
<clustering>
<clus scale="   38.702">  1  9  2 -1</clus>
<clus scale="   79.669">  5  6 -1 -1</clus>
<clus scale="   80.851">  2  5  1 -1</clus>
<clus scale="   91.660">  7  8 -1 -1</clus>
<clus scale="   80.851">  2  5  1 -1</clus>
</clustering>
</event>
<event>
 9    2  0.2869112E-005  0.9086199E+02  0.7546771E-02  0.1306356E+00
          4   -1    0    0  502    0  0.00000000000E+00  0.00000000000E+00  0.70721934879E+02  0.70721934879E+02  0.00000000000E+00 0. -1.
         -3   -1    0    0    0  501 -0.00000000000E+00 -0.00000000000E+00 -0.29154634325E+03  0.29154634325E+03  0.00000000000E+00 0.  1.
         23    2    1    2    0    0 -0.22791955238E+02 -0.19748170375E+01 -0.13744483214E+03  0.16633063044E+03  0.90837347029E+02 0.  0.
         24    2    1    2    0    0 -0.26465027194E+01 -0.20125883600E+01  0.24006307194E+02  0.85507839647E+02  0.82001422960E+02 0.  0.
        -13    1    4    4    0    0 -0.39343171198E+02  0.62591964998E+01  0.26437167908E+02  0.47811991255E+02  0.00000000000E+00 0.  1.
         14    1    4    4    0    0  0.36696668479E+02 -0.82717848598E+01 -0.24308607138E+01  0.37695848392E+02  0.00000000000E+00 0. -1.
        -11    1    3    3    0    0 -0.29583882869E+02 -0.41186429730E+02 -0.97759041193E+02  0.11012882572E+03  0.00000000000E+00 0.  1.
         11    1    3    3    0    0  0.67919276305E+01  0.39211612692E+02 -0.39685790948E+02  0.56201804722E+02  0.00000000000E+00 0. -1.
         21    1    1    2  502  501  0.25438457958E+02  0.39874053975E+01 -0.10738588342E+03  0.11042980804E+03  0.00000000000E+00 0. -1.
<scales pt_clust_5="13000.00000" pt_clust_6="13000.00000" pt_clust_7="13000.00000" pt_clust_8="13000.00000" pt_clust_9="25.74907"></scales>
<clustering>
<clus scale="   25.749">  2  9  1 -1</clus>
<clus scale="   82.001">  5  6 -1 -1</clus>
<clus scale="   82.029">  1  5  2 -1</clus>
<clus scale="   90.837">  7  8 -1 -1</clus>
<clus scale="   82.029">  1  5  2 -1</clus>
</clustering>
</event>
<event>
 9    2  0.2869112E-005  0.1200028E+03  0.7546771E-02  0.1246571E+00
         -1   -1    0    0    0  501 -0.00000000000E+00  0.00000000000E+00  0.32309261565E+03  0.32309261565E+03  0.00000000000E+00 0.  1.
          2   -1    0    0  502    0  0.00000000000E+00 -0.00000000000E+00 -0.29653237030E+03  0.29653237030E+03  0.00000000000E+00 0. -1.
         23    2    1    2    0    0 -0.89875773426E+02  0.91877852260E+02  0.11209912213E+03  0.19373496121E+03  0.91912064650E+02 0.  0.
         24    2    1    2    0    0  0.67169130846E+02 -0.30372197695E+02 -0.23686790129E+03  0.26096879863E+03  0.81019433879E+02 0.  0.
        -13    1    4    4    0    0  0.36227996247E+02  0.26216963110E+02 -0.10694858351E+03  0.11592150957E+03  0.00000000000E+00 0.  1.
         14    1    4    4    0    0  0.30941134599E+02 -0.56589160805E+02 -0.12991931779E+03  0.14504728906E+03  0.00000000000E+00 0. -1.
        -13    1    3    3    0    0 -0.50636354232E+01  0.36681312495E+02 -0.67532871230E+01  0.37639951873E+02  0.00000000000E+00 0. -1.
         13    1    3    3    0    0 -0.84812138003E+02  0.55196539765E+02  0.11885240926E+03  0.15609500934E+03  0.00000000000E+00 0.  1.
         21    1    1    2  502  501  0.22706642580E+02 -0.61505654565E+02  0.15132902450E+03  0.16492122610E+03  0.00000000000E+00 0. -1.
<scales pt_clust_5="13000.00000" pt_clust_6="13000.00000" pt_clust_7="13000.00000" pt_clust_8="13000.00000" pt_clust_9="65.56323"></scales>
<clustering>
<clus scale="   65.563">  1  9  2 -1</clus>
<clus scale="   81.019">  5  6 -1 -1</clus>
<clus scale="   91.912">  7  8 -1 -1</clus>
<clus scale="  111.879">  2  5  1 -1</clus>
<clus scale="  111.879">  2  5  1 -1</clus>
</clustering>
</event>
<event>
 9    2  0.2869112E-005  0.1294831E+03  0.7546771E-02  0.1231590E+00
          2   -1    0    0  502    0  0.00000000000E+00  0.00000000000E+00  0.78067893811E+03  0.78067893811E+03  0.00000000000E+00 0. -1.
         -1   -1    0    0    0  501 -0.00000000000E+00 -0.00000000000E+00 -0.30403443830E+02  0.30403443830E+02  0.00000000000E+00 0.  1.
         23    2    1    2    0    0  0.75154489438E+02  0.28045437735E+02  0.28538769581E+03  0.30978630454E+03  0.89925934496E+02 0.  0.
         24    2    1    2    0    0 -0.98290468977E+02 -0.29218587601E+02  0.46013170871E+03  0.47764718272E+03  0.76882375413E+02 0.  0.
        -11    1    4    4    0    0 -0.95572322858E+02 -0.13530958865E+02  0.44610506295E+03  0.45642839848E+03  0.00000000000E+00 0.  1.
         12    1    4    4    0    0 -0.27181461191E+01 -0.15687628736E+02  0.14026645761E+02  0.21218784249E+02  0.00000000000E+00 0. -1.
        -11    1    3    3    0    0  0.89134205401E+02  0.88716601477E+01  0.26017706886E+03  0.27516489618E+03  0.00000000000E+00 0. -1.
         11    1    3    3    0    0 -0.13979715963E+02  0.19173777587E+02  0.25210626949E+02  0.34621408356E+02  0.00000000000E+00 0.  1.
         21    1    1    2  502  501  0.23135979539E+02  0.11731498667E+01  0.47560897520E+01  0.23648894679E+02  0.00000000000E+00 0. -1.
<scales pt_clust_5="13000.00000" pt_clust_6="13000.00000" pt_clust_7="13000.00000" pt_clust_8="13000.00000" pt_clust_9="23.16570"></scales>
<clustering>
<clus scale="   23.166">  2  9  1 -1</clus>
<clus scale="   76.882">  5  6 -1 -1</clus>
<clus scale="   89.926">  7  8 -1 -1</clus>
<clus scale="  120.790">  1  5  2 -1</clus>
<clus scale="  120.790">  1  5  2 -1</clus>
</clustering>
</event>
<event>
 9    2  0.2869112E-005  0.1325296E+03  0.7546771E-02  0.1232641E+00
         -1   -1    0    0    0  501 -0.00000000000E+00  0.00000000000E+00  0.45418377847E+02  0.45418377847E+02  0.00000000000E+00 0.  1.
          2   -1    0    0  502    0  0.00000000000E+00 -0.00000000000E+00 -0.73661715865E+03  0.73661715865E+03  0.00000000000E+00 0. -1.
         24    2    1    2    0    0  0.77578670672E+02 -0.60711674842E+02 -0.22780290631E+03  0.25980873530E+03  0.76824847590E+02 0.  0.
         23    2    1    2    0    0  0.26875215081E+01  0.81558401007E+02 -0.38666184739E+03  0.40924291512E+03  0.10636439160E+03 0.  0.
        -11    1    3    3    0    0 -0.16392391701E+01 -0.39016720400E+02 -0.46184615178E+02  0.60481486878E+02  0.00000000000E+00 0.  1.
         12    1    3    3    0    0  0.79217909842E+02 -0.21694954442E+02 -0.18161829113E+03  0.19932724842E+03  0.00000000000E+00 0. -1.
        -11    1    4    4    0    0 -0.12890013633E+02 -0.22162000015E+02 -0.44392577850E+02  0.51264097225E+02  0.00000000000E+00 0.  1.
         11    1    4    4    0    0  0.15577535141E+02  0.10372040102E+03 -0.34226926954E+03  0.35797881789E+03  0.00000000000E+00 0. -1.
         21    1    1    2  502  501 -0.80266192180E+02 -0.20846726165E+02 -0.76734027102E+02  0.11298388608E+03  0.00000000000E+00 0.  1.
<scales pt_clust_5="13000.00000" pt_clust_6="13000.00000" pt_clust_7="13000.00000" pt_clust_8="13000.00000" pt_clust_9="82.92917"></scales>
<clustering>
<clus scale="   76.825">  5  6 -1 -1</clus>
<clus scale="   82.929">  1  9  2 -1</clus>
<clus scale="  106.364">  7  8 -1 -1</clus>
<clus scale="  110.240">  1  5  2 -1</clus>
<clus scale="  132.530">  2  5  1 -1</clus>
</clustering>
</event>
<event>
 9    2  0.3206708E-005  0.9858351E+02  0.7546771E-02  0.1285001E+00
          2   -1    0    0  502    0  0.00000000000E+00  0.00000000000E+00  0.37397732884E+03  0.37397732884E+03  0.00000000000E+00 0. -1.
         -1   -1    0    0    0  501 -0.00000000000E+00 -0.00000000000E+00 -0.10506471664E+03  0.10506471664E+03  0.00000000000E+00 0.  1.
         24    2    1    2    0    0  0.14641688698E+02  0.23015243814E+02 -0.50106712033E+02  0.98250518528E+02  0.79990007529E+02 0.  0.
         23    2    1    2    0    0 -0.71615453105E+01 -0.54360400767E+02  0.33147430196E+03  0.34624304103E+03  0.83682075137E+02 0.  0.
        -11    1    3    3    0    0 -0.10527573057E+02  0.41063939545E+02 -0.52156035612E+02  0.67211077779E+02  0.00000000000E+00 0.  1.
         12    1    3    3    0    0  0.25169261755E+02 -0.18048695731E+02  0.20493235791E+01  0.31039440749E+02  0.00000000000E+00 0. -1.
        -13    1    4    4    0    0 -0.38548689083E+02 -0.56702895961E+02  0.22553017547E+03  0.23572246369E+03  0.00000000000E+00 0. -1.
         13    1    4    4    0    0  0.31387143773E+02  0.23424951940E+01  0.10594412650E+03  0.11052057735E+03  0.00000000000E+00 0.  1.
         21    1    1    2  502  501 -0.74801433873E+01  0.31345156953E+02 -0.12454977731E+02  0.34548485926E+02  0.00000000000E+00 0.  1.
<scales pt_clust_5="13000.00000" pt_clust_6="13000.00000" pt_clust_7="13000.00000" pt_clust_8="13000.00000" pt_clust_9="32.22532"></scales>
<clustering>
<clus scale="   32.225">  2  9  1 -1</clus>
<clus scale="   79.990">  5  6 -1 -1</clus>
<clus scale="   83.682">  7  8 -1 -1</clus>
<clus scale="   95.469">  2  5  1 -1</clus>
<clus scale="   98.584">  1  5  2 -1</clus>
</clustering>
</event>
<event>
 9    2  0.2869112E-005  0.1031312E+03  0.7546771E-02  0.1274329E+00
         -1   -1    0    0    0  501 -0.00000000000E+00  0.00000000000E+00  0.57054321380E+02  0.57054321380E+02  0.00000000000E+00 0.  1.
          2   -1    0    0  502    0  0.00000000000E+00 -0.00000000000E+00 -0.86619373613E+03  0.86619373613E+03  0.00000000000E+00 0. -1.
         23    2    1    2    0    0  0.93416641690E+01 -0.42088602993E+02 -0.11030721045E+02  0.10293298675E+03  0.92815977954E+02 0.  0.
         24    2    1    2    0    0 -0.71712564418E+02  0.19171720509E+02 -0.58390816995E+03  0.59604474932E+03  0.93863440681E+02 0.  0.
        -13    1    4    4    0    0 -0.67949237919E+02 -0.25913014372E+02 -0.40682602282E+03  0.41327472230E+03  0.00000000000E+00 0.  1.
         14    1    4    4    0    0 -0.37633264989E+01  0.45084734881E+02 -0.17708214713E+03  0.18277002702E+03  0.00000000000E+00 0. -1.
        -11    1    3    3    0    0 -0.27138711806E+02  0.37185530524E+01 -0.30714343701E+02  0.41154686541E+02  0.00000000000E+00 0. -1.
         11    1    3    3    0    0  0.36480375975E+02 -0.45807156045E+02  0.19683622656E+02  0.61778300212E+02  0.00000000000E+00 0.  1.
         21    1    1    2  502  501  0.62370900249E+02  0.22916882484E+02 -0.21420052375E+03  0.22427032144E+03  0.00000000000E+00 0. -1.
<scales pt_clust_5="13000.00000" pt_clust_6="13000.00000" pt_clust_7="13000.00000" pt_clust_8="13000.00000" pt_clust_9="66.44782"></scales>
<clustering>
<clus scale="   66.448">  2  9  1 -1</clus>
<clus scale="   92.816">  7  8 -1 -1</clus>
<clus scale="   93.863">  5  6 -1 -1</clus>
<clus scale="  102.179">  1  7  2 -1</clus>
<clus scale="   66.448">  2  5  1 -1</clus>
</clustering>
</event>
<event>
 9    2  0.2869112E-005  0.1819725E+03  0.7546771E-02  0.1188288E+00
         -1   -1    0    0    0  501 -0.00000000000E+00  0.00000000000E+00  0.28913738074E+03  0.28913738074E+03  0.00000000000E+00 0.  1.
          2   -1    0    0  502    0  0.00000000000E+00 -0.00000000000E+00 -0.40674233605E+03  0.40674233605E+03  0.00000000000E+00 0. -1.
         24    2    1    2    0    0  0.67393005955E+02 -0.22266187634E+02  0.10837683794E+03  0.15423957926E+03  0.83706083686E+02 0.  0.
         23    2    1    2    0    0  0.62970960195E+02  0.14178530208E+03 -0.29977053289E+03  0.35000412712E+03  0.92585651662E+02 0.  0.
        -11    1    3    3    0    0  0.96703875525E+01  0.29106331580E+02  0.18951065037E+02  0.36053263368E+02  0.00000000000E+00 0.  1.
         12    1    3    3    0    0  0.57722618403E+02 -0.51372519214E+02  0.89425772898E+02  0.11818631589E+03  0.00000000000E+00 0. -1.
        -13    1    4    4    0    0  0.71821931304E+02  0.48964255241E+02 -0.13165363606E+03  0.15776111053E+03  0.00000000000E+00 0.  1.
         13    1    4    4    0    0 -0.88509711092E+01  0.92821046839E+02 -0.16811689683E+03  0.19224301658E+03  0.00000000000E+00 0. -1.
         21    1    1    2  502  501 -0.13036396615E+03 -0.11951911445E+03  0.73788739653E+02  0.19163601041E+03  0.00000000000E+00 0.  1.
<scales pt_clust_5="13000.00000" pt_clust_6="13000.00000" pt_clust_7="13000.00000" pt_clust_8="13000.00000" pt_clust_9="156.65852"></scales>
<clustering>
<clus scale="   83.706">  5  6 -1 -1</clus>
<clus scale="   92.586">  7  8 -1 -1</clus>
<clus scale="  109.747">  1  5  2 -1</clus>
<clus scale="  156.659">  1  9  2 -1</clus>
<clus scale="  181.973">  2  5  1 -1</clus>
</clustering>
</event>
<event>
 9    2  0.2869112E-005  0.1072312E+03  0.7546771E-02  0.1269163E+00
          2   -1    0    0  502    0  0.00000000000E+00  0.00000000000E+00  0.12691956236E+04  0.12691956236E+04  0.00000000000E+00 0. -1.
         -1   -1    0    0    0  501 -0.00000000000E+00 -0.00000000000E+00 -0.23427518107E+02  0.23427518107E+02  0.00000000000E+00 0.  1.
         23    2    1    2    0    0 -0.62202803650E+02 -0.76399755010E+01  0.19364645359E+03  0.22289820312E+03  0.90868597225E+02 0.  0.
         24    2    1    2    0    0  0.26911641242E+02  0.54246085689E+02  0.91413001286E+03  0.91986070637E+03  0.82723421513E+02 0.  0.
        -13    1    4    4    0    0 -0.26403190722E+02  0.76726834156E+01  0.15346838779E+03  0.15591197709E+03  0.00000000000E+00 0.  1.
         14    1    4    4    0    0  0.53314831964E+02  0.46573402273E+02  0.76066162507E+03  0.76394872927E+03  0.00000000000E+00 0. -1.
        -13    1    3    3    0    0 -0.36115258134E+02 -0.32695843836E+02  0.34506963606E+02  0.59699753865E+02  0.00000000000E+00 0.  1.
         13    1    3    3    0    0 -0.26087545516E+02  0.25055868336E+02  0.15913948998E+03  0.16319844926E+03  0.00000000000E+00 0. -1.
         21    1    1    2  502  501  0.35291162409E+02 -0.46606110188E+02  0.13799163909E+03  0.14986423225E+03  0.00000000000E+00 0. -1.
<scales pt_clust_5="13000.00000" pt_clust_6="13000.00000" pt_clust_7="13000.00000" pt_clust_8="13000.00000" pt_clust_9="58.46021"></scales>
<clustering>
<clus scale="   58.460">  2  9  1 -1</clus>
<clus scale="   82.723">  5  6 -1 -1</clus>
<clus scale="   90.869">  7  8 -1 -1</clus>
<clus scale="  100.422">  1  5  2 -1</clus>
<clus scale="  100.422">  1  5  2 -1</clus>
</clustering>
</event>
<event>
 9    2  0.2869112E-005  0.1880631E+03  0.7546771E-02  0.1161479E+00
          2   -1    0    0  502    0  0.00000000000E+00  0.00000000000E+00  0.57427544875E+03  0.57427544875E+03  0.00000000000E+00 0. -1.
         -1   -1    0    0    0  501 -0.00000000000E+00 -0.00000000000E+00 -0.93604067954E+02  0.93604067954E+02  0.00000000000E+00 0.  1.
         23    2    1    2    0    0  0.16635860356E+03 -0.65817495999E+02  0.11436213521E+03  0.23127240731E+03  0.91657518283E+02 0.  0.
         24    2    1    2    0    0 -0.14592984142E+03 -0.10363142707E+01  0.27780256653E+03  0.32382325191E+03  0.79941478245E+02 0.  0.
        -13    1    4    4    0    0 -0.73699618706E+02  0.25930373066E+02  0.81389174681E+02  0.11281939461E+03  0.00000000000E+00 0.  1.
         14    1    4    4    0    0 -0.72230222715E+02 -0.26966687336E+02  0.19641339184E+03  0.21100385730E+03  0.00000000000E+00 0. -1.
        -11    1    3    3    0    0  0.15550530933E+03 -0.37374038468E+02  0.63670274811E+02  0.17214129044E+03  0.00000000000E+00 0.  1.
         11    1    3    3    0    0  0.10853294231E+02 -0.28443457531E+02  0.50691860399E+02  0.59131116873E+02  0.00000000000E+00 0. -1.
         21    1    1    2  502  501 -0.20428762137E+02  0.66853810269E+02  0.88506679065E+02  0.11278385748E+03  0.00000000000E+00 0. -1.
<scales pt_clust_5="13000.00000" pt_clust_6="13000.00000" pt_clust_7="13000.00000" pt_clust_8="13000.00000" pt_clust_9="69.90541"></scales>
<clustering>
<clus scale="   69.905">  1  9  2 -1</clus>
<clus scale="   79.941">  5  6 -1 -1</clus>
<clus scale="   91.658">  7  8 -1 -1</clus>
<clus scale="  182.640">  1  5  2 -1</clus>
<clus scale="   69.905">  1  5  2 -1</clus>
</clustering>
</event>
<event>
 9    2  0.2869112E-005  0.2432689E+03  0.7546771E-02  0.1131218E+00
          2   -1    0    0  502    0  0.00000000000E+00  0.00000000000E+00  0.11026242751E+04  0.11026242751E+04  0.00000000000E+00 0. -1.
         -1   -1    0    0    0  501 -0.00000000000E+00 -0.00000000000E+00 -0.18300313811E+03  0.18300313811E+03  0.00000000000E+00 0.  1.
         23    2    1    2    0    0  0.68890132641E+01  0.14595344717E+03 -0.63401117982E+02  0.18488100019E+03  0.93869138823E+02 0.  0.
         24    2    1    2    0    0 -0.18165441923E+03  0.67176361525E+02  0.31840692159E+03  0.38124602814E+03  0.80340367698E+02 0.  0.
        -13    1    4    4    0    0 -0.13348168149E+03  0.33276124244E+02  0.27688808432E+03  0.30917902738E+03  0.00000000000E+00 0.  1.
         14    1    4    4    0    0 -0.48172737742E+02  0.33900237281E+02  0.41518837272E+02  0.72067000754E+02  0.00000000000E+00 0. -1.
        -13    1    3    3    0    0  0.21929285499E+02  0.13174928232E+02 -0.42532700145E+02  0.49633686928E+02  0.00000000000E+00 0. -1.
         13    1    3    3    0    0 -0.15040272235E+02  0.13277851894E+03 -0.20868417838E+02  0.13524731326E+03  0.00000000000E+00 0.  1.
         21    1    1    2  502  501  0.17476540597E+03 -0.21312980870E+03  0.66461533339E+03  0.71950038489E+03  0.00000000000E+00 0. -1.
<scales pt_clust_5="13000.00000" pt_clust_6="13000.00000" pt_clust_7="13000.00000" pt_clust_8="13000.00000" pt_clust_9="229.61964"></scales>
<clustering>
<clus scale="   80.340">  5  6 -1 -1</clus>
<clus scale="   93.869">  7  8 -1 -1</clus>
<clus scale="  173.670">  2  7  1 -1</clus>
<clus scale="  229.620">  1  9  2 -1</clus>
<clus scale="  229.620">  1  5  2 -1</clus>
</clustering>
</event>
<event>
 9    2  0.2869112E-005  0.1064261E+03  0.7546771E-02  0.1272150E+00
          2   -1    0    0  502    0  0.00000000000E+00  0.00000000000E+00  0.26271110062E+03  0.26271110062E+03  0.00000000000E+00 0. -1.
         -1   -1    0    0    0  501 -0.00000000000E+00 -0.00000000000E+00 -0.67985046883E+02  0.67985046883E+02  0.00000000000E+00 0.  1.
         23    2    1    2    0    0 -0.46926938119E+02  0.64425813022E+01  0.26418469891E+02  0.10624821466E+03  0.91362482414E+02 0.  0.
         24    2    1    2    0    0  0.50431425971E+02  0.34788742763E+02  0.14594096747E+03  0.17740997958E+03  0.80137067072E+02 0.  0.
        -11    1    4    4    0    0  0.17199855192E+02  0.15195378203E+02 -0.33691355705E+01  0.23196672430E+02  0.00000000000E+00 0.  1.
         12    1    4    4    0    0  0.33231570779E+02  0.19593364560E+02  0.14931010304E+03  0.15421330715E+03  0.00000000000E+00 0. -1.
        -13    1    3    3    0    0 -0.51131705944E+01  0.21566954659E+02  0.50880406104E+02  0.55498592524E+02  0.00000000000E+00 0. -1.
         13    1    3    3    0    0 -0.41813767525E+02 -0.15124373357E+02 -0.24461936213E+02  0.50749622140E+02  0.00000000000E+00 0.  1.
         21    1    1    2  502  501 -0.35044878517E+01 -0.41231324065E+02  0.22366616382E+02  0.47037953268E+02  0.00000000000E+00 0. -1.
<scales pt_clust_5="13000.00000" pt_clust_6="13000.00000" pt_clust_7="13000.00000" pt_clust_8="13000.00000" pt_clust_9="41.37999"></scales>
<clustering>
<clus scale="   41.380">  2  9  1 -1</clus>
<clus scale="   80.137">  5  6 -1 -1</clus>
<clus scale="   91.362">  7  8 -1 -1</clus>
<clus scale="   96.961">  1  5  2 -1</clus>
<clus scale="   96.961">  1  5  2 -1</clus>
</clustering>
</event>
<event>
 9    2  0.2869112E-005  0.1081894E+03  0.7546771E-02  0.1269006E+00
          2   -1    0    0  502    0  0.00000000000E+00  0.00000000000E+00  0.65676481630E+03  0.65676481630E+03  0.00000000000E+00 0. -1.
         -1   -1    0    0    0  501 -0.00000000000E+00 -0.00000000000E+00 -0.36562525653E+02  0.36562525653E+02  0.00000000000E+00 0.  1.
         23    2    1    2    0    0  0.17705823221E+02 -0.10102917478E+03  0.31155729003E+03  0.34035882785E+03  0.90861413115E+02 0.  0.
         24    2    1    2    0    0  0.14490732756E+01  0.36714748734E+02  0.24724524069E+03  0.26201145843E+03  0.78547582490E+02 0.  0.
        -11    1    4    4    0    0 -0.17109867396E+02 -0.20421045403E+02  0.76515004302E+02  0.81020445203E+02  0.00000000000E+00 0.  1.
         12    1    4    4    0    0  0.18558940671E+02  0.57135794137E+02  0.17073023639E+03  0.18099101323E+03  0.00000000000E+00 0. -1.
        -11    1    3    3    0    0  0.50493826309E+02 -0.88563589420E+02  0.23256162085E+03  0.25392527121E+03  0.00000000000E+00 0.  1.
         11    1    3    3    0    0 -0.32788003087E+02 -0.12465585363E+02  0.78995669179E+02  0.86433556643E+02  0.00000000000E+00 0. -1.
         21    1    1    2  502  501 -0.19154896497E+02  0.64314426049E+02  0.61399759929E+02  0.90957055675E+02  0.00000000000E+00 0. -1.
<scales pt_clust_5="13000.00000" pt_clust_6="13000.00000" pt_clust_7="13000.00000" pt_clust_8="13000.00000" pt_clust_9="67.10630"></scales>
<clustering>
<clus scale="   67.106">  2  9  1 -1</clus>
<clus scale="   78.548">  5  6 -1 -1</clus>
<clus scale="   90.861">  7  8 -1 -1</clus>
<clus scale="   98.076">  1  5  2 -1</clus>
<clus scale="   98.076">  1  5  2 -1</clus>
</clustering>
</event>
<event>
 9    2  0.2869112E-005  0.1275006E+03  0.7546771E-02  0.1233969E+00
          2   -1    0    0  502    0  0.00000000000E+00  0.00000000000E+00  0.14084789477E+03  0.14084789477E+03  0.00000000000E+00 0. -1.
         -1   -1    0    0    0  501 -0.00000000000E+00 -0.00000000000E+00 -0.23233579561E+03  0.23233579561E+03  0.00000000000E+00 0.  1.
         24    2    1    2    0    0 -0.82371428355E+02  0.55271991916E+01 -0.14381711521E+03  0.18388140596E+03  0.79456948659E+02 0.  0.
         23    2    1    2    0    0  0.91648960370E+02  0.13389875391E+02  0.82056562290E+02  0.15286544146E+03  0.89753791437E+02 0.  0.
        -13    1    3    3    0    0 -0.38584184775E+02  0.26448380886E+02 -0.12202552459E+03  0.13068467706E+03  0.00000000000E+00 0.  1.
         14    1    3    3    0    0 -0.43787243579E+02 -0.20921181694E+02 -0.21791590614E+02  0.53196728896E+02  0.00000000000E+00 0. -1.
        -11    1    4    4    0    0  0.38489076171E+02  0.46962512776E+02  0.62217142323E+02  0.86935949926E+02  0.00000000000E+00 0.  1.
         11    1    4    4    0    0  0.53159884198E+02 -0.33572637385E+02  0.19839419967E+02  0.65929491531E+02  0.00000000000E+00 0. -1.
         21    1    1    2  502  501 -0.92775320153E+01 -0.18917074583E+02 -0.29727347919E+02  0.36436842967E+02  0.00000000000E+00 0. -1.
<scales pt_clust_5="13000.00000" pt_clust_6="13000.00000" pt_clust_7="13000.00000" pt_clust_8="13000.00000" pt_clust_9="21.06961"></scales>
<clustering>
<clus scale="   21.070">  2  9  1 -1</clus>
<clus scale="   79.457">  5  6 -1 -1</clus>
<clus scale="   89.754">  7  8 -1 -1</clus>
<clus scale="  120.474">  2  5  1 -1</clus>
<clus scale="  127.501">  1  5  2 -1</clus>
</clustering>
</event>
<event>
 9    2  0.2869112E-005  0.1310990E+03  0.7546771E-02  0.1237546E+00
          2   -1    0    0  502    0  0.00000000000E+00  0.00000000000E+00  0.36943236503E+03  0.36943236503E+03  0.00000000000E+00 0. -1.
         -1   -1    0    0    0  501 -0.00000000000E+00 -0.00000000000E+00 -0.31919155338E+03  0.31919155338E+03  0.00000000000E+00 0.  1.
         23    2    1    2    0    0 -0.48779822739E+02  0.76637861417E+01 -0.19966807881E+02  0.10492389035E+03  0.90399914963E+02 0.  0.
         24    2    1    2    0    0  0.42010132862E+02  0.95349981815E+02  0.30228755597E+03  0.32969459113E+03  0.80400787513E+02 0.  0.
        -11    1    4    4    0    0  0.33928973352E+02  0.29319106735E+02  0.43429171789E+02  0.62424980695E+02  0.00000000000E+00 0.  1.
         12    1    4    4    0    0  0.80811595094E+01  0.66030875080E+02  0.25885838418E+03  0.26726961044E+03  0.00000000000E+00 0. -1.
        -13    1    3    3    0    0 -0.65311773357E+02 -0.21733393990E+02 -0.87822532903E+01  0.69390893683E+02  0.00000000000E+00 0.  1.
         13    1    3    3    0    0  0.16531950618E+02  0.29397180131E+02 -0.11184554591E+02  0.35532996669E+02  0.00000000000E+00 0. -1.
         21    1    1    2  502  501  0.67696898768E+01 -0.10301376796E+03 -0.23207993644E+03  0.25400543692E+03  0.00000000000E+00 0.  1.
<scales pt_clust_5="13000.00000" pt_clust_6="13000.00000" pt_clust_7="13000.00000" pt_clust_8="13000.00000" pt_clust_9="103.55032"></scales>
<clustering>
<clus scale="   80.401">  5  6 -1 -1</clus>
<clus scale="   90.400">  7  8 -1 -1</clus>
<clus scale="  103.007">  2  7  1 -1</clus>
<clus scale="  103.550">  2  9  1 -1</clus>
<clus scale="  131.099">  1  5  2 -1</clus>
</clustering>
</event>
<event>
 9    2  0.2869112E-005  0.9065363E+02  0.7546771E-02  0.1306846E+00
          2   -1    0    0  502    0  0.00000000000E+00  0.00000000000E+00  0.79114696638E+03  0.79114696638E+03  0.00000000000E+00 0. -1.
         -1   -1    0    0    0  501 -0.00000000000E+00 -0.00000000000E+00 -0.16459275277E+02  0.16459275277E+02  0.00000000000E+00 0.  1.
         23    2    1    2    0    0 -0.10516789098E+02  0.61648321433E+00  0.23165397546E+03  0.24869153663E+03  0.89849502717E+02 0.  0.
         24    2    1    2    0    0 -0.21354749778E+02 -0.17325911786E+01  0.48940453219E+03  0.49651975327E+03  0.80969389588E+02 0.  0.
        -13    1    4    4    0    0 -0.23900365362E+02 -0.39099361858E+02  0.24269786018E+03  0.24698631318E+03  0.00000000000E+00 0.  1.
         14    1    4    4    0    0  0.25456155843E+01  0.37366770680E+02  0.24670667200E+03  0.24953344009E+03  0.00000000000E+00 0. -1.
        -11    1    3    3    0    0 -0.44813608110E+01  0.43638510941E+02  0.14889732338E+03  0.15522504676E+03  0.00000000000E+00 0. -1.
         11    1    3    3    0    0 -0.60354282874E+01 -0.43022027727E+02  0.82756652081E+02  0.93466489867E+02  0.00000000000E+00 0.  1.
         21    1    1    2  502  501  0.31871538877E+02  0.11161079643E+01  0.53629183454E+02  0.62394951762E+02  0.00000000000E+00 0.  1.
<scales pt_clust_5="13000.00000" pt_clust_6="13000.00000" pt_clust_7="13000.00000" pt_clust_8="13000.00000" pt_clust_9="31.89108"></scales>
<clustering>
<clus scale="   31.891">  2  9  1 -1</clus>
<clus scale="   80.969">  5  6 -1 -1</clus>
<clus scale="   81.861">  1  5  2 -1</clus>
<clus scale="   89.850">  7  8 -1 -1</clus>
<clus scale="   81.861">  1  5  2 -1</clus>
</clustering>
</event>
<event>
 9    2  0.2869112E-005  0.9676214E+02  0.7546771E-02  0.1294878E+00
          2   -1    0    0  502    0  0.00000000000E+00  0.00000000000E+00  0.93590204340E+03  0.93590204340E+03  0.00000000000E+00 0. -1.
         -1   -1    0    0    0  501 -0.00000000000E+00 -0.00000000000E+00 -0.19964541167E+02  0.19964541167E+02  0.00000000000E+00 0.  1.
         23    2    1    2    0    0  0.26863699380E+02 -0.17685111400E+02  0.19098892703E+03  0.21470520864E+03  0.92666794790E+02 0.  0.
         24    2    1    2    0    0 -0.85968451521E+01  0.26831678666E+02  0.71207531937E+03  0.71701477427E+03  0.79152266791E+02 0.  0.
        -11    1    4    4    0    0  0.97157773872E+01 -0.22512751902E+02  0.11288659607E+03  0.11551884652E+03  0.00000000000E+00 0.  1.
         12    1    4    4    0    0 -0.18312622539E+02  0.49344430568E+02  0.59918872330E+03  0.60149592775E+03  0.00000000000E+00 0. -1.
        -13    1    3    3    0    0  0.52735718526E+02  0.18386171642E+01  0.60627788696E+02  0.80375153398E+02  0.00000000000E+00 0.  1.
         13    1    3    3    0    0 -0.25872019147E+02 -0.19523728564E+02  0.13036113834E+03  0.13433005524E+03  0.00000000000E+00 0. -1.
         21    1    1    2  502  501 -0.18266854228E+02 -0.91465672662E+01  0.12873255829E+02  0.24146601661E+02  0.00000000000E+00 0. -1.
<scales pt_clust_5="13000.00000" pt_clust_6="13000.00000" pt_clust_7="13000.00000" pt_clust_8="13000.00000" pt_clust_9="20.42884"></scales>
<clustering>
<clus scale="   20.429">  2  9  1 -1</clus>
<clus scale="   79.152">  5  6 -1 -1</clus>
<clus scale="   83.910">  1  5  2 -1</clus>
<clus scale="   92.667">  7  8 -1 -1</clus>
<clus scale="   83.910">  1  5  2 -1</clus>
</clustering>
</event>
<event>
 9    2  0.2869112E-005  0.9484418E+02  0.7546771E-02  0.1300293E+00
          2   -1    0    0  502    0  0.00000000000E+00  0.00000000000E+00  0.17341869469E+03  0.17341869469E+03  0.00000000000E+00 0. -1.
         -1   -1    0    0    0  501 -0.00000000000E+00 -0.00000000000E+00 -0.24251322331E+03  0.24251322331E+03  0.00000000000E+00 0.  1.
         23    2    1    2    0    0  0.17056879505E+02  0.20901367857E+02 -0.11765471535E+03  0.15328640180E+03  0.94479016807E+02 0.  0.
         24    2    1    2    0    0 -0.39951270413E+01 -0.55950308096E+01  0.14407992286E+03  0.16502936323E+03  0.80177310678E+02 0.  0.
        -11    1    4    4    0    0  0.12657274951E+02  0.30699225800E+02  0.32272970698E+02  0.46305439330E+02  0.00000000000E+00 0.  1.
         12    1    4    4    0    0 -0.16652401992E+02 -0.36294256609E+02  0.11180695216E+03  0.11872392390E+03  0.00000000000E+00 0. -1.
        -13    1    3    3    0    0  0.50414782550E+02  0.25031757385E+02 -0.10134240318E+03  0.11592463870E+03  0.00000000000E+00 0. -1.
         13    1    3    3    0    0 -0.33357903045E+02 -0.41303895277E+01 -0.16312312170E+02  0.37361763095E+02  0.00000000000E+00 0.  1.
         21    1    1    2  502  501 -0.13061752463E+02 -0.15306337047E+02 -0.95519736133E+02  0.97616152978E+02  0.00000000000E+00 0. -1.
<scales pt_clust_5="13000.00000" pt_clust_6="13000.00000" pt_clust_7="13000.00000" pt_clust_8="13000.00000" pt_clust_9="20.12196"></scales>
<clustering>
<clus scale="   20.122">  2  9  1 -1</clus>
<clus scale="   80.177">  5  6 -1 -1</clus>
<clus scale="   80.607">  1  5  2 -1</clus>
<clus scale="   94.479">  7  8 -1 -1</clus>
<clus scale="   80.607">  1  5  2 -1</clus>
</clustering>
</event>
<event>
 9    2  0.2869112E-005  0.4312904E+03  0.7546771E-02  0.1067747E+00
          2   -1    0    0  502    0  0.00000000000E+00  0.00000000000E+00  0.22778418571E+04  0.22778418571E+04  0.00000000000E+00 0. -1.
         -1   -1    0    0    0  501 -0.00000000000E+00 -0.00000000000E+00 -0.12098746419E+03  0.12098746419E+03  0.00000000000E+00 0.  1.
         23    2    1    2    0    0  0.33115880727E+03 -0.21406300273E+03  0.80374036157E+03  0.90043654015E+03  0.96427533701E+02 0.  0.
         24    2    1    2    0    0 -0.35418481135E+02 -0.13163957162E+03  0.57079110853E+03  0.59340561772E+03  0.88001658770E+02 0.  0.
        -11    1    4    4    0    0  0.22772732360E+02 -0.74917967570E+02  0.33410294061E+03  0.34315604923E+03  0.00000000000E+00 0.  1.
         12    1    4    4    0    0 -0.58191213495E+02 -0.56721604048E+02  0.23668816792E+03  0.25024956849E+03  0.00000000000E+00 0. -1.
        -11    1    3    3    0    0  0.25779100215E+03 -0.20797151876E+03  0.63063278429E+03  0.71232440786E+03  0.00000000000E+00 0.  1.
         11    1    3    3    0    0  0.73367805118E+02 -0.60914839603E+01  0.17310757728E+03  0.18811213229E+03  0.00000000000E+00 0. -1.
         21    1    1    2  502  501 -0.29574032613E+03  0.34570257434E+03  0.78232292282E+03  0.90498716343E+03  0.00000000000E+00 0.  1.
<scales pt_clust_5="13000.00000" pt_clust_6="13000.00000" pt_clust_7="13000.00000" pt_clust_8="13000.00000" pt_clust_9="420.37262"></scales>
<clustering>
<clus scale="   88.002">  5  6 -1 -1</clus>
<clus scale="   96.428">  7  8 -1 -1</clus>
<clus scale="  162.258">  1  5  2 -1</clus>
<clus scale="  420.373">  1  9  2 -1</clus>
<clus scale="  162.258">  1  5  2 -1</clus>
</clustering>
</event>
<event>
 9    2  0.2869112E-005  0.9934124E+02  0.7546771E-02  0.1286992E+00
          2   -1    0    0  502    0  0.00000000000E+00  0.00000000000E+00  0.24492182738E+03  0.24492182738E+03  0.00000000000E+00 0. -1.
         -1   -1    0    0    0  501 -0.00000000000E+00 -0.00000000000E+00 -0.52846305887E+02  0.52846305887E+02  0.00000000000E+00 0.  1.
         24    2    1    2    0    0 -0.62472306648E+01  0.42454476657E+02  0.39586971174E+02  0.98879563872E+02  0.79803692807E+02 0.  0.
         23    2    1    2    0    0 -0.19979666570E+02 -0.38888588717E+02  0.11071693333E+03  0.14943724301E+03  0.90342353654E+02 0.  0.
        -13    1    3    3    0    0 -0.15178500726E+01  0.65902492337E+02  0.34586077350E+02  0.74442186370E+02  0.00000000000E+00 0.  1.
         14    1    3    3    0    0 -0.47293805922E+01 -0.23448015681E+02  0.50008938239E+01  0.24437377502E+02  0.00000000000E+00 0. -1.
        -11    1    4    4    0    0 -0.19137484815E+02 -0.60050514925E+02  0.11167964226E+03  0.12823669586E+03  0.00000000000E+00 0. -1.
         11    1    4    4    0    0 -0.84218175557E+00  0.21161926209E+02 -0.96270893861E+00  0.21200547150E+02  0.00000000000E+00 0.  1.
         21    1    1    2  502  501  0.26226897235E+02 -0.35658879397E+01  0.41771616998E+02  0.49451326393E+02  0.00000000000E+00 0.  1.
<scales pt_clust_5="13000.00000" pt_clust_6="13000.00000" pt_clust_7="13000.00000" pt_clust_8="13000.00000" pt_clust_9="26.46820"></scales>
<clustering>
<clus scale="   26.468">  1  9  2 -1</clus>
<clus scale="   79.804">  5  6 -1 -1</clus>
<clus scale="   89.864">  2  5  1 -1</clus>
<clus scale="   90.342">  7  8 -1 -1</clus>
<clus scale="   26.468">  1  5  2 -1</clus>
</clustering>
</event>
<event>
 9    2  0.2869112E-005  0.1067923E+03  0.7546771E-02  0.1272436E+00
         -3   -1    0    0    0  501 -0.00000000000E+00  0.00000000000E+00  0.11930040760E+03  0.11930040760E+03  0.00000000000E+00 0.  1.
          4   -1    0    0  502    0  0.00000000000E+00 -0.00000000000E+00 -0.24385800405E+03  0.24385800405E+03  0.00000000000E+00 0. -1.
         23    2    1    2    0    0  0.57584793216E+02 -0.14908459239E+02  0.35932705070E+02  0.11680491172E+03  0.93882679662E+02 0.  0.
         24    2    1    2    0    0 -0.30258088437E+02  0.41516543816E+02 -0.17974349747E+03  0.20362851295E+03  0.80732094459E+02 0.  0.
        -11    1    4    4    0    0 -0.16071086664E+02  0.37029283351E+02 -0.23562133314E+02  0.46739937723E+02  0.00000000000E+00 0.  1.
         12    1    4    4    0    0 -0.14187001774E+02  0.44872604652E+01 -0.15618136416E+03  0.15688857523E+03  0.00000000000E+00 0. -1.
        -11    1    3    3    0    0  0.53940784659E+02 -0.48297927841E+02  0.40414613865E+02  0.82919473570E+02  0.00000000000E+00 0.  1.
         11    1    3    3    0    0  0.36440085572E+01  0.33389468601E+02 -0.44819087944E+01  0.33885438145E+02  0.00000000000E+00 0. -1.
         21    1    1    2  502  501 -0.27326704778E+02 -0.26608084577E+02  0.19253195950E+02  0.42724986989E+02  0.00000000000E+00 0.  1.
<scales pt_clust_5="13000.00000" pt_clust_6="13000.00000" pt_clust_7="13000.00000" pt_clust_8="13000.00000" pt_clust_9="38.14104"></scales>
<clustering>
<clus scale="   38.141">  1  9  2 -1</clus>
<clus scale="   80.732">  5  6 -1 -1</clus>
<clus scale="   93.883">  7  8 -1 -1</clus>
<clus scale="   95.437">  2  5  1 -1</clus>
<clus scale="   95.437">  2  5  1 -1</clus>
</clustering>
</event>
<event>
 9    2  0.2869112E-005  0.1146774E+03  0.7546771E-02  0.1253320E+00
          4   -1    0    0  502    0  0.00000000000E+00  0.00000000000E+00  0.26862709088E+03  0.26862709088E+03  0.00000000000E+00 0. -1.
         -3   -1    0    0    0  501 -0.00000000000E+00 -0.00000000000E+00 -0.17135749774E+03  0.17135749774E+03  0.00000000000E+00 0.  1.
         23    2    1    2    0    0  0.48733446746E+02 -0.17014210185E+02 -0.83566843056E+02  0.12956498947E+03  0.84494006050E+02 0.  0.
         24    2    1    2    0    0 -0.76833248168E+02  0.25095341359E+02  0.22792371961E+03  0.25499292885E+03  0.80864377946E+02 0.  0.
        -11    1    4    4    0    0 -0.44592531978E+02  0.35720122549E+00  0.31970378406E+02  0.54870088357E+02  0.00000000000E+00 0.  1.
         12    1    4    4    0    0 -0.32240716190E+02  0.24738140134E+02  0.19595334121E+03  0.20012284049E+03  0.00000000000E+00 0. -1.
        -11    1    3    3    0    0  0.38515042217E+02  0.23766293373E+02 -0.12429459536E+02  0.46933321234E+02  0.00000000000E+00 0. -1.
         11    1    3    3    0    0  0.10218404529E+02 -0.40780503558E+02 -0.71137383520E+02  0.82631668237E+02  0.00000000000E+00 0.  1.
         21    1    1    2  502  501  0.28099801422E+02 -0.80811311742E+01 -0.47087283410E+02  0.55426670295E+02  0.00000000000E+00 0. -1.
<scales pt_clust_5="13000.00000" pt_clust_6="13000.00000" pt_clust_7="13000.00000" pt_clust_8="13000.00000" pt_clust_9="29.23873"></scales>
<clustering>
<clus scale="   29.239">  2  9  1 -1</clus>
<clus scale="   80.864">  5  6 -1 -1</clus>
<clus scale="   84.494">  7  8 -1 -1</clus>
<clus scale="  112.030">  1  5  2 -1</clus>
<clus scale="  112.030">  1  5  2 -1</clus>
</clustering>
</event>
<event>
 9    2  0.2869112E-005  0.1459890E+03  0.7546771E-02  0.1205695E+00
          2   -1    0    0  502    0  0.00000000000E+00  0.00000000000E+00  0.21992068708E+03  0.21992068708E+03  0.00000000000E+00 0. -1.
         -1   -1    0    0    0  501 -0.00000000000E+00 -0.00000000000E+00 -0.17529884914E+03  0.17529884914E+03  0.00000000000E+00 0.  1.
         23    2    1    2    0    0 -0.73574774243E+02 -0.77135471239E+02 -0.27874311730E+02  0.13684405279E+03  0.81155339950E+02 0.  0.
         24    2    1    2    0    0  0.10238517077E+03  0.97507850373E+02 -0.15871729037E+02  0.16322321195E+03  0.79996256518E+02 0.  0.
        -11    1    4    4    0    0  0.10985271841E+03  0.64832954282E+02 -0.21130255998E+02  0.12929586003E+03  0.00000000000E+00 0.  1.
         12    1    4    4    0    0 -0.74675476339E+01  0.32674896092E+02  0.52585269609E+01  0.33927351917E+02  0.00000000000E+00 0. -1.
        -11    1    3    3    0    0 -0.70496741785E+02 -0.17039493951E+02 -0.24581508371E+02  0.76579275984E+02  0.00000000000E+00 0. -1.
         11    1    3    3    0    0 -0.30780324581E+01 -0.60095977288E+02 -0.32928033581E+01  0.60264776810E+02  0.00000000000E+00 0.  1.
         21    1    1    2  502  501 -0.28810396531E+02 -0.20372379134E+02  0.88367878705E+02  0.95152271474E+02  0.00000000000E+00 0. -1.
<scales pt_clust_5="13000.00000" pt_clust_6="13000.00000" pt_clust_7="13000.00000" pt_clust_8="13000.00000" pt_clust_9="35.28559"></scales>
<clustering>
<clus scale="   35.286">  1  9  2 -1</clus>
<clus scale="   79.996">  5  6 -1 -1</clus>
<clus scale="   81.155">  7  8 -1 -1</clus>
<clus scale="  145.348">  1  5  2 -1</clus>
<clus scale="   35.286">  1  5  2 -1</clus>
</clustering>
</event>
<event>
 9    2  0.2869112E-005  0.9211575E+02  0.7546771E-02  0.1301709E+00
          2   -1    0    0  502    0  0.00000000000E+00  0.00000000000E+00  0.10609798596E+03  0.10609798596E+03  0.00000000000E+00 0. -1.
         -1   -1    0    0    0  501 -0.00000000000E+00 -0.00000000000E+00 -0.19945775548E+03  0.19945775548E+03  0.00000000000E+00 0.  1.
         24    2    1    2    0    0 -0.14574816674E+02  0.30662063397E+02 -0.25656832658E+02  0.93577435925E+02  0.83341922461E+02 0.  0.
         23    2    1    2    0    0 -0.20226788932E+01 -0.14406754287E+02  0.41676674867E+02  0.10015875716E+03  0.89906538191E+02 0.  0.
        -11    1    3    3    0    0  0.31768868002E+02  0.12007691692E+02  0.59240313364E+01  0.34475205310E+02  0.00000000000E+00 0.  1.
         12    1    3    3    0    0 -0.46343684676E+02  0.18654371705E+02 -0.31580863994E+02  0.59102230615E+02  0.00000000000E+00 0. -1.
        -13    1    4    4    0    0 -0.42313672645E+02 -0.57782784951E+01  0.16875294858E+01  0.42739713977E+02  0.00000000000E+00 0. -1.
         13    1    4    4    0    0  0.40290993752E+02 -0.86284757919E+01  0.39989145381E+02  0.57419043185E+02  0.00000000000E+00 0.  1.
         21    1    1    2  502  501  0.16597495567E+02 -0.16255309110E+02 -0.10937961173E+03  0.11181954836E+03  0.00000000000E+00 0.  1.
<scales pt_clust_5="13000.00000" pt_clust_6="13000.00000" pt_clust_7="13000.00000" pt_clust_8="13000.00000" pt_clust_9="23.23170"></scales>
<clustering>
<clus scale="   23.232">  2  9  1 -1</clus>
<clus scale="   83.342">  5  6 -1 -1</clus>
<clus scale="   85.720">  2  5  1 -1</clus>
<clus scale="   89.907">  7  8 -1 -1</clus>
<clus scale="   92.116">  1  5  2 -1</clus>
</clustering>
</event>
<event>
 9    2  0.2869112E-005  0.9198701E+02  0.7546771E-02  0.1304216E+00
         -1   -1    0    0    0  501 -0.00000000000E+00  0.00000000000E+00  0.45183504073E+02  0.45183504073E+02  0.00000000000E+00 0.  1.
          2   -1    0    0  502    0  0.00000000000E+00 -0.00000000000E+00 -0.54196943908E+03  0.54196943908E+03  0.00000000000E+00 0. -1.
         23    2    1    2    0    0  0.89226600716E+00 -0.17661378791E+02 -0.98707660773E+02  0.13516938867E+03  0.90635759494E+02 0.  0.
         24    2    1    2    0    0 -0.18656382126E+02 -0.13829882439E+00 -0.41401049979E+03  0.42221397007E+03  0.80696114319E+02 0.  0.
        -13    1    4    4    0    0 -0.71942950120E+01  0.40203512029E+02 -0.21115331868E+03  0.21506697619E+03  0.00000000000E+00 0.  1.
         14    1    4    4    0    0 -0.11462087114E+02 -0.40341810853E+02 -0.20285718111E+03  0.20714699388E+03  0.00000000000E+00 0. -1.
        -11    1    3    3    0    0  0.35864014301E+02 -0.16701197245E+02 -0.91167067730E+02  0.99381043211E+02  0.00000000000E+00 0. -1.
         11    1    3    3    0    0 -0.34971748294E+02 -0.96018154580E+00 -0.75405930433E+01  0.35788345460E+02  0.00000000000E+00 0.  1.
         21    1    1    2  502  501  0.17764116119E+02  0.17799677615E+02  0.15932225557E+02  0.29769584409E+02  0.00000000000E+00 0.  1.
<scales pt_clust_5="13000.00000" pt_clust_6="13000.00000" pt_clust_7="13000.00000" pt_clust_8="13000.00000" pt_clust_9="25.14741"></scales>
<clustering>
<clus scale="   25.147">  1  9  2 -1</clus>
<clus scale="   80.696">  5  6 -1 -1</clus>
<clus scale="   82.211">  2  5  1 -1</clus>
<clus scale="   90.636">  7  8 -1 -1</clus>
<clus scale="   82.211">  2  5  1 -1</clus>
</clustering>
</event>
<event>
 9    2  0.2869112E-005  0.1159772E+03  0.7546771E-02  0.1254345E+00
          2   -1    0    0  502    0  0.00000000000E+00  0.00000000000E+00  0.71294986986E+02  0.71294986986E+02  0.00000000000E+00 0. -1.
         -1   -1    0    0    0  501 -0.00000000000E+00 -0.00000000000E+00 -0.25479108549E+03  0.25479108549E+03  0.00000000000E+00 0.  1.
         23    2    1    2    0    0 -0.64777533811E+02 -0.29982684769E+02 -0.69425704737E+02  0.13730511054E+03  0.94539275596E+02 0.  0.
         24    2    1    2    0    0  0.65989063898E+02  0.36298587391E+01 -0.44620972309E+02  0.11448990335E+03  0.82153358850E+02 0.  0.
        -13    1    4    4    0    0  0.56229005642E+02 -0.28919883796E+02 -0.49312648555E+02  0.80186021611E+02  0.00000000000E+00 0.  1.
         14    1    4    4    0    0  0.97600582557E+01  0.32549742535E+02  0.46916762459E+01  0.34303881738E+02  0.00000000000E+00 0. -1.
        -11    1    3    3    0    0 -0.49175351142E+02 -0.64175034940E+02 -0.46034569995E+02  0.93036723416E+02  0.00000000000E+00 0.  1.
         11    1    3    3    0    0 -0.15602182669E+02  0.34192350170E+02 -0.23391134741E+02  0.44268387126E+02  0.00000000000E+00 0. -1.
         21    1    1    2  502  501 -0.12115300870E+01  0.26352826030E+02 -0.69449421454E+02  0.74291058582E+02  0.00000000000E+00 0. -1.
<scales pt_clust_5="13000.00000" pt_clust_6="13000.00000" pt_clust_7="13000.00000" pt_clust_8="13000.00000" pt_clust_9="26.38066"></scales>
<clustering>
<clus scale="   26.381">  2  9  1 -1</clus>
<clus scale="   82.153">  5  6 -1 -1</clus>
<clus scale="   94.539">  7  8 -1 -1</clus>
<clus scale="  106.124">  1  5  2 -1</clus>
<clus scale="  106.124">  1  5  2 -1</clus>
</clustering>
</event>
<event>
 9    2  0.2869112E-005  0.9997400E+02  0.7546771E-02  0.1287216E+00
         -1   -1    0    0    0  501 -0.00000000000E+00  0.00000000000E+00  0.66362134555E+02  0.66362134555E+02  0.00000000000E+00 0.  1.
          2   -1    0    0  502    0  0.00000000000E+00 -0.00000000000E+00 -0.27413689295E+03  0.27413689295E+03  0.00000000000E+00 0. -1.
         23    2    1    2    0    0 -0.31769821689E+02  0.14891135811E+02 -0.46705568509E+02  0.10826303821E+03  0.91150467999E+02 0.  0.
         24    2    1    2    0    0  0.43965718855E+02  0.11346572226E+02 -0.17749277475E+03  0.19896601229E+03  0.77601931821E+02 0.  0.
        -13    1    4    4    0    0  0.28954898917E+02  0.50770743392E+01 -0.10549865522E+02  0.31232395325E+02  0.00000000000E+00 0.  1.
         14    1    4    4    0    0  0.15010819937E+02  0.62694978868E+01 -0.16694290923E+03  0.16773361697E+03  0.00000000000E+00 0. -1.
        -11    1    3    3    0    0  0.48641531555E-02 -0.31696675975E+02  0.45948118998E+01  0.32027981328E+02  0.00000000000E+00 0.  1.
         11    1    3    3    0    0 -0.31774685843E+02  0.46587811786E+02 -0.51300380409E+02  0.76235056880E+02  0.00000000000E+00 0. -1.
         21    1    1    2  502  501 -0.12195897165E+02 -0.26237708036E+02  0.16423584860E+02  0.33269977011E+02  0.00000000000E+00 0.  1.
<scales pt_clust_5="13000.00000" pt_clust_6="13000.00000" pt_clust_7="13000.00000" pt_clust_8="13000.00000" pt_clust_9="28.93367"></scales>
<clustering>
<clus scale="   28.934">  1  9  2 -1</clus>
<clus scale="   77.602">  5  6 -1 -1</clus>
<clus scale="   87.798">  2  5  1 -1</clus>
<clus scale="   91.150">  7  8 -1 -1</clus>
<clus scale="   87.798">  2  5  1 -1</clus>
</clustering>
</event>
<event>
 9    2  0.2869112E-005  0.9450582E+02  0.7546771E-02  0.1299195E+00
         -1   -1    0    0    0  501 -0.00000000000E+00  0.00000000000E+00  0.24524900406E+03  0.24524900406E+03  0.00000000000E+00 0.  1.
          2   -1    0    0  502    0  0.00000000000E+00 -0.00000000000E+00 -0.58053938104E+02  0.58053938104E+02  0.00000000000E+00 0. -1.
         23    2    1    2    0    0 -0.29987399983E+02 -0.13983209107E+02  0.14593128595E+03  0.17567781391E+03  0.92043358190E+02 0.  0.
         24    2    1    2    0    0  0.19200127203E+02 -0.32613059267E+01  0.11721895737E+01  0.82668769679E+02  0.80333495199E+02 0.  0.
        -11    1    4    4    0    0 -0.18451031133E+02 -0.29613207327E+02 -0.80217852837E+01  0.35801279826E+02  0.00000000000E+00 0.  1.
         12    1    4    4    0    0  0.37651158336E+02  0.26351901400E+02  0.91939748574E+01  0.46867489853E+02  0.00000000000E+00 0. -1.
        -11    1    3    3    0    0  0.28666482784E+02 -0.16597929862E+02  0.84215628750E+02  0.90496025530E+02  0.00000000000E+00 0.  1.
         11    1    3    3    0    0 -0.58653882767E+02  0.26147207546E+01  0.61715657200E+02  0.85181788382E+02  0.00000000000E+00 0. -1.
         21    1    1    2  502  501  0.10787272780E+02  0.17244515034E+02  0.40091590433E+02  0.44956358574E+02  0.00000000000E+00 0. -1.
<scales pt_clust_5="13000.00000" pt_clust_6="13000.00000" pt_clust_7="13000.00000" pt_clust_8="13000.00000" pt_clust_9="20.34056"></scales>
<clustering>
<clus scale="   20.341">  1  9  2 -1</clus>
<clus scale="   80.333">  5  6 -1 -1</clus>
<clus scale="   83.143">  2  5  1 -1</clus>
<clus scale="   92.043">  7  8 -1 -1</clus>
<clus scale="   83.143">  2  5  1 -1</clus>
</clustering>
</event>
<event>
 9    2  0.2869112E-005  0.9253272E+02  0.7546771E-02  0.1304430E+00
         -1   -1    0    0    0  501 -0.00000000000E+00  0.00000000000E+00  0.17729540756E+03  0.17729540756E+03  0.00000000000E+00 0.  1.
          2   -1    0    0  502    0  0.00000000000E+00 -0.00000000000E+00 -0.29970370230E+03  0.29970370230E+03  0.00000000000E+00 0. -1.
         23    2    1    2    0    0 -0.17706650166E+02 -0.10377388968E+02  0.36828281243E+02  0.10157958982E+03  0.92416855097E+02 0.  0.
         24    2    1    2    0    0 -0.17772601872E+01  0.41197518762E+01 -0.26022729314E+03  0.27237629738E+03  0.80314832220E+02 0.  0.
        -13    1    4    4    0    0  0.37297944759E+02 -0.76510354157E+01 -0.15241582448E+03  0.15709951807E+03  0.00000000000E+00 0.  1.
         14    1    4    4    0    0 -0.39075204946E+02  0.11770787292E+02 -0.10781146866E+03  0.11527677932E+03  0.00000000000E+00 0. -1.
        -13    1    3    3    0    0  0.28814358068E+02  0.10046397219E+00  0.44765215071E+02  0.53237221981E+02  0.00000000000E+00 0.  1.
         13    1    3    3    0    0 -0.46521008234E+02 -0.10477852940E+02 -0.79369338283E+01  0.48342367835E+02  0.00000000000E+00 0. -1.
         21    1    1    2  502  501  0.19483910353E+02  0.62576370920E+01  0.10099071715E+03  0.10304322266E+03  0.00000000000E+00 0.  1.
<scales pt_clust_5="13000.00000" pt_clust_6="13000.00000" pt_clust_7="13000.00000" pt_clust_8="13000.00000" pt_clust_9="20.46413"></scales>
<clustering>
<clus scale="   20.464">  1  9  2 -1</clus>
<clus scale="   80.315">  5  6 -1 -1</clus>
<clus scale="   80.448">  2  5  1 -1</clus>
<clus scale="   92.417">  7  8 -1 -1</clus>
<clus scale="   80.448">  2  5  1 -1</clus>
</clustering>
</event>
<event>
 9    2  0.2869112E-005  0.1451867E+03  0.7546771E-02  0.1208257E+00
         -1   -1    0    0    0  501 -0.00000000000E+00  0.00000000000E+00  0.64213836393E+02  0.64213836393E+02  0.00000000000E+00 0.  1.
          2   -1    0    0  502    0  0.00000000000E+00 -0.00000000000E+00 -0.84960597290E+03  0.84960597290E+03  0.00000000000E+00 0. -1.
         23    2    1    2    0    0  0.12619180405E+03  0.36590508890E+02 -0.10547340506E+03  0.19153328063E+03  0.91088537502E+02 0.  0.
         24    2    1    2    0    0 -0.11070767404E+03 -0.11979342801E+01 -0.66764340369E+03  0.68175165120E+03  0.82340605282E+02 0.  0.
        -11    1    4    4    0    0 -0.34316596517E+02  0.19148267144E+02 -0.83522012107E+02  0.92304991401E+02  0.00000000000E+00 0.  1.
         12    1    4    4    0    0 -0.76391077522E+02 -0.20346201424E+02 -0.58412139158E+03  0.58944665979E+03  0.00000000000E+00 0. -1.
        -13    1    3    3    0    0  0.10728871501E+03  0.69252628286E+01 -0.35509633883E+02  0.11322438665E+03  0.00000000000E+00 0.  1.
         13    1    3    3    0    0  0.18903089038E+02  0.29665246061E+02 -0.69963771177E+02  0.78308893980E+02  0.00000000000E+00 0. -1.
         21    1    1    2  502  501 -0.15484130008E+02 -0.35392574610E+02 -0.12275327754E+02  0.40534877465E+02  0.00000000000E+00 0.  1.
<scales pt_clust_5="13000.00000" pt_clust_6="13000.00000" pt_clust_7="13000.00000" pt_clust_8="13000.00000" pt_clust_9="38.63150"></scales>
<clustering>
<clus scale="   38.631">  1  9  2 -1</clus>
<clus scale="   82.341">  5  6 -1 -1</clus>
<clus scale="   91.089">  7  8 -1 -1</clus>
<clus scale="  139.864">  2  5  1 -1</clus>
<clus scale="  139.864">  2  5  1 -1</clus>
</clustering>
</event>
<event>
 9    2  0.2869112E-005  0.1015117E+03  0.7546771E-02  0.1282460E+00
         -1   -1    0    0    0  501 -0.00000000000E+00  0.00000000000E+00  0.13626262637E+03  0.13626262637E+03  0.00000000000E+00 0.  1.
          2   -1    0    0  502    0  0.00000000000E+00 -0.00000000000E+00 -0.27767420994E+03  0.27767420994E+03  0.00000000000E+00 0. -1.
         23    2    1    2    0    0 -0.45870999045E+02 -0.25710113483E+02  0.65326522184E+02  0.12414839115E+03  0.91542940940E+02 0.  0.
         24    2    1    2    0    0  0.14291231953E+02  0.41822573465E+02 -0.22979840995E+03  0.24749576629E+03  0.80582120569E+02 0.  0.
        -13    1    4    4    0    0 -0.25960573921E+02 -0.72657260530E+01 -0.90178516869E+02  0.94121767292E+02  0.00000000000E+00 0.  1.
         14    1    4    4    0    0  0.40251805874E+02  0.49088299518E+02 -0.13961989308E+03  0.15337399900E+03  0.00000000000E+00 0. -1.
        -11    1    3    3    0    0 -0.43871833404E+02  0.16977037001E+02  0.11628450569E+01  0.47056452907E+02  0.00000000000E+00 0. -1.
         11    1    3    3    0    0 -0.19991656414E+01 -0.42687150484E+02  0.64163677127E+02  0.77091938244E+02  0.00000000000E+00 0.  1.
         21    1    1    2  502  501  0.31579767093E+02 -0.16112459981E+02  0.23060304198E+02  0.42292678870E+02  0.00000000000E+00 0.  1.
<scales pt_clust_5="13000.00000" pt_clust_6="13000.00000" pt_clust_7="13000.00000" pt_clust_8="13000.00000" pt_clust_9="35.45269"></scales>
<clustering>
<clus scale="   35.453">  1  9  2 -1</clus>
<clus scale="   80.582">  5  6 -1 -1</clus>
<clus scale="   91.543">  7  8 -1 -1</clus>
<clus scale="   91.750">  2  5  1 -1</clus>
<clus scale="   91.750">  2  5  1 -1</clus>
</clustering>
</event>
<event>
 9    2  0.2869112E-005  0.9466453E+02  0.7546771E-02  0.1298892E+00
         -1   -1    0    0    0  501 -0.00000000000E+00  0.00000000000E+00  0.45032824380E+02  0.45032824380E+02  0.00000000000E+00 0.  1.
          2   -1    0    0  502    0  0.00000000000E+00 -0.00000000000E+00 -0.41856897033E+03  0.41856897033E+03  0.00000000000E+00 0. -1.
         24    2    1    2    0    0  0.24346105086E+02 -0.69442196213E+01 -0.20191296906E+02  0.86495478082E+02  0.80204889121E+02 0.  0.
         23    2    1    2    0    0 -0.87832955900E+01 -0.23495554826E+02 -0.28745802989E+03  0.30287792687E+03  0.92052877515E+02 0.  0.
        -13    1    3    3    0    0  0.24247345956E+02 -0.38063305367E+02  0.63755067008E+01  0.45578460780E+02  0.00000000000E+00 0.  1.
         14    1    3    3    0    0  0.98759130149E-01  0.31119085746E+02 -0.26566803607E+02  0.40917017302E+02  0.00000000000E+00 0. -1.
        -13    1    4    4    0    0  0.28166258402E+02  0.22056589002E+02 -0.13064268793E+03  0.13545236484E+03  0.00000000000E+00 0. -1.
         13    1    4    4    0    0 -0.36949553992E+02 -0.45552143828E+02 -0.15681534196E+03  0.16742556203E+03  0.00000000000E+00 0.  1.
         21    1    1    2  502  501 -0.15562809496E+02  0.30439774447E+02 -0.65886819158E+02  0.74228389762E+02  0.00000000000E+00 0. -1.
<scales pt_clust_5="13000.00000" pt_clust_6="13000.00000" pt_clust_7="13000.00000" pt_clust_8="13000.00000" pt_clust_9="34.18744"></scales>
<clustering>
<clus scale="   34.187">  2  9  1 -1</clus>
<clus scale="   80.205">  5  6 -1 -1</clus>
<clus scale="   83.189">  1  5  2 -1</clus>
<clus scale="   92.053">  7  8 -1 -1</clus>
<clus scale="   34.187">  2  5  1 -1</clus>
</clustering>
</event>
<event>
 9    2  0.2869112E-005  0.2879025E+03  0.7546771E-02  0.1091649E+00
          2   -1    0    0  502    0  0.00000000000E+00  0.00000000000E+00  0.65134177339E+03  0.65134177339E+03  0.00000000000E+00 0. -1.
         -1   -1    0    0    0  501 -0.00000000000E+00 -0.00000000000E+00 -0.43962109583E+03  0.43962109583E+03  0.00000000000E+00 0.  1.
         23    2    1    2    0    0  0.75808886541E+02 -0.28578945093E+03 -0.25174001025E+03  0.39753996597E+03  0.85102257545E+02 0.  0.
         24    2    1    2    0    0 -0.33803007248E+02  0.27095202066E+03  0.53685044980E+03  0.60757011996E+03  0.79846129654E+02 0.  0.
        -13    1    4    4    0    0 -0.51770542213E+02  0.10194506565E+03  0.22688875623E+03  0.25406985881E+03  0.00000000000E+00 0.  1.
         14    1    4    4    0    0  0.17967534965E+02  0.16900695501E+03  0.30996169357E+03  0.35350026116E+03  0.00000000000E+00 0. -1.
        -11    1    3    3    0    0  0.55676680329E+02 -0.15092335242E+03 -0.84352204325E+02  0.18163987836E+03  0.00000000000E+00 0. -1.
         11    1    3    3    0    0  0.20132206212E+02 -0.13486609851E+03 -0.16738780593E+03  0.21590008761E+03  0.00000000000E+00 0.  1.
         21    1    1    2  502  501 -0.42005879294E+02  0.14837430272E+02 -0.73389761993E+02  0.85852783284E+02  0.00000000000E+00 0. -1.
<scales pt_clust_5="13000.00000" pt_clust_6="13000.00000" pt_clust_7="13000.00000" pt_clust_8="13000.00000" pt_clust_9="44.54933"></scales>
<clustering>
<clus scale="   44.549">  2  9  1 -1</clus>
<clus scale="   79.846">  5  6 -1 -1</clus>
<clus scale="   85.102">  7  8 -1 -1</clus>
<clus scale="  286.393">  1  5  2 -1</clus>
<clus scale="  286.393">  1  5  2 -1</clus>
</clustering>
</event>
<event>
 9    2  0.2869112E-005  0.1388023E+03  0.7546771E-02  0.1215351E+00
          2   -1    0    0  502    0  0.00000000000E+00  0.00000000000E+00  0.12040570845E+04  0.12040570845E+04  0.00000000000E+00 0. -1.
         -1   -1    0    0    0  501 -0.00000000000E+00 -0.00000000000E+00 -0.69125358668E+02  0.69125358668E+02  0.00000000000E+00 0.  1.
         23    2    1    2    0    0 -0.11468774338E+03  0.85011644095E+02  0.69972264814E+02  0.18379229391E+03  0.92212967331E+02 0.  0.
         24    2    1    2    0    0  0.91064990230E+02 -0.39061824100E+02  0.98345249038E+03  0.99288726492E+03  0.93955635538E+02 0.  0.
        -11    1    4    4    0    0  0.48010048614E+02  0.18305636730E+02  0.21327653720E+03  0.21937853684E+03  0.00000000000E+00 0.  1.
         12    1    4    4    0    0  0.43054941616E+02 -0.57367460829E+02  0.77017595318E+03  0.77350872808E+03  0.00000000000E+00 0. -1.
        -13    1    3    3    0    0  0.10228686514E+02  0.32755221375E+02  0.18045908713E+02  0.38770934686E+02  0.00000000000E+00 0. -1.
         13    1    3    3    0    0 -0.12491642989E+03  0.52256422720E+02  0.51926356101E+02  0.14502135922E+03  0.00000000000E+00 0.  1.
         21    1    1    2  502  501  0.23622753150E+02 -0.45949819996E+02  0.81506970651E+02  0.96502884354E+02  0.00000000000E+00 0.  1.
<scales pt_clust_5="13000.00000" pt_clust_6="13000.00000" pt_clust_7="13000.00000" pt_clust_8="13000.00000" pt_clust_9="51.66643"></scales>
<clustering>
<clus scale="   51.666">  2  9  1 -1</clus>
<clus scale="   92.213">  7  8 -1 -1</clus>
<clus scale="   93.956">  5  6 -1 -1</clus>
<clus scale="  137.629">  2  7  1 -1</clus>
<clus scale="  138.802">  1  5  2 -1</clus>
</clustering>
</event>
<event>
 9    2  0.2869112E-005  0.1088789E+03  0.7546771E-02  0.1268387E+00
         -3   -1    0    0    0  501 -0.00000000000E+00  0.00000000000E+00  0.62747589250E+02  0.62747589250E+02  0.00000000000E+00 0.  1.
          4   -1    0    0  502    0  0.00000000000E+00 -0.00000000000E+00 -0.53000596533E+03  0.53000596533E+03  0.00000000000E+00 0. -1.
         23    2    1    2    0    0  0.39598961184E+02  0.98341594214E+02 -0.17475482359E+03  0.22496992834E+03  0.93984431750E+02 0.  0.
         24    2    1    2    0    0 -0.44366334314E+02 -0.13465312252E+02 -0.26119497764E+03  0.27719147456E+03  0.80390366149E+02 0.  0.
        -11    1    4    4    0    0  0.31835969503E+01  0.26181220423E+02 -0.43560395053E+02  0.50922486286E+02  0.00000000000E+00 0.  1.
         12    1    4    4    0    0 -0.47549931264E+02 -0.39646532675E+02 -0.21763458259E+03  0.22626898827E+03  0.00000000000E+00 0. -1.
        -11    1    3    3    0    0  0.26140032696E+02  0.21134038678E+02 -0.13093166037E+03  0.13517784059E+03  0.00000000000E+00 0. -1.
         11    1    3    3    0    0  0.13458928488E+02  0.77207555536E+02 -0.43823163221E+02  0.89792087750E+02  0.00000000000E+00 0.  1.
         21    1    1    2  502  501  0.47673731299E+01 -0.84876281962E+02 -0.31308574847E+02  0.90592151676E+02  0.00000000000E+00 0. -1.
<scales pt_clust_5="13000.00000" pt_clust_6="13000.00000" pt_clust_7="13000.00000" pt_clust_8="13000.00000" pt_clust_9="85.01006"></scales>
<clustering>
<clus scale="   80.390">  5  6 -1 -1</clus>
<clus scale="   85.010">  1  9  2 -1</clus>
<clus scale="   93.984">  7  8 -1 -1</clus>
<clus scale="   97.387">  2  5  1 -1</clus>
<clus scale="   97.387">  2  5  1 -1</clus>
</clustering>
</event>
<event>
 9    2  0.2869112E-005  0.1318637E+03  0.7546771E-02  0.1226283E+00
         -1   -1    0    0    0  501 -0.00000000000E+00  0.00000000000E+00  0.25741418919E+03  0.25741418919E+03  0.00000000000E+00 0.  1.
          2   -1    0    0  502    0  0.00000000000E+00 -0.00000000000E+00 -0.14864188420E+03  0.14864188420E+03  0.00000000000E+00 0. -1.
         23    2    1    2    0    0  0.43985338950E+02  0.72923018661E+02  0.17938497028E+03  0.22113524805E+03  0.97310604128E+02 0.  0.
         24    2    1    2    0    0 -0.60307993362E+02 -0.92175794643E+02 -0.70654391427E+02  0.15967998202E+03  0.91499849451E+02 0.  0.
        -13    1    4    4    0    0 -0.11168807814E+02 -0.27244734866E+02  0.21682476093E+02  0.36567029076E+02  0.00000000000E+00 0.  1.
         14    1    4    4    0    0 -0.49139185548E+02 -0.64931059777E+02 -0.92336867520E+02  0.12311295295E+03  0.00000000000E+00 0. -1.
        -11    1    3    3    0    0 -0.20402393154E+02  0.38523898953E+02  0.24735028984E+02  0.50121553206E+02  0.00000000000E+00 0. -1.
         11    1    3    3    0    0  0.64387732104E+02  0.34399119707E+02  0.15464994129E+03  0.17101369484E+03  0.00000000000E+00 0.  1.
         21    1    1    2  502  501  0.16322654413E+02  0.19252775983E+02  0.41726142029E-01  0.25240843314E+02  0.00000000000E+00 0.  1.
<scales pt_clust_5="13000.00000" pt_clust_6="13000.00000" pt_clust_7="13000.00000" pt_clust_8="13000.00000" pt_clust_9="25.24081"></scales>
<clustering>
<clus scale="   25.241">  2  9  1 -1</clus>
<clus scale="   91.500">  5  6 -1 -1</clus>
<clus scale="   97.311">  7  8 -1 -1</clus>
<clus scale="  127.636">  2  5  1 -1</clus>
<clus scale="   25.241">  2  5  1 -1</clus>
</clustering>
</event>
<event>
 9    2  0.2869112E-005  0.1098980E+03  0.7546771E-02  0.1267548E+00
         -1   -1    0    0    0  501 -0.00000000000E+00  0.00000000000E+00  0.98140839195E+02  0.98140839195E+02  0.00000000000E+00 0.  1.
          2   -1    0    0  502    0  0.00000000000E+00 -0.00000000000E+00 -0.42608665364E+03  0.42608665364E+03  0.00000000000E+00 0. -1.
         23    2    1    2    0    0 -0.11972582729E+02 -0.63160800696E+02 -0.45640991491E+00  0.11224210276E+03  0.92007890093E+02 0.  0.
         24    2    1    2    0    0  0.53361482496E+02  0.31539317681E+02 -0.34384982986E+03  0.35739031037E+03  0.75186116280E+02 0.  0.
        -13    1    4    4    0    0  0.24596446140E+02  0.39419305426E+02 -0.85367327159E+02  0.97192835895E+02  0.00000000000E+00 0.  1.
         14    1    4    4    0    0  0.28765036356E+02 -0.78799877449E+01 -0.25848250270E+03  0.26019747448E+03  0.00000000000E+00 0. -1.
        -13    1    3    3    0    0 -0.22940296311E+01 -0.86524087680E+02  0.36041226664E+01  0.86629498561E+02  0.00000000000E+00 0.  1.
         13    1    3    3    0    0 -0.96785530979E+01  0.23363286984E+02 -0.40605325813E+01  0.25612604195E+02  0.00000000000E+00 0. -1.
         21    1    1    2  502  501 -0.41388899767E+02  0.31621483015E+02  0.16360425322E+02  0.54595079711E+02  0.00000000000E+00 0.  1.
<scales pt_clust_5="13000.00000" pt_clust_6="13000.00000" pt_clust_7="13000.00000" pt_clust_8="13000.00000" pt_clust_9="52.08608"></scales>
<clustering>
<clus scale="   52.086">  1  9  2 -1</clus>
<clus scale="   75.186">  5  6 -1 -1</clus>
<clus scale="   92.008">  7  8 -1 -1</clus>
<clus scale="   96.255">  2  5  1 -1</clus>
<clus scale="   96.255">  2  5  1 -1</clus>
</clustering>
</event>
<event>
 9    2  0.2869112E-005  0.2097005E+03  0.7546771E-02  0.1142515E+00
         -1   -1    0    0    0  501 -0.00000000000E+00  0.00000000000E+00  0.18619608698E+03  0.18619608698E+03  0.00000000000E+00 0.  1.
          2   -1    0    0  502    0  0.00000000000E+00 -0.00000000000E+00 -0.10021946542E+04  0.10021946542E+04  0.00000000000E+00 0. -1.
         23    2    1    2    0    0  0.17987839000E+03 -0.47370268279E+02 -0.28797023921E+02  0.20884866779E+03  0.90489336088E+02 0.  0.
         24    2    1    2    0    0 -0.17618446968E+03  0.70495441759E+02 -0.86962839402E+03  0.89385307519E+03  0.81909716600E+02 0.  0.
        -11    1    4    4    0    0 -0.50310419360E+02  0.58935127145E+02 -0.26212927853E+03  0.27334272657E+03  0.00000000000E+00 0.  1.
         12    1    4    4    0    0 -0.12587405032E+03  0.11560314614E+02 -0.60749911550E+03  0.62051034862E+03  0.00000000000E+00 0. -1.
        -11    1    3    3    0    0  0.15164828615E+03 -0.92678995001E+01 -0.45458259976E+02  0.15858609665E+03  0.00000000000E+00 0. -1.
         11    1    3    3    0    0  0.28230103850E+02 -0.38102368779E+02  0.16661236056E+02  0.50262571133E+02  0.00000000000E+00 0.  1.
         21    1    1    2  502  501 -0.36939203167E+01 -0.23125173480E+02  0.82426850719E+02  0.85688998215E+02  0.00000000000E+00 0.  1.
<scales pt_clust_5="13000.00000" pt_clust_6="13000.00000" pt_clust_7="13000.00000" pt_clust_8="13000.00000" pt_clust_9="23.41834"></scales>
<clustering>
<clus scale="   23.418">  1  9  2 -1</clus>
<clus scale="   81.910">  5  6 -1 -1</clus>
<clus scale="   90.489">  7  8 -1 -1</clus>
<clus scale="  206.144">  2  5  1 -1</clus>
<clus scale="  206.144">  2  5  1 -1</clus>
</clustering>
</event>
<event>
 9    2  0.2869112E-005  0.8964690E+02  0.7546771E-02  0.1309639E+00
         -1   -1    0    0    0  501 -0.00000000000E+00  0.00000000000E+00  0.80645783480E+02  0.80645783480E+02  0.00000000000E+00 0.  1.
          2   -1    0    0  502    0  0.00000000000E+00 -0.00000000000E+00 -0.25115725876E+03  0.25115725876E+03  0.00000000000E+00 0. -1.
         24    2    1    2    0    0  0.15432747900E+02  0.26052793390E+02 -0.21039712535E+02  0.87408479948E+02  0.79250584302E+02 0.  0.
         23    2    1    2    0    0 -0.12164793730E+02  0.16580980595E+01 -0.18124961714E+03  0.20210502387E+03  0.88567970880E+02 0.  0.
        -11    1    3    3    0    0  0.40360028230E+02 -0.79648980461E+01 -0.18647740608E+02  0.45167573649E+02  0.00000000000E+00 0.  1.
         12    1    3    3    0    0 -0.24927280329E+02  0.34017691436E+02 -0.23919719269E+01  0.42240906299E+02  0.00000000000E+00 0. -1.
        -11    1    4    4    0    0 -0.38371149021E+01 -0.36766993178E+02 -0.35894115813E+02  0.51525942865E+02  0.00000000000E+00 0.  1.
         11    1    4    4    0    0 -0.83276788276E+01  0.38425091238E+02 -0.14535550133E+03  0.15057908101E+03  0.00000000000E+00 0. -1.
         21    1    1    2  502  501 -0.32679541705E+01 -0.27710891450E+02  0.31777854397E+02  0.42289538417E+02  0.00000000000E+00 0.  1.
<scales pt_clust_5="13000.00000" pt_clust_6="13000.00000" pt_clust_7="13000.00000" pt_clust_8="13000.00000" pt_clust_9="27.90292"></scales>
<clustering>
<clus scale="   27.903">  1  9  2 -1</clus>
<clus scale="   79.251">  5  6 -1 -1</clus>
<clus scale="   80.455">  1  5  2 -1</clus>
<clus scale="   88.568">  7  8 -1 -1</clus>
<clus scale="   89.647">  2  5  1 -1</clus>
</clustering>
</event>
<event>
 9    2  0.2869112E-005  0.9048192E+02  0.7546771E-02  0.1306933E+00
          2   -1    0    0  502    0  0.00000000000E+00  0.00000000000E+00  0.80521735918E+03  0.80521735918E+03  0.00000000000E+00 0. -1.
         -1   -1    0    0    0  501 -0.00000000000E+00 -0.00000000000E+00 -0.21754895040E+02  0.21754895040E+02  0.00000000000E+00 0.  1.
         24    2    1    2    0    0 -0.41347817939E+01 -0.51436437802E+01  0.30987216613E+03  0.32032114173E+03  0.80878433497E+02 0.  0.
         23    2    1    2    0    0 -0.12163723724E+02 -0.32713066658E+02  0.44798850369E+03  0.45813076955E+03  0.89286066449E+02 0.  0.
        -11    1    3    3    0    0 -0.14007617425E+02 -0.22713492476E+02  0.31772909092E+02  0.41492575704E+02  0.00000000000E+00 0.  1.
         12    1    3    3    0    0  0.98728356315E+01  0.17569848696E+02  0.27809925703E+03  0.27882856602E+03  0.00000000000E+00 0. -1.
        -13    1    4    4    0    0  0.38921133382E+02 -0.16214159521E+02  0.19261625756E+03  0.19717701760E+03  0.00000000000E+00 0.  1.
         13    1    4    4    0    0 -0.51084857106E+02 -0.16498907137E+02  0.25537224612E+03  0.26095375194E+03  0.00000000000E+00 0. -1.
         21    1    1    2  502  501  0.16298505518E+02  0.37856710438E+02  0.25601794329E+02  0.48520342952E+02  0.00000000000E+00 0.  1.
<scales pt_clust_5="13000.00000" pt_clust_6="13000.00000" pt_clust_7="13000.00000" pt_clust_8="13000.00000" pt_clust_9="41.21616"></scales>
<clustering>
<clus scale="   41.216">  2  9  1 -1</clus>
<clus scale="   80.878">  5  6 -1 -1</clus>
<clus scale="   82.197">  2  5  1 -1</clus>
<clus scale="   89.286">  7  8 -1 -1</clus>
<clus scale="   90.482">  1  5  2 -1</clus>
</clustering>
</event>
<event>
 9    2  0.2869112E-005  0.8743689E+02  0.7546771E-02  0.1309595E+00
         -1   -1    0    0    0  501 -0.00000000000E+00  0.00000000000E+00  0.14839264662E+03  0.14839264662E+03  0.00000000000E+00 0.  1.
          2   -1    0    0  502    0  0.00000000000E+00 -0.00000000000E+00 -0.70128419873E+02  0.70128419873E+02  0.00000000000E+00 0. -1.
         24    2    1    2    0    0  0.56364305544E+01 -0.19525159050E+02  0.59665670718E+02  0.10520682118E+03  0.84234682737E+02 0.  0.
         23    2    1    2    0    0 -0.27565240443E+02  0.17848621585E+02  0.15539643916E+02  0.91109731705E+02  0.83552898844E+02 0.  0.
        -11    1    3    3    0    0  0.20580283245E+02 -0.31881254838E+02 -0.44651675148E+01  0.38208640246E+02  0.00000000000E+00 0.  1.
         12    1    3    3    0    0 -0.14943852691E+02  0.12356095788E+02  0.64130838233E+02  0.66998180937E+02  0.00000000000E+00 0. -1.
        -11    1    4    4    0    0  0.16038929226E+01  0.45813870614E+02  0.20836145383E+02  0.50355021274E+02  0.00000000000E+00 0.  1.
         11    1    4    4    0    0 -0.29169133366E+02 -0.27965249028E+02 -0.52965014674E+01  0.40754710431E+02  0.00000000000E+00 0. -1.
         21    1    1    2  502  501  0.21928809889E+02  0.16765374648E+01  0.30589121092E+01  0.22204513602E+02  0.00000000000E+00 0.  1.
<scales pt_clust_5="13000.00000" pt_clust_6="13000.00000" pt_clust_7="13000.00000" pt_clust_8="13000.00000" pt_clust_9="21.99281"></scales>
<clustering>
<clus scale="   21.993">  2  9  1 -1</clus>
<clus scale="   83.553">  7  8 -1 -1</clus>
<clus scale="   84.235">  5  6 -1 -1</clus>
<clus scale="   86.780">  2  7  1 -1</clus>
<clus scale="   21.993">  2  5  1 -1</clus>
</clustering>
</event>
<event>
 9    2  0.2869112E-005  0.1456271E+03  0.7546771E-02  0.1232148E+00
         -1   -1    0    0    0  501 -0.00000000000E+00  0.00000000000E+00  0.27327463736E+03  0.27327463736E+03  0.00000000000E+00 0.  1.
          2   -1    0    0  502    0  0.00000000000E+00 -0.00000000000E+00 -0.26649513242E+03  0.26649513242E+03  0.00000000000E+00 0. -1.
         23    2    1    2    0    0  0.10043215679E+03 -0.39022786250E+02  0.21795084418E+03  0.26318204000E+03  0.10076120153E+03 0.  0.
         24    2    1    2    0    0 -0.17776400778E+02  0.12255414698E+02 -0.63489770887E+02  0.10524505614E+03  0.81113347984E+02 0.  0.
        -11    1    4    4    0    0  0.20427918228E+02 -0.18146775045E+02 -0.45767075169E+02  0.53303193687E+02  0.00000000000E+00 0.  1.
         12    1    4    4    0    0 -0.38204319006E+02  0.30402189743E+02 -0.17722695718E+02  0.51941862456E+02  0.00000000000E+00 0. -1.
        -11    1    3    3    0    0  0.99089801764E+02 -0.61569131094E+02  0.14110201085E+03  0.18308283421E+03  0.00000000000E+00 0.  1.
         11    1    3    3    0    0  0.13423550218E+01  0.22546344844E+02  0.76848833336E+02  0.80099205788E+02  0.00000000000E+00 0. -1.
         21    1    1    2  502  501 -0.82655756008E+02  0.26767371552E+02 -0.14768156835E+03  0.17134267365E+03  0.00000000000E+00 0. -1.
<scales pt_clust_5="13000.00000" pt_clust_6="13000.00000" pt_clust_7="13000.00000" pt_clust_8="13000.00000" pt_clust_9="105.14006"></scales>
<clustering>
<clus scale="   81.113">  5  6 -1 -1</clus>
<clus scale="   83.938">  2  5  1 -1</clus>
<clus scale="  100.761">  7  8 -1 -1</clus>
<clus scale="  105.140">  2  9  1 -1</clus>
<clus scale="   83.938">  2  5  1 -1</clus>
</clustering>
</event>
<event>
 9    2  0.2869112E-005  0.9754200E+02  0.7546771E-02  0.1305331E+00
         -1   -1    0    0    0  501 -0.00000000000E+00  0.00000000000E+00  0.27610576410E+03  0.27610576410E+03  0.00000000000E+00 0.  1.
          2   -1    0    0  502    0  0.00000000000E+00 -0.00000000000E+00 -0.58126959327E+02  0.58126959327E+02  0.00000000000E+00 0. -1.
         23    2    1    2    0    0  0.13857307325E+02  0.50054286588E+02  0.96075111907E+02  0.14415056509E+03  0.94082419797E+02 0.  0.
         24    2    1    2    0    0 -0.13764593683E+02 -0.13713420561E+02  0.27043758871E+01  0.65466170972E+02  0.62457857392E+02 0.  0.
        -13    1    4    4    0    0  0.20422378746E+02  0.95461688375E+01  0.76868228323E+01  0.23817853354E+02  0.00000000000E+00 0.  1.
         14    1    4    4    0    0 -0.34186972429E+02 -0.23259589398E+02 -0.49824469452E+01  0.41648317618E+02  0.00000000000E+00 0. -1.
        -11    1    3    3    0    0  0.69151731430E+01 -0.24858813565E+02  0.49067390668E+02  0.55438155259E+02  0.00000000000E+00 0.  1.
         11    1    3    3    0    0  0.69421341822E+01  0.74913100153E+02  0.47007721239E+02  0.88712409829E+02  0.00000000000E+00 0. -1.
         21    1    1    2  502  501 -0.92713642636E-01 -0.36340866027E+02  0.11919931698E+03  0.12461598737E+03  0.00000000000E+00 0.  1.
<scales pt_clust_5="13000.00000" pt_clust_6="13000.00000" pt_clust_7="13000.00000" pt_clust_8="13000.00000" pt_clust_9="36.34098"></scales>
<clustering>
<clus scale="   36.341">  1  9  2 -1</clus>
<clus scale="   62.458">  5  6 -1 -1</clus>
<clus scale="   67.557">  2  5  1 -1</clus>
<clus scale="   94.082">  7  8 -1 -1</clus>
<clus scale="   67.557">  2  5  1 -1</clus>
</clustering>
</event>
<event>
 9    2  0.2869112E-005  0.1010948E+03  0.7546771E-02  0.1283816E+00
          2   -1    0    0  502    0  0.00000000000E+00  0.00000000000E+00  0.10956350574E+04  0.10956350574E+04  0.00000000000E+00 0. -1.
         -1   -1    0    0    0  501 -0.00000000000E+00 -0.00000000000E+00 -0.24538847598E+02  0.24538847598E+02  0.00000000000E+00 0.  1.
         23    2    1    2    0    0  0.51676844466E+02 -0.31557565801E+02  0.54311026423E+03  0.55419791781E+03  0.92196511755E+02 0.  0.
         24    2    1    2    0    0 -0.81782178429E+01  0.33326901033E+02  0.51227666457E+03  0.51969378139E+03  0.80477821586E+02 0.  0.
        -11    1    4    4    0    0 -0.23969468564E+02  0.49784759185E+02  0.23193820731E+03  0.23842900343E+03  0.00000000000E+00 0.  1.
         12    1    4    4    0    0  0.15791250721E+02 -0.16457858151E+02  0.28033845727E+03  0.28126477795E+03  0.00000000000E+00 0. -1.
        -11    1    3    3    0    0 -0.71165887822E+01 -0.48117115819E+02  0.26930314682E+03  0.27366053344E+03  0.00000000000E+00 0.  1.
         11    1    3    3    0    0  0.58793433248E+02  0.16559550017E+02  0.27380711741E+03  0.28053738437E+03  0.00000000000E+00 0. -1.
         21    1    1    2  502  501 -0.43498626623E+02 -0.17693352319E+01  0.15709281015E+02  0.46282205816E+02  0.00000000000E+00 0.  1.
<scales pt_clust_5="13000.00000" pt_clust_6="13000.00000" pt_clust_7="13000.00000" pt_clust_8="13000.00000" pt_clust_9="43.53460"></scales>
<clustering>
<clus scale="   43.535">  2  9  1 -1</clus>
<clus scale="   80.478">  5  6 -1 -1</clus>
<clus scale="   90.535">  1  5  2 -1</clus>
<clus scale="   92.197">  7  8 -1 -1</clus>
<clus scale="   90.535">  1  5  2 -1</clus>
</clustering>
</event>
<event>
 9    2  0.2869112E-005  0.1058365E+03  0.7546771E-02  0.1272428E+00
         -1   -1    0    0    0  501 -0.00000000000E+00  0.00000000000E+00  0.44736672180E+02  0.44736672180E+02  0.00000000000E+00 0.  1.
          2   -1    0    0  502    0  0.00000000000E+00 -0.00000000000E+00 -0.46119266044E+03  0.46119266044E+03  0.00000000000E+00 0. -1.
         23    2    1    2    0    0 -0.23415988166E+02 -0.53414611400E+02 -0.48543987673E+02  0.11828170685E+03  0.90733754598E+02 0.  0.
         24    2    1    2    0    0 -0.23639946784E+01  0.43807068232E+02 -0.31003423873E+03  0.32356371423E+03  0.81532817206E+02 0.  0.
        -11    1    4    4    0    0 -0.33303518904E+02  0.46838353491E+02 -0.24250936103E+03  0.24922629459E+03  0.00000000000E+00 0.  1.
         12    1    4    4    0    0  0.30939524225E+02 -0.30312852584E+01 -0.67524877707E+02  0.74337419642E+02  0.00000000000E+00 0. -1.
        -13    1    3    3    0    0  0.23825646887E+02  0.15063603136E+01 -0.38280509047E+02  0.45114608985E+02  0.00000000000E+00 0. -1.
         13    1    3    3    0    0 -0.47241635053E+02 -0.54920971714E+02 -0.10263478626E+02  0.73167097865E+02  0.00000000000E+00 0.  1.
         21    1    1    2  502  501  0.25779982844E+02  0.96075431679E+01 -0.57877761858E+02  0.64083911545E+02  0.00000000000E+00 0.  1.
<scales pt_clust_5="13000.00000" pt_clust_6="13000.00000" pt_clust_7="13000.00000" pt_clust_8="13000.00000" pt_clust_9="27.51204"></scales>
<clustering>
<clus scale="   27.512">  2  9  1 -1</clus>
<clus scale="   81.533">  5  6 -1 -1</clus>
<clus scale="   90.734">  7  8 -1 -1</clus>
<clus scale="   98.063">  2  5  1 -1</clus>
<clus scale="   27.512">  2  5  1 -1</clus>
</clustering>
</event>
<event>
 9    2  0.2869112E-005  0.2677395E+03  0.7546771E-02  0.1126408E+00
          2   -1    0    0  502    0  0.00000000000E+00  0.00000000000E+00  0.24023590659E+03  0.24023590659E+03  0.00000000000E+00 0. -1.
         -1   -1    0    0    0  501 -0.00000000000E+00 -0.00000000000E+00 -0.83988423486E+03  0.83988423486E+03  0.00000000000E+00 0.  1.
         23    2    1    2    0    0  0.27163452259E+01  0.25692585207E+03 -0.32760818559E+03  0.42698813392E+03  0.94728407791E+02 0.  0.
         24    2    1    2    0    0 -0.11884222423E+03 -0.26389847243E+02  0.11606923636E+03  0.18701940376E+03  0.81757516208E+02 0.  0.
        -13    1    4    4    0    0 -0.45780348790E+02  0.27353377732E+02  0.26511797705E+02  0.59556049451E+02  0.00000000000E+00 0.  1.
         14    1    4    4    0    0 -0.73061875437E+02 -0.53743224974E+02  0.89557438653E+02  0.12746335431E+03  0.00000000000E+00 0. -1.
        -13    1    3    3    0    0 -0.39574631479E+02  0.19217933997E+03 -0.22583567807E+03  0.29916684920E+03  0.00000000000E+00 0. -1.
         13    1    3    3    0    0  0.42290976705E+02  0.64746512101E+02 -0.10177250752E+03  0.12782128472E+03  0.00000000000E+00 0.  1.
         21    1    1    2  502  501  0.11612587900E+03 -0.23053600483E+03 -0.38810937904E+03  0.46611260378E+03  0.00000000000E+00 0.  1.
<scales pt_clust_5="13000.00000" pt_clust_6="13000.00000" pt_clust_7="13000.00000" pt_clust_8="13000.00000" pt_clust_9="250.42162"></scales>
<clustering>
<clus scale="   81.758">  5  6 -1 -1</clus>
<clus scale="   94.728">  7  8 -1 -1</clus>
<clus scale="  146.643">  1  5  2 -1</clus>
<clus scale="  250.422">  2  9  1 -1</clus>
<clus scale="  146.643">  1  5  2 -1</clus>
</clustering>
</event>
<event>
 9    2  0.2869112E-005  0.1055604E+03  0.7546771E-02  0.1273076E+00
          2   -1    0    0  502    0  0.00000000000E+00  0.00000000000E+00  0.64202041135E+03  0.64202041135E+03  0.00000000000E+00 0. -1.
         -1   -1    0    0    0  501 -0.00000000000E+00 -0.00000000000E+00 -0.27621176867E+02  0.27621176867E+02  0.00000000000E+00 0.  1.
         23    2    1    2    0    0 -0.47561172743E+02 -0.37841095540E+02  0.12954388742E+03  0.16918698030E+03  0.90269606564E+02 0.  0.
         24    2    1    2    0    0  0.18729594817E+02  0.35821241979E+02  0.41734638178E+03  0.42701892118E+03  0.80828197801E+02 0.  0.
        -13    1    4    4    0    0  0.85389129674E+01  0.58723253433E+02  0.21200739307E+03  0.22015555465E+03  0.00000000000E+00 0.  1.
         14    1    4    4    0    0  0.10190681850E+02 -0.22902011454E+02  0.20533898871E+03  0.20686336653E+03  0.00000000000E+00 0. -1.
        -11    1    3    3    0    0 -0.69298650489E+02 -0.17815672746E+02  0.59133477139E+02  0.92824938856E+02  0.00000000000E+00 0.  1.
         11    1    3    3    0    0  0.21737477746E+02 -0.20025422794E+02  0.70410410285E+02  0.76362041443E+02  0.00000000000E+00 0. -1.
         21    1    1    2  502  501  0.28831577926E+02  0.20198535608E+01  0.67508965277E+02  0.73435686739E+02  0.00000000000E+00 0. -1.
<scales pt_clust_5="13000.00000" pt_clust_6="13000.00000" pt_clust_7="13000.00000" pt_clust_8="13000.00000" pt_clust_9="28.90224"></scales>
<clustering>
<clus scale="   28.902">  1  9  2 -1</clus>
<clus scale="   80.828">  5  6 -1 -1</clus>
<clus scale="   90.270">  7  8 -1 -1</clus>
<clus scale="   97.609">  1  5  2 -1</clus>
<clus scale="   28.902">  1  5  2 -1</clus>
</clustering>
</event>
<event>
 9    2  0.2869112E-005  0.1349369E+03  0.7546771E-02  0.1220662E+00
         -3   -1    0    0    0  501 -0.00000000000E+00  0.00000000000E+00  0.12740712166E+03  0.12740712166E+03  0.00000000000E+00 0.  1.
          4   -1    0    0  502    0  0.00000000000E+00 -0.00000000000E+00 -0.27189427983E+03  0.27189427983E+03  0.00000000000E+00 0. -1.
         24    2    1    2    0    0 -0.95282447449E+02  0.28793263084E+02 -0.23088201542E+02  0.13024007210E+03  0.80756513914E+02 0.  0.
         23    2    1    2    0    0  0.99136172908E+02 -0.53639836008E+02 -0.16732960294E+03  0.21669886520E+03  0.79082168475E+02 0.  0.
        -11    1    3    3    0    0 -0.94795216364E+02  0.49553986488E+02 -0.15269012623E+02  0.10805032794E+03  0.00000000000E+00 0.  1.
         12    1    3    3    0    0 -0.48723108429E+00 -0.20760723404E+02 -0.78191889190E+01  0.22189744156E+02  0.00000000000E+00 0. -1.
        -11    1    4    4    0    0  0.85791974548E+02 -0.35777638433E+01 -0.10594875056E+03  0.13637522149E+03  0.00000000000E+00 0. -1.
         11    1    4    4    0    0  0.13344198361E+02 -0.50062072165E+02 -0.61380852385E+02  0.80323643710E+02  0.00000000000E+00 0.  1.
         21    1    1    2  502  501 -0.38537254595E+01  0.24846572924E+02  0.45930646307E+02  0.52362464191E+02  0.00000000000E+00 0. -1.
<scales pt_clust_5="13000.00000" pt_clust_6="13000.00000" pt_clust_7="13000.00000" pt_clust_8="13000.00000" pt_clust_9="25.14365"></scales>
<clustering>
<clus scale="   25.144">  1  9  2 -1</clus>
<clus scale="   79.082">  7  8 -1 -1</clus>
<clus scale="   80.757">  5  6 -1 -1</clus>
<clus scale="  133.942">  2  7  1 -1</clus>
<clus scale="  133.942">  2  5  1 -1</clus>
</clustering>
</event>
<event>
 9    2  0.2869112E-005  0.8983660E+02  0.7546771E-02  0.1308675E+00
          2   -1    0    0  502    0  0.00000000000E+00  0.00000000000E+00  0.79004233287E+03  0.79004233287E+03  0.00000000000E+00 0. -1.
         -1   -1    0    0    0  501 -0.00000000000E+00 -0.00000000000E+00 -0.57117896922E+02  0.57117896922E+02  0.00000000000E+00 0.  1.
         23    2    1    2    0    0 -0.30653384969E+02  0.12878329081E+02  0.25053960199E+02  0.98772128899E+02  0.89569811630E+02 0.  0.
         24    2    1    2    0    0 -0.85694906471E+01  0.40963566741E+01  0.70023174607E+03  0.70497238808E+03  0.81063884915E+02 0.  0.
        -13    1    4    4    0    0  0.26215194367E+02 -0.52146652809E+01  0.95513145812E+02  0.99182610233E+02  0.00000000000E+00 0.  1.
         14    1    4    4    0    0 -0.34784685014E+02  0.93110219550E+01  0.60471860026E+03  0.60578977784E+03  0.00000000000E+00 0. -1.
        -11    1    3    3    0    0  0.11239679134E+02  0.32402042337E+02 -0.15169511972E+02  0.37501157691E+02  0.00000000000E+00 0.  1.
         11    1    3    3    0    0 -0.41893064104E+02 -0.19523713256E+02  0.40223472171E+02  0.61270971208E+02  0.00000000000E+00 0. -1.
         21    1    1    2  502  501  0.39222875617E+02 -0.16974685755E+02  0.76387296759E+01  0.43415712814E+02  0.00000000000E+00 0.  1.
<scales pt_clust_5="13000.00000" pt_clust_6="13000.00000" pt_clust_7="13000.00000" pt_clust_8="13000.00000" pt_clust_9="42.73844"></scales>
<clustering>
<clus scale="   42.738">  2  9  1 -1</clus>
<clus scale="   81.064">  5  6 -1 -1</clus>
<clus scale="   81.359">  1  5  2 -1</clus>
<clus scale="   89.570">  7  8 -1 -1</clus>
<clus scale="   81.359">  1  5  2 -1</clus>
</clustering>
</event>
<event>
 9    2  0.2869112E-005  0.1001187E+03  0.7546771E-02  0.1281112E+00
          2   -1    0    0  502    0  0.00000000000E+00  0.00000000000E+00  0.37400790406E+03  0.37400790406E+03  0.00000000000E+00 0. -1.
         -1   -1    0    0    0  501 -0.00000000000E+00 -0.00000000000E+00 -0.11745999606E+03  0.11745999606E+03  0.00000000000E+00 0.  1.
         23    2    1    2    0    0 -0.34015879397E+02  0.80214946787E+01 -0.44529571907E+01  0.98733391955E+02  0.92233559137E+02 0.  0.
         24    2    1    2    0    0  0.16817056129E+02 -0.30419777595E+02  0.31561618440E+03  0.33125023626E+03  0.94366132282E+02 0.  0.
        -11    1    4    4    0    0  0.23423644018E+02  0.22919736778E+02  0.46922653576E+02  0.57233878531E+02  0.00000000000E+00 0.  1.
         12    1    4    4    0    0 -0.66065878883E+01 -0.53339514373E+02  0.26869353083E+03  0.27401635773E+03  0.00000000000E+00 0. -1.
        -11    1    3    3    0    0  0.70636728428E+01  0.43554926876E+02  0.10781634475E+01  0.44137167621E+02  0.00000000000E+00 0.  1.
         11    1    3    3    0    0 -0.41079552240E+02 -0.35533432198E+02 -0.55311206382E+01  0.54596224333E+02  0.00000000000E+00 0. -1.
         21    1    1    2  502  501  0.17198823267E+02  0.22398282916E+02 -0.54615319209E+02  0.61484271905E+02  0.00000000000E+00 0.  1.
<scales pt_clust_5="13000.00000" pt_clust_6="13000.00000" pt_clust_7="13000.00000" pt_clust_8="13000.00000" pt_clust_9="28.23973"></scales>
<clustering>
<clus scale="   28.240">  2  9  1 -1</clus>
<clus scale="   92.234">  7  8 -1 -1</clus>
<clus scale="   94.366">  5  6 -1 -1</clus>
<clus scale="   98.111">  2  7  1 -1</clus>
<clus scale="  100.119">  1  5  2 -1</clus>
</clustering>
</event>
<event>
 9    2  0.2869112E-005  0.1460556E+03  0.7546771E-02  0.1226435E+00
          2   -1    0    0  502    0  0.00000000000E+00  0.00000000000E+00  0.13234807705E+04  0.13234807705E+04  0.00000000000E+00 0. -1.
         -1   -1    0    0    0  501 -0.00000000000E+00 -0.00000000000E+00 -0.54850527974E+02  0.54850527974E+02  0.00000000000E+00 0.  1.
         23    2    1    2    0    0  0.25160743478E+02  0.35232019058E+01  0.47646942864E+02  0.10505761144E+03  0.90118780468E+02 0.  0.
         24    2    1    2    0    0 -0.86760664162E+02 -0.89687299712E+02  0.11095328098E+04  0.11195205938E+04  0.81805131051E+02 0.  0.
        -11    1    4    4    0    0 -0.35971642171E+02  0.40190366974E+01  0.16101977499E+03  0.16503781274E+03  0.00000000000E+00 0.  1.
         12    1    4    4    0    0 -0.50789021991E+02 -0.93706336409E+02  0.94851303477E+03  0.95448278108E+03  0.00000000000E+00 0. -1.
        -11    1    3    3    0    0 -0.79921102490E+01 -0.35877198895E+02  0.29553791208E+01  0.36875215153E+02  0.00000000000E+00 0.  1.
         11    1    3    3    0    0  0.33152853727E+02  0.39400400801E+02  0.44691563743E+02  0.68182396287E+02  0.00000000000E+00 0. -1.
         21    1    1    2  502  501  0.61599920684E+02  0.86164097806E+02  0.11145048995E+03  0.15375309327E+03  0.00000000000E+00 0.  1.
<scales pt_clust_5="13000.00000" pt_clust_6="13000.00000" pt_clust_7="13000.00000" pt_clust_8="13000.00000" pt_clust_9="120.99646"></scales>
<clustering>
<clus scale="   81.805">  5  6 -1 -1</clus>
<clus scale="   90.119">  7  8 -1 -1</clus>
<clus scale="   93.632">  2  7  1 -1</clus>
<clus scale="  120.996">  2  9  1 -1</clus>
<clus scale="  146.056">  1  5  2 -1</clus>
</clustering>
</event>
<event>
 9    2  0.3366086E-005  0.1009246E+03  0.7546771E-02  0.1283996E+00
         -1   -1    0    0    0  501 -0.00000000000E+00  0.00000000000E+00  0.46969239893E+03  0.46969239893E+03  0.00000000000E+00 0.  1.
          2   -1    0    0  502    0  0.00000000000E+00 -0.00000000000E+00 -0.10708333269E+03  0.10708333269E+03  0.00000000000E+00 0. -1.
         24    2    1    2    0    0 -0.28298001882E+02 -0.11658059882E+02  0.28132283873E+03  0.29392983062E+03  0.79470236371E+02 0.  0.
         23    2    1    2    0    0  0.44500500313E+02 -0.83853248131E+01 -0.73822809485E+02  0.12561018118E+03  0.90980779373E+02 0.  0.
        -13    1    3    3    0    0 -0.41186463471E+02 -0.33899886495E+02  0.23474101766E+03  0.24072572038E+03  0.00000000000E+00 0.  1.
         14    1    3    3    0    0  0.12888461589E+02  0.22241826614E+02  0.46581821066E+02  0.53204110246E+02  0.00000000000E+00 0. -1.
        -13    1    4    4    0    0  0.12018049025E+02  0.39077338773E+02 -0.46559990494E+02  0.61962122484E+02  0.00000000000E+00 0.  1.
         13    1    4    4    0    0  0.32482451288E+02 -0.47462663586E+02 -0.27262818991E+02  0.63648058695E+02  0.00000000000E+00 0. -1.
         21    1    1    2  502  501 -0.16202498431E+02  0.20043384695E+02  0.15510903701E+03  0.15723571982E+03  0.00000000000E+00 0. -1.
<scales pt_clust_5="13000.00000" pt_clust_6="13000.00000" pt_clust_7="13000.00000" pt_clust_8="13000.00000" pt_clust_9="25.77321"></scales>
<clustering>
<clus scale="   25.773">  1  9  2 -1</clus>
<clus scale="   79.470">  5  6 -1 -1</clus>
<clus scale="   90.685">  1  5  2 -1</clus>
<clus scale="   90.981">  7  8 -1 -1</clus>
<clus scale="  100.925">  2  5  1 -1</clus>
</clustering>
</event>
<event>
 9    2  0.2869112E-005  0.1454594E+03  0.7546771E-02  0.1208195E+00
         -1   -1    0    0    0  501 -0.00000000000E+00  0.00000000000E+00  0.76304050845E+03  0.76304050845E+03  0.00000000000E+00 0.  1.
          2   -1    0    0  502    0  0.00000000000E+00 -0.00000000000E+00 -0.11423208909E+03  0.11423208909E+03  0.00000000000E+00 0. -1.
         23    2    1    2    0    0  0.96073211167E+02 -0.55745079874E+02  0.63473970467E+03  0.65070101021E+03  0.90441893919E+02 0.  0.
         24    2    1    2    0    0 -0.12171513645E+03  0.86581567431E+02 -0.24115851362E+02  0.17119597553E+03  0.80097100381E+02 0.  0.
        -11    1    4    4    0    0 -0.34100032744E+02  0.61386102524E+02  0.15308396858E+02  0.71870806525E+02  0.00000000000E+00 0.  1.
         12    1    4    4    0    0 -0.87615103707E+02  0.25195464907E+02 -0.39424248219E+02  0.99325169001E+02  0.00000000000E+00 0. -1.
        -13    1    3    3    0    0  0.49011070407E+02  0.20013167360E+02  0.27684383473E+03  0.28186010842E+03  0.00000000000E+00 0. -1.
         13    1    3    3    0    0  0.47062140760E+02 -0.75758247235E+02  0.35789586994E+03  0.36884090180E+03  0.00000000000E+00 0.  1.
         21    1    1    2  502  501  0.25641925283E+02 -0.30836487557E+02  0.38184566059E+02  0.55375611799E+02  0.00000000000E+00 0. -1.
<scales pt_clust_5="13000.00000" pt_clust_6="13000.00000" pt_clust_7="13000.00000" pt_clust_8="13000.00000" pt_clust_9="40.10483"></scales>
<clustering>
<clus scale="   40.105">  2  9  1 -1</clus>
<clus scale="   80.097">  5  6 -1 -1</clus>
<clus scale="   90.442">  7  8 -1 -1</clus>
<clus scale="  139.263">  2  5  1 -1</clus>
<clus scale="   40.105">  2  5  1 -1</clus>
</clustering>
</event>
<event>
 9    2  0.2869112E-005  0.9468476E+02  0.7546771E-02  0.1299790E+00
         -1   -1    0    0    0  501 -0.00000000000E+00  0.00000000000E+00  0.22698996388E+03  0.22698996388E+03  0.00000000000E+00 0.  1.
          2   -1    0    0  502    0  0.00000000000E+00 -0.00000000000E+00 -0.10985451678E+03  0.10985451678E+03  0.00000000000E+00 0. -1.
         23    2    1    2    0    0  0.23412248810E+02  0.12642998906E+01  0.10477717179E+03  0.14056582263E+03  0.90723552151E+02 0.  0.
         24    2    1    2    0    0 -0.19856325737E+02  0.20853188863E+02 -0.71761438439E+02  0.10922721268E+03  0.77147590926E+02 0.  0.
        -13    1    4    4    0    0  0.15318667448E+02 -0.17100401392E+02 -0.29758025103E+01  0.23150393101E+02  0.00000000000E+00 0.  1.
         14    1    4    4    0    0 -0.35174993185E+02  0.37953590255E+02 -0.68785635929E+02  0.86076819580E+02  0.00000000000E+00 0. -1.
        -11    1    3    3    0    0 -0.26779080085E+01  0.39805620779E+02  0.21891554890E+02  0.45507129248E+02  0.00000000000E+00 0. -1.
         11    1    3    3    0    0  0.26090156818E+02 -0.38541320888E+02  0.82885616904E+02  0.95058693386E+02  0.00000000000E+00 0.  1.
         21    1    1    2  502  501 -0.35559230727E+01 -0.22117488754E+02  0.84119713740E+02  0.87051445349E+02  0.00000000000E+00 0.  1.
<scales pt_clust_5="13000.00000" pt_clust_6="13000.00000" pt_clust_7="13000.00000" pt_clust_8="13000.00000" pt_clust_9="22.40152"></scales>
<clustering>
<clus scale="   22.402">  1  9  2 -1</clus>
<clus scale="   77.148">  5  6 -1 -1</clus>
<clus scale="   81.769">  2  5  1 -1</clus>
<clus scale="   90.724">  7  8 -1 -1</clus>
<clus scale="   81.769">  2  5  1 -1</clus>
</clustering>
</event>
<event>
 9    2  0.2869112E-005  0.1217389E+03  0.7546771E-02  0.1255386E+00
         -1   -1    0    0    0  501 -0.00000000000E+00  0.00000000000E+00  0.19418011502E+03  0.19418011502E+03  0.00000000000E+00 0.  1.
          2   -1    0    0  502    0  0.00000000000E+00 -0.00000000000E+00 -0.34695662916E+03  0.34695662916E+03  0.00000000000E+00 0. -1.
         24    2    1    2    0    0  0.55352955855E+02  0.22421604512E+02 -0.10851564400E+03  0.14620218596E+03  0.77670818953E+02 0.  0.
         23    2    1    2    0    0 -0.31140163480E+02 -0.11092862656E+02 -0.20260992017E+03  0.23434495284E+03  0.11302219157E+03 0.  0.
        -11    1    3    3    0    0  0.47435431663E+02  0.44756946431E+02 -0.10293605832E+03  0.12185703318E+03  0.00000000000E+00 0.  1.
         12    1    3    3    0    0  0.79175241917E+01 -0.22335341919E+02 -0.55795856762E+01  0.24345152788E+02  0.00000000000E+00 0. -1.
        -13    1    4    4    0    0 -0.45835864811E+02  0.30579118955E+02 -0.17195012880E+03  0.18056260913E+03  0.00000000000E+00 0.  1.
         13    1    4    4    0    0  0.14695701331E+02 -0.41671981611E+02 -0.30659791367E+02  0.53782343716E+02  0.00000000000E+00 0. -1.
         21    1    1    2  502  501 -0.24212792375E+02 -0.11328741856E+02  0.15834905003E+03  0.16058960537E+03  0.00000000000E+00 0.  1.
<scales pt_clust_5="13000.00000" pt_clust_6="13000.00000" pt_clust_7="13000.00000" pt_clust_8="13000.00000" pt_clust_9="26.73200"></scales>
<clustering>
<clus scale="   26.732">  1  9  2 -1</clus>
<clus scale="   77.671">  5  6 -1 -1</clus>
<clus scale="   89.884">  1  5  2 -1</clus>
<clus scale="  113.022">  7  8 -1 -1</clus>
<clus scale="  121.739">  2  5  1 -1</clus>
</clustering>
</event>
<event>
 9    2  0.2869112E-005  0.1096726E+03  0.7546771E-02  0.1267912E+00
          2   -1    0    0  502    0  0.00000000000E+00  0.00000000000E+00  0.21995566582E+03  0.21995566582E+03  0.00000000000E+00 0. -1.
         -1   -1    0    0    0  501 -0.00000000000E+00 -0.00000000000E+00 -0.71660883855E+02  0.71660883855E+02  0.00000000000E+00 0.  1.
         24    2    1    2    0    0 -0.13752808151E+02 -0.41132463467E+02  0.60254368984E+02  0.10830847201E+03  0.78861377389E+02 0.  0.
         23    2    1    2    0    0  0.26876835986E+02  0.62507920799E+02  0.10162953807E+03  0.15478064169E+03  0.94862424373E+02 0.  0.
        -11    1    3    3    0    0 -0.11750354186E+02 -0.16464685993E+02 -0.17477147365E+02  0.26732141485E+02  0.00000000000E+00 0.  1.
         12    1    3    3    0    0 -0.20024539656E+01 -0.24667777474E+02  0.77731516349E+02  0.81576330521E+02  0.00000000000E+00 0. -1.
        -13    1    4    4    0    0  0.12830528511E+02  0.30939142211E+02 -0.12335045197E+02  0.35693225164E+02  0.00000000000E+00 0.  1.
         13    1    4    4    0    0  0.14046307476E+02  0.31568778588E+02  0.11396458327E+03  0.11908741652E+03  0.00000000000E+00 0. -1.
         21    1    1    2  502  501 -0.13124027835E+02 -0.21375457332E+02 -0.13589125092E+02  0.28527435979E+02  0.00000000000E+00 0.  1.
<scales pt_clust_5="13000.00000" pt_clust_6="13000.00000" pt_clust_7="13000.00000" pt_clust_8="13000.00000" pt_clust_9="25.08287"></scales>
<clustering>
<clus scale="   25.083">  2  9  1 -1</clus>
<clus scale="   78.861">  5  6 -1 -1</clus>
<clus scale="   94.862">  7  8 -1 -1</clus>
<clus scale="   96.168">  2  5  1 -1</clus>
<clus scale="  109.673">  1  5  2 -1</clus>
</clustering>
</event>
<event>
 9    2  0.2869112E-005  0.1161987E+03  0.7546771E-02  0.1254067E+00
         -1   -1    0    0    0  501 -0.00000000000E+00  0.00000000000E+00  0.22216385496E+03  0.22216385496E+03  0.00000000000E+00 0.  1.
          2   -1    0    0  502    0  0.00000000000E+00 -0.00000000000E+00 -0.15978918093E+03  0.15978918093E+03  0.00000000000E+00 0. -1.
         23    2    1    2    0    0  0.75098427310E+02 -0.27631287669E+01  0.17509699915E+03  0.21212536858E+03  0.93224482934E+02 0.  0.
         24    2    1    2    0    0 -0.37535186278E+02 -0.37499972516E+01 -0.83051927055E+02  0.12151876121E+03  0.80288442814E+02 0.  0.
        -13    1    4    4    0    0  0.20799916772E+02 -0.40162306320E+01 -0.14823594981E+01  0.21235913823E+02  0.00000000000E+00 0.  1.
         14    1    4    4    0    0 -0.58335103050E+02  0.26623338034E+00 -0.81569567557E+02  0.10028284738E+03  0.00000000000E+00 0. -1.
        -13    1    3    3    0    0  0.96211505666E+02  0.55194457876E+01  0.15009578022E+03  0.17837001245E+03  0.00000000000E+00 0.  1.
         13    1    3    3    0    0 -0.21113078355E+02 -0.82825745545E+01  0.25001218931E+02  0.33755356122E+02  0.00000000000E+00 0. -1.
         21    1    1    2  502  501 -0.37563241032E+02  0.65131260186E+01 -0.29670398063E+02  0.48308906100E+02  0.00000000000E+00 0. -1.
<scales pt_clust_5="13000.00000" pt_clust_6="13000.00000" pt_clust_7="13000.00000" pt_clust_8="13000.00000" pt_clust_9="38.12372"></scales>
<clustering>
<clus scale="   38.124">  2  9  1 -1</clus>
<clus scale="   80.288">  5  6 -1 -1</clus>
<clus scale="   93.224">  7  8 -1 -1</clus>
<clus scale="  106.102">  2  5  1 -1</clus>
<clus scale="   38.124">  2  5  1 -1</clus>
</clustering>
</event>
<event>
 9    2  0.2869112E-005  0.8969765E+02  0.7546771E-02  0.1308882E+00
         -1   -1    0    0    0  501 -0.00000000000E+00  0.00000000000E+00  0.28919567224E+02  0.28919567224E+02  0.00000000000E+00 0.  1.
          2   -1    0    0  502    0  0.00000000000E+00 -0.00000000000E+00 -0.11091949180E+04  0.11091949180E+04  0.00000000000E+00 0. -1.
         23    2    1    2    0    0 -0.48207036150E+01  0.72377392603E+01 -0.23534831769E+03  0.25175054675E+03  0.88960008405E+02 0.  0.
         24    2    1    2    0    0 -0.13285446432E+02  0.91992698151E+01 -0.85570062634E+03  0.85964169584E+03  0.80617328573E+02 0.  0.
        -13    1    4    4    0    0  0.16842837615E+02 -0.14725117636E+02 -0.82352957953E+02  0.85337681900E+02  0.00000000000E+00 0.  1.
         14    1    4    4    0    0 -0.30128284048E+02  0.23924387451E+02 -0.77334766839E+03  0.77430401394E+03  0.00000000000E+00 0. -1.
        -13    1    3    3    0    0 -0.42726983259E+02  0.61257501564E+01 -0.71060891470E+02  0.83143070727E+02  0.00000000000E+00 0. -1.
         13    1    3    3    0    0  0.37906279644E+02  0.11119891039E+01 -0.16428742622E+03  0.16860747602E+03  0.00000000000E+00 0.  1.
         21    1    1    2  502  501  0.18106150047E+02 -0.16437009075E+02  0.10773593291E+02  0.26722242594E+02  0.00000000000E+00 0. -1.
<scales pt_clust_5="13000.00000" pt_clust_6="13000.00000" pt_clust_7="13000.00000" pt_clust_8="13000.00000" pt_clust_9="24.45420"></scales>
<clustering>
<clus scale="   24.454">  1  9  2 -1</clus>
<clus scale="   80.617">  5  6 -1 -1</clus>
<clus scale="   81.431">  2  5  1 -1</clus>
<clus scale="   88.960">  7  8 -1 -1</clus>
<clus scale="   81.431">  2  5  1 -1</clus>
</clustering>
</event>
<event>
 9    2  0.2869112E-005  0.1647180E+03  0.7546771E-02  0.1186492E+00
          2   -1    0    0  502    0  0.00000000000E+00  0.00000000000E+00  0.77578163446E+03  0.77578163446E+03  0.00000000000E+00 0. -1.
         -1   -1    0    0    0  501 -0.00000000000E+00 -0.00000000000E+00 -0.44609250723E+02  0.44609250723E+02  0.00000000000E+00 0.  1.
         23    2    1    2    0    0 -0.10546894758E+03  0.85019048392E+02  0.21915669081E+03  0.27329453729E+03  0.91149939626E+02 0.  0.
         24    2    1    2    0    0  0.10378184975E+03 -0.58499322125E+02  0.47490885955E+03  0.50145580382E+03  0.10828968220E+03 0.  0.
        -13    1    4    4    0    0  0.49288495655E+02 -0.76399303313E+02  0.18751458335E+03  0.20839368589E+03  0.00000000000E+00 0.  1.
         14    1    4    4    0    0  0.54493354095E+02  0.17899981188E+02  0.28739427621E+03  0.29306211793E+03  0.00000000000E+00 0. -1.
        -11    1    3    3    0    0 -0.53373350813E+02  0.48966522412E+01  0.13755015522E+03  0.14762363287E+03  0.00000000000E+00 0. -1.
         11    1    3    3    0    0 -0.52095596767E+02  0.80122396150E+02  0.81606535586E+02  0.12567090442E+03  0.00000000000E+00 0.  1.
         21    1    1    2  502  501  0.16870978306E+01 -0.26519726267E+02  0.37106833370E+02  0.45640544071E+02  0.00000000000E+00 0. -1.
<scales pt_clust_5="13000.00000" pt_clust_6="13000.00000" pt_clust_7="13000.00000" pt_clust_8="13000.00000" pt_clust_9="26.57334"></scales>
<clustering>
<clus scale="   26.573">  2  9  1 -1</clus>
<clus scale="   91.150">  7  8 -1 -1</clus>
<clus scale="  108.290">  5  6 -1 -1</clus>
<clus scale="  153.992">  2  7  1 -1</clus>
<clus scale="  164.718">  1  5  2 -1</clus>
</clustering>
</event>
<event>
 9    2  0.2869112E-005  0.1658905E+03  0.7546771E-02  0.1184231E+00
          2   -1    0    0  502    0  0.00000000000E+00  0.00000000000E+00  0.62118345015E+03  0.62118345015E+03  0.00000000000E+00 0. -1.
         -1   -1    0    0    0  501 -0.00000000000E+00 -0.00000000000E+00 -0.54179451077E+02  0.54179451077E+02  0.00000000000E+00 0.  1.
         23    2    1    2    0    0 -0.11275229481E+03 -0.82989240910E+02  0.25564179453E+03  0.30627007967E+03  0.94065618047E+02 0.  0.
         24    2    1    2    0    0  0.12518382628E+03  0.52391325252E+02  0.28889679237E+03  0.32914948467E+03  0.80387718557E+02 0.  0.
        -11    1    4    4    0    0  0.88301565340E+02  0.73639607111E+02  0.21775659337E+03  0.24624762361E+03  0.00000000000E+00 0.  1.
         12    1    4    4    0    0  0.36882260941E+02 -0.21248281859E+02  0.71140198997E+02  0.82901861061E+02  0.00000000000E+00 0. -1.
        -13    1    3    3    0    0 -0.44441636491E+02  0.11190244342E+02  0.38211520525E+02  0.59669095211E+02  0.00000000000E+00 0.  1.
         13    1    3    3    0    0 -0.68310658321E+02 -0.94179485252E+02  0.21743027401E+03  0.24660098446E+03  0.00000000000E+00 0. -1.
         21    1    1    2  502  501 -0.12431531469E+02  0.30597915658E+02  0.22465412174E+02  0.39943336884E+02  0.00000000000E+00 0.  1.
<scales pt_clust_5="13000.00000" pt_clust_6="13000.00000" pt_clust_7="13000.00000" pt_clust_8="13000.00000" pt_clust_9="33.02689"></scales>
<clustering>
<clus scale="   33.027">  2  9  1 -1</clus>
<clus scale="   80.388">  5  6 -1 -1</clus>
<clus scale="   94.066">  7  8 -1 -1</clus>
<clus scale="  158.535">  1  5  2 -1</clus>
<clus scale="  158.535">  1  5  2 -1</clus>
</clustering>
</event>
<event>
 9    2  0.2869112E-005  0.1063426E+03  0.7546771E-02  0.1268534E+00
          2   -1    0    0  502    0  0.00000000000E+00  0.00000000000E+00  0.45263937800E+03  0.45263937800E+03  0.00000000000E+00 0. -1.
         -1   -1    0    0    0  501 -0.00000000000E+00 -0.00000000000E+00 -0.73827065364E+02  0.73827065364E+02  0.00000000000E+00 0.  1.
         23    2    1    2    0    0 -0.34379087998E+02 -0.64285172994E+02  0.13550492273E+03  0.17619622440E+03  0.85842997672E+02 0.  0.
         24    2    1    2    0    0  0.10842339524E+02  0.58314026440E+02  0.28458853201E+03  0.30237694372E+03  0.83205177343E+02 0.  0.
        -11    1    4    4    0    0 -0.12319908398E+02  0.21537861310E+02  0.14344956431E+02  0.28660729017E+02  0.00000000000E+00 0.  1.
         12    1    4    4    0    0  0.23162247923E+02  0.36776165130E+02  0.27024357558E+03  0.27371621470E+03  0.00000000000E+00 0. -1.
        -13    1    3    3    0    0 -0.21368118219E+02 -0.40669273523E+02  0.14133163829E+03  0.14861096281E+03  0.00000000000E+00 0. -1.
         13    1    3    3    0    0 -0.13010969779E+02 -0.23615899471E+02 -0.58267155644E+01  0.27585261584E+02  0.00000000000E+00 0.  1.
         21    1    1    2  502  501  0.23536748474E+02  0.59711465535E+01 -0.41281142107E+02  0.47893275243E+02  0.00000000000E+00 0. -1.
<scales pt_clust_5="13000.00000" pt_clust_6="13000.00000" pt_clust_7="13000.00000" pt_clust_8="13000.00000" pt_clust_9="24.28236"></scales>
<clustering>
<clus scale="   24.282">  2  9  1 -1</clus>
<clus scale="   83.205">  5  6 -1 -1</clus>
<clus scale="   85.843">  7  8 -1 -1</clus>
<clus scale="  104.225">  1  5  2 -1</clus>
<clus scale="  104.225">  1  5  2 -1</clus>
</clustering>
</event>
<event>
 9    2  0.2869112E-005  0.2396013E+03  0.7546771E-02  0.1120683E+00
          2   -1    0    0  502    0  0.00000000000E+00  0.00000000000E+00  0.15371436802E+04  0.15371436802E+04  0.00000000000E+00 0. -1.
         -1   -1    0    0    0  501 -0.00000000000E+00 -0.00000000000E+00 -0.68644008660E+02  0.68644008660E+02  0.00000000000E+00 0.  1.
         23    2    1    2    0    0 -0.12328227705E+03 -0.17534186040E+03  0.45839684053E+03  0.51378714639E+03  0.88917267976E+02 0.  0.
         24    2    1    2    0    0  0.14545575944E+03  0.17400149358E+03  0.10327610430E+04  0.10602695721E+04  0.78372801360E+02 0.  0.
        -11    1    4    4    0    0  0.62055320834E+02  0.75416344530E+02  0.28075359269E+03  0.29725589594E+03  0.00000000000E+00 0.  1.
         12    1    4    4    0    0  0.83400438606E+02  0.98585149052E+02  0.75200745029E+03  0.76301367620E+03  0.00000000000E+00 0. -1.
        -13    1    3    3    0    0 -0.11068767693E+03 -0.11230740602E+03  0.24885485002E+03  0.29460728377E+03  0.00000000000E+00 0.  1.
         13    1    3    3    0    0 -0.12594600117E+02 -0.63034454377E+02  0.20954199051E+03  0.21917986262E+03  0.00000000000E+00 0. -1.
         21    1    1    2  502  501 -0.22173482387E+02  0.13403668151E+01 -0.22658212006E+02  0.31730970292E+02  0.00000000000E+00 0.  1.
<scales pt_clust_5="13000.00000" pt_clust_6="13000.00000" pt_clust_7="13000.00000" pt_clust_8="13000.00000" pt_clust_9="22.21396"></scales>
<clustering>
<clus scale="   22.214">  2  9  1 -1</clus>
<clus scale="   78.373">  5  6 -1 -1</clus>
<clus scale="   88.917">  7  8 -1 -1</clus>
<clus scale="  235.892">  1  5  2 -1</clus>
<clus scale="  235.892">  1  5  2 -1</clus>
</clustering>
</event>
<event>
 9    2  0.2869112E-005  0.1423378E+03  0.7546771E-02  0.1214481E+00
         -1   -1    0    0    0  501 -0.00000000000E+00  0.00000000000E+00  0.12873436149E+03  0.12873436149E+03  0.00000000000E+00 0.  1.
          2   -1    0    0  502    0  0.00000000000E+00 -0.00000000000E+00 -0.36347608378E+03  0.36347608378E+03  0.00000000000E+00 0. -1.
         23    2    1    2    0    0  0.55668634778E+02 -0.68324432893E+01  0.42997386206E+02  0.11380328106E+03  0.89200517828E+02 0.  0.
         24    2    1    2    0    0 -0.73271566037E+02  0.78709813118E+02 -0.26233296989E+03  0.30281901308E+03  0.10638049880E+03 0.  0.
        -13    1    4    4    0    0 -0.44983929468E+02  0.27478076450E+02 -0.24932230141E+02  0.58311359918E+02  0.00000000000E+00 0.  1.
         14    1    4    4    0    0 -0.28287636570E+02  0.51231736668E+02 -0.23740073975E+03  0.24450765317E+03  0.00000000000E+00 0. -1.
        -13    1    3    3    0    0  0.36961811394E+02  0.13051726545E+02  0.66886538590E+02  0.77526331732E+02  0.00000000000E+00 0.  1.
         13    1    3    3    0    0  0.18706823385E+02 -0.19884169834E+02 -0.23889152384E+02  0.36276949331E+02  0.00000000000E+00 0. -1.
         21    1    1    2  502  501  0.17602931259E+02 -0.71877369828E+02 -0.15406138611E+02  0.75588151117E+02  0.00000000000E+00 0.  1.
<scales pt_clust_5="13000.00000" pt_clust_6="13000.00000" pt_clust_7="13000.00000" pt_clust_8="13000.00000" pt_clust_9="74.00148"></scales>
<clustering>
<clus scale="   74.001">  1  9  2 -1</clus>
<clus scale="   89.201">  7  8 -1 -1</clus>
<clus scale="  106.380">  5  6 -1 -1</clus>
<clus scale="  130.000">  1  7  2 -1</clus>
<clus scale="  142.338">  2  5  1 -1</clus>
</clustering>
</event>
<event>
 9    2  0.2869112E-005  0.1349425E+03  0.7546771E-02  0.1222939E+00
         -1   -1    0    0    0  501 -0.00000000000E+00  0.00000000000E+00  0.89677969945E+02  0.89677969945E+02  0.00000000000E+00 0.  1.
          2   -1    0    0  502    0  0.00000000000E+00 -0.00000000000E+00 -0.49136878441E+03  0.49136878441E+03  0.00000000000E+00 0. -1.
         23    2    1    2    0    0 -0.10378858529E+03 -0.58592662902E+02 -0.30384761925E+02  0.15285307354E+03  0.90750524795E+02 0.  0.
         24    2    1    2    0    0  0.76261793240E+02  0.59734163920E+02 -0.37932276948E+03  0.39950056221E+03  0.79566980026E+02 0.  0.
        -11    1    4    4    0    0  0.88060792875E+02  0.29561332816E+02 -0.28703155652E+03  0.30168806751E+03  0.00000000000E+00 0.  1.
         12    1    4    4    0    0 -0.11798999636E+02  0.30172831104E+02 -0.92291212965E+02  0.97812494702E+02  0.00000000000E+00 0. -1.
        -11    1    3    3    0    0 -0.11268816180E+03 -0.26603842368E+02 -0.30156142611E+02  0.11964856529E+03  0.00000000000E+00 0. -1.
         11    1    3    3    0    0  0.88995765118E+01 -0.31988820534E+02 -0.22861931372E+00  0.33204508249E+02  0.00000000000E+00 0.  1.
         21    1    1    2  502  501  0.27526792045E+02 -0.11415010175E+01  0.80167169446E+01  0.28693118608E+02  0.00000000000E+00 0.  1.
<scales pt_clust_5="13000.00000" pt_clust_6="13000.00000" pt_clust_7="13000.00000" pt_clust_8="13000.00000" pt_clust_9="27.55045"></scales>
<clustering>
<clus scale="   27.550">  1  9  2 -1</clus>
<clus scale="   79.567">  5  6 -1 -1</clus>
<clus scale="   90.751">  7  8 -1 -1</clus>
<clus scale="  127.690">  2  5  1 -1</clus>
<clus scale="  127.690">  2  5  1 -1</clus>
</clustering>
</event>
<event>
 9    2  0.2869112E-005  0.2388315E+03  0.7546771E-02  0.1120574E+00
         -1   -1    0    0    0  501 -0.00000000000E+00  0.00000000000E+00  0.70357513448E+03  0.70357513448E+03  0.00000000000E+00 0.  1.
          2   -1    0    0  502    0  0.00000000000E+00 -0.00000000000E+00 -0.57356564427E+02  0.57356564427E+02  0.00000000000E+00 0. -1.
         24    2    1    2    0    0 -0.16581106970E+02  0.74234731847E+02  0.17942577851E+03  0.21094928005E+03  0.80748128394E+02 0.  0.
         23    2    1    2    0    0  0.44050786117E+01  0.88247511614E+02  0.20452464163E+03  0.24122147967E+03  0.92468617368E+02 0.  0.
        -13    1    3    3    0    0  0.20430488130E+02  0.54792051199E+02  0.14647795326E+03  0.15771925853E+03  0.00000000000E+00 0.  1.
         14    1    3    3    0    0 -0.37011595100E+02  0.19442680647E+02  0.32947825256E+02  0.53230021527E+02  0.00000000000E+00 0. -1.
        -13    1    4    4    0    0 -0.40359330280E+02  0.49437521905E+02  0.72966639513E+02  0.96938509348E+02  0.00000000000E+00 0.  1.
         13    1    4    4    0    0  0.44764408892E+02  0.38809989710E+02  0.13155800212E+03  0.14428297033E+03  0.00000000000E+00 0. -1.
         21    1    1    2  502  501  0.12176028359E+02 -0.16248224346E+03  0.26226814990E+03  0.30876093918E+03  0.00000000000E+00 0. -1.
<scales pt_clust_5="13000.00000" pt_clust_6="13000.00000" pt_clust_7="13000.00000" pt_clust_8="13000.00000" pt_clust_9="162.93783"></scales>
<clustering>
<clus scale="   80.748">  5  6 -1 -1</clus>
<clus scale="   92.469">  7  8 -1 -1</clus>
<clus scale="   94.708">  5  7 -1 -1</clus>
<clus scale="  162.938">  1  9  2 -1</clus>
<clus scale="  238.831">  2  5  1 -1</clus>
</clustering>
</event>
<event>
 9    2  0.2869112E-005  0.1965702E+03  0.7546771E-02  0.1153304E+00
         -1   -1    0    0    0  501 -0.00000000000E+00  0.00000000000E+00  0.19272969932E+03  0.19272969932E+03  0.00000000000E+00 0.  1.
          2   -1    0    0  502    0  0.00000000000E+00 -0.00000000000E+00 -0.39580733820E+03  0.39580733820E+03  0.00000000000E+00 0. -1.
         23    2    1    2    0    0  0.19301189724E+02 -0.18803625807E+03  0.47937959138E+02  0.21475628017E+03  0.89955776218E+02 0.  0.
         24    2    1    2    0    0 -0.28959911600E+02  0.16919938642E+03 -0.27941643086E+03  0.33835864634E+03  0.83342203436E+02 0.  0.
        -11    1    4    4    0    0  0.22621759357E+02  0.44503344047E+02 -0.41859884231E+02  0.65150146091E+02  0.00000000000E+00 0.  1.
         12    1    4    4    0    0 -0.51581670957E+02  0.12469604237E+03 -0.23755654663E+03  0.27320850025E+03  0.00000000000E+00 0. -1.
        -13    1    3    3    0    0 -0.22707058387E+01 -0.17912162289E+03  0.59433074986E+02  0.18873791960E+03  0.00000000000E+00 0.  1.
         13    1    3    3    0    0  0.21571895563E+02 -0.89146351712E+01 -0.11495115848E+02  0.26018360570E+02  0.00000000000E+00 0. -1.
         21    1    1    2  502  501  0.96587218759E+01  0.18836871649E+02  0.28400832851E+02  0.35422111010E+02  0.00000000000E+00 0.  1.
<scales pt_clust_5="13000.00000" pt_clust_6="13000.00000" pt_clust_7="13000.00000" pt_clust_8="13000.00000" pt_clust_9="21.16881"></scales>
<clustering>
<clus scale="   21.169">  1  9  2 -1</clus>
<clus scale="   83.342">  5  6 -1 -1</clus>
<clus scale="   89.956">  7  8 -1 -1</clus>
<clus scale="  193.633">  2  5  1 -1</clus>
<clus scale="  193.633">  2  5  1 -1</clus>
</clustering>
</event>
<event>
 9    2  0.3095768E-005  0.1443827E+03  0.7546771E-02  0.1210039E+00
         -1   -1    0    0    0  501 -0.00000000000E+00  0.00000000000E+00  0.67257109630E+03  0.67257109630E+03  0.00000000000E+00 0.  1.
          2   -1    0    0  502    0  0.00000000000E+00 -0.00000000000E+00 -0.21834044932E+03  0.21834044932E+03  0.00000000000E+00 0. -1.
         23    2    1    2    0    0  0.38148398738E+02  0.10466372293E+03  0.63067573946E+03  0.64712542776E+03  0.92788122588E+02 0.  0.
         24    2    1    2    0    0 -0.25468877725E+02 -0.87976337930E+02 -0.18460607350E+03  0.22129521565E+03  0.80645336681E+02 0.  0.
        -11    1    4    4    0    0 -0.40890538265E+02 -0.24544662479E+02 -0.38581360823E+02  0.61343279818E+02  0.00000000000E+00 0.  1.
         12    1    4    4    0    0  0.15421660540E+02 -0.63431675450E+02 -0.14602471268E+03  0.15995193583E+03  0.00000000000E+00 0. -1.
        -11    1    3    3    0    0  0.60742137187E+02  0.98937856339E+02  0.57768276809E+03  0.58923313484E+03  0.00000000000E+00 0.  1.
         11    1    3    3    0    0 -0.22593738450E+02  0.57258665868E+01  0.52992971371E+02  0.57892292924E+02  0.00000000000E+00 0. -1.
         21    1    1    2  502  501 -0.12679521013E+02 -0.16687384996E+02  0.81609810208E+01  0.22490902213E+02  0.00000000000E+00 0. -1.
<scales pt_clust_5="13000.00000" pt_clust_6="13000.00000" pt_clust_7="13000.00000" pt_clust_8="13000.00000" pt_clust_9="20.95803"></scales>
<clustering>
<clus scale="   20.958">  2  9  1 -1</clus>
<clus scale="   80.645">  5  6 -1 -1</clus>
<clus scale="   92.788">  7  8 -1 -1</clus>
<clus scale="  136.896">  2  5  1 -1</clus>
<clus scale="   20.958">  2  5  1 -1</clus>
</clustering>
</event>
<event>
 9    2  0.2869112E-005  0.1216156E+03  0.7546771E-02  0.1242394E+00
         -1   -1    0    0    0  501 -0.00000000000E+00  0.00000000000E+00  0.50829250708E+03  0.50829250708E+03  0.00000000000E+00 0.  1.
          2   -1    0    0  502    0  0.00000000000E+00 -0.00000000000E+00 -0.87274908854E+02  0.87274908854E+02  0.00000000000E+00 0. -1.
         24    2    1    2    0    0  0.97905436533E+02  0.35193945645E+02  0.34686507882E+03  0.37148111145E+03  0.82817540089E+02 0.  0.
         23    2    1    2    0    0 -0.67774382391E+02 -0.42247353601E+02 -0.23111885261E+02  0.12201772262E+03  0.89308228060E+02 0.  0.
        -11    1    3    3    0    0  0.15353230896E+02  0.45620610016E+02  0.15625071800E+03  0.16349693769E+03  0.00000000000E+00 0.  1.
         12    1    3    3    0    0  0.82552205637E+02 -0.10426664371E+02  0.19061436082E+03  0.20798417377E+03  0.00000000000E+00 0. -1.
        -11    1    4    4    0    0 -0.72400265202E+02 -0.63058538832E+02 -0.28263581842E+02  0.10008500277E+03  0.00000000000E+00 0. -1.
         11    1    4    4    0    0  0.46258828107E+01  0.20811185231E+02  0.51516965809E+01  0.21932719854E+02  0.00000000000E+00 0.  1.
         21    1    1    2  502  501 -0.30131054142E+02  0.70534079558E+01  0.97264404659E+02  0.10206858185E+03  0.00000000000E+00 0. -1.
<scales pt_clust_5="13000.00000" pt_clust_6="13000.00000" pt_clust_7="13000.00000" pt_clust_8="13000.00000" pt_clust_9="30.94561"></scales>
<clustering>
<clus scale="   30.946">  1  9  2 -1</clus>
<clus scale="   82.818">  5  6 -1 -1</clus>
<clus scale="   89.308">  7  8 -1 -1</clus>
<clus scale="  116.932">  1  5  2 -1</clus>
<clus scale="  121.616">  2  5  1 -1</clus>
</clustering>
</event>
<event>
 9    2  0.2869112E-005  0.1131832E+03  0.7546771E-02  0.1264194E+00
          2   -1    0    0  502    0  0.00000000000E+00  0.00000000000E+00  0.40294584881E+03  0.40294584881E+03  0.00000000000E+00 0. -1.
         -1   -1    0    0    0  501 -0.00000000000E+00 -0.00000000000E+00 -0.37642144854E+02  0.37642144854E+02  0.00000000000E+00 0.  1.
         23    2    1    2    0    0  0.22607201926E+01 -0.61339724804E+02  0.14898493252E+03  0.19102689920E+03  0.10260162478E+03 0.  0.
         24    2    1    2    0    0  0.21986252690E+01  0.41652020913E+02  0.20915112605E+03  0.22813992300E+03  0.81017937144E+02 0.  0.
        -13    1    4    4    0    0  0.26802086843E+02 -0.12834698265E+02  0.50448551226E+02  0.58550300251E+02  0.00000000000E+00 0.  1.
         14    1    4    4    0    0 -0.24603461574E+02  0.54486719178E+02  0.15870257482E+03  0.16958962275E+03  0.00000000000E+00 0. -1.
        -11    1    3    3    0    0  0.14760528832E+02  0.22805852198E+02  0.11824478161E+02  0.29627662575E+02  0.00000000000E+00 0.  1.
         11    1    3    3    0    0 -0.12499808639E+02 -0.84145577002E+02  0.13716045436E+03  0.16139923663E+03  0.00000000000E+00 0. -1.
         21    1    1    2  502  501 -0.44593454616E+01  0.19687703891E+02  0.71676453930E+01  0.21421171465E+02  0.00000000000E+00 0. -1.
<scales pt_clust_5="13000.00000" pt_clust_6="13000.00000" pt_clust_7="13000.00000" pt_clust_8="13000.00000" pt_clust_9="20.18642"></scales>
<clustering>
<clus scale="   20.186">  2  9  1 -1</clus>
<clus scale="   81.018">  5  6 -1 -1</clus>
<clus scale="   94.060">  1  5  2 -1</clus>
<clus scale="  102.602">  7  8 -1 -1</clus>
<clus scale="   94.060">  1  5  2 -1</clus>
</clustering>
</event>
<event>
 9    2  0.2869112E-005  0.1054396E+03  0.7546771E-02  0.1272394E+00
          2   -1    0    0  502    0  0.00000000000E+00  0.00000000000E+00  0.22609856533E+03  0.22609856533E+03  0.00000000000E+00 0. -1.
         -1   -1    0    0    0  501 -0.00000000000E+00 -0.00000000000E+00 -0.48666256080E+03  0.48666256080E+03  0.00000000000E+00 0.  1.
         23    2    1    2    0    0  0.11909790880E+03 -0.98392146222E+00 -0.29454260410E+03  0.33067186479E+03  0.91669278117E+02 0.  0.
         24    2    1    2    0    0 -0.49528336658E+02  0.93326486383E+00  0.18861873596E+03  0.21252070025E+03  0.84463562343E+02 0.  0.
        -11    1    4    4    0    0 -0.32404478238E+02 -0.21580937658E+02  0.24540245017E+02  0.46021850306E+02  0.00000000000E+00 0.  1.
         12    1    4    4    0    0 -0.17123858420E+02  0.22514202522E+02  0.16407849094E+03  0.16649884994E+03  0.00000000000E+00 0. -1.
        -13    1    3    3    0    0  0.67860761120E+02 -0.69619781496E+01 -0.61040266259E+02  0.91539423991E+02  0.00000000000E+00 0. -1.
         13    1    3    3    0    0  0.51237147676E+02  0.59780566874E+01 -0.23350233785E+03  0.23913244080E+03  0.00000000000E+00 0.  1.
         21    1    1    2  502  501 -0.69569572138E+02  0.50656598392E-01 -0.15464012732E+03  0.16956856109E+03  0.00000000000E+00 0.  1.
<scales pt_clust_5="13000.00000" pt_clust_6="13000.00000" pt_clust_7="13000.00000" pt_clust_8="13000.00000" pt_clust_9="69.56959"></scales>
<clustering>
<clus scale="   69.570">  2  9  1 -1</clus>
<clus scale="   84.464">  5  6 -1 -1</clus>
<clus scale="   91.669">  7  8 -1 -1</clus>
<clus scale="   99.239">  1  5  2 -1</clus>
<clus scale="   99.239">  1  5  2 -1</clus>
</clustering>
</event>
<event>
 9    2  0.2869112E-005  0.1133845E+03  0.7546771E-02  0.1258981E+00
         -1   -1    0    0    0  501 -0.00000000000E+00  0.00000000000E+00  0.13386140618E+03  0.13386140618E+03  0.00000000000E+00 0.  1.
          2   -1    0    0  502    0  0.00000000000E+00 -0.00000000000E+00 -0.47093966876E+03  0.47093966876E+03  0.00000000000E+00 0. -1.
         23    2    1    2    0    0 -0.63405722756E+02 -0.70183974500E+02 -0.13074584103E+03  0.18647455626E+03  0.93446290627E+02 0.  0.
         24    2    1    2    0    0  0.49445563807E+02  0.27368034798E+02 -0.29917291862E+03  0.31514004366E+03  0.81332273863E+02 0.  0.
        -11    1    4    4    0    0  0.49433282625E+02  0.35191699810E+02 -0.30104158084E+03  0.30709630177E+03  0.00000000000E+00 0.  1.
         12    1    4    4    0    0  0.12281182460E-01 -0.78236650114E+01  0.18686622203E+01  0.80437418862E+01  0.00000000000E+00 0. -1.
        -11    1    3    3    0    0 -0.12816546493E+02 -0.51850118332E+02 -0.10078293371E+02  0.54353202595E+02  0.00000000000E+00 0.  1.
         11    1    3    3    0    0 -0.50589176263E+02 -0.18333856168E+02 -0.12066754766E+03  0.13212135367E+03  0.00000000000E+00 0. -1.
         21    1    1    2  502  501  0.13960158948E+02  0.42815939702E+02  0.92840497072E+02  0.10318647502E+03  0.00000000000E+00 0.  1.
<scales pt_clust_5="13000.00000" pt_clust_6="13000.00000" pt_clust_7="13000.00000" pt_clust_8="13000.00000" pt_clust_9="45.03433"></scales>
<clustering>
<clus scale="   45.034">  1  9  2 -1</clus>
<clus scale="   81.332">  5  6 -1 -1</clus>
<clus scale="   93.446">  7  8 -1 -1</clus>
<clus scale="  103.628">  2  5  1 -1</clus>
<clus scale="  103.628">  2  5  1 -1</clus>
</clustering>
</event>
<event>
 9    2  0.2869112E-005  0.9974573E+02  0.7546771E-02  0.1286395E+00
         -1   -1    0    0    0  501 -0.00000000000E+00  0.00000000000E+00  0.61049567430E+02  0.61049567430E+02  0.00000000000E+00 0.  1.
          2   -1    0    0  502    0  0.00000000000E+00 -0.00000000000E+00 -0.42623156205E+03  0.42623156205E+03  0.00000000000E+00 0. -1.
         23    2    1    2    0    0 -0.22058653132E+02 -0.28761937531E+02 -0.20724390884E+00  0.98215585527E+02  0.91282117973E+02 0.  0.
         24    2    1    2    0    0  0.34096056278E+02  0.56085892005E+02 -0.30348350884E+03  0.32070861022E+03  0.80272063605E+02 0.  0.
        -11    1    4    4    0    0 -0.23723463820E+02  0.80670241903E+01 -0.44842921123E+02  0.51368932145E+02  0.00000000000E+00 0.  1.
         12    1    4    4    0    0  0.57819520098E+02  0.48018867815E+02 -0.25864058772E+03  0.26933967808E+03  0.00000000000E+00 0. -1.
        -13    1    3    3    0    0 -0.35054888126E+02  0.21128999478E+02  0.16337128160E+02  0.44070188983E+02  0.00000000000E+00 0. -1.
         13    1    3    3    0    0  0.12996234994E+02 -0.49890937010E+02 -0.16544372069E+02  0.54145396544E+02  0.00000000000E+00 0.  1.
         21    1    1    2  502  501 -0.12037403146E+02 -0.27323954474E+02 -0.61491241867E+02  0.68356933729E+02  0.00000000000E+00 0. -1.
<scales pt_clust_5="13000.00000" pt_clust_6="13000.00000" pt_clust_7="13000.00000" pt_clust_8="13000.00000" pt_clust_9="29.85796"></scales>
<clustering>
<clus scale="   29.858">  2  9  1 -1</clus>
<clus scale="   80.272">  5  6 -1 -1</clus>
<clus scale="   89.780">  2  5  1 -1</clus>
<clus scale="   91.282">  7  8 -1 -1</clus>
<clus scale="   29.858">  2  5  1 -1</clus>
</clustering>
</event>
<event>
 9    2  0.2869112E-005  0.1592894E+03  0.7546771E-02  0.1191461E+00
         -1   -1    0    0    0  501 -0.00000000000E+00  0.00000000000E+00  0.12353204734E+04  0.12353204734E+04  0.00000000000E+00 0.  1.
          2   -1    0    0  502    0  0.00000000000E+00 -0.00000000000E+00 -0.63915175498E+02  0.63915175498E+02  0.00000000000E+00 0. -1.
         24    2    1    2    0    0 -0.23805899020E+02  0.12218854684E+03  0.85562641029E+03  0.86846977406E+03  0.81525656550E+02 0.  0.
         23    2    1    2    0    0 -0.58130111379E+02 -0.16655921455E+03  0.20919182454E+03  0.28919233221E+03  0.93540920197E+02 0.  0.
        -13    1    3    3    0    0  0.25393953795E+01  0.92252939419E+02  0.37489263587E+03  0.38608488936E+03  0.00000000000E+00 0.  1.
         14    1    3    3    0    0 -0.26345294399E+02  0.29935607419E+02  0.48073377442E+03  0.48238488471E+03  0.00000000000E+00 0. -1.
        -13    1    4    4    0    0 -0.31174768953E+02 -0.81006161539E+02  0.17086664175E+03  0.19164882908E+03  0.00000000000E+00 0.  1.
         13    1    4    4    0    0 -0.26955342426E+02 -0.85553053016E+02  0.38325182789E+02  0.97543503123E+02  0.00000000000E+00 0. -1.
         21    1    1    2  502  501  0.81936010398E+02  0.44370667716E+02  0.10658706303E+03  0.14157354258E+03  0.00000000000E+00 0.  1.
<scales pt_clust_5="13000.00000" pt_clust_6="13000.00000" pt_clust_7="13000.00000" pt_clust_8="13000.00000" pt_clust_9="93.17868"></scales>
<clustering>
<clus scale="   81.526">  5  6 -1 -1</clus>
<clus scale="   93.179">  2  9  1 -1</clus>
<clus scale="   93.541">  7  8 -1 -1</clus>
<clus scale="  152.544">  1  5  2 -1</clus>
<clus scale="   93.179">  2  5  1 -1</clus>
</clustering>
</event>
<event>
 9    2  0.2869112E-005  0.1172515E+03  0.7546771E-02  0.1250297E+00
         -1   -1    0    0    0  501 -0.00000000000E+00  0.00000000000E+00  0.32211481307E+03  0.32211481307E+03  0.00000000000E+00 0.  1.
          2   -1    0    0  502    0  0.00000000000E+00 -0.00000000000E+00 -0.31071758125E+03  0.31071758125E+03  0.00000000000E+00 0. -1.
         23    2    1    2    0    0 -0.38123933409E+02  0.13571806007E+02  0.17161321318E+03  0.19892433608E+03  0.92098687977E+02 0.  0.
         24    2    1    2    0    0  0.71259635438E+02 -0.21488831650E+02 -0.28401906708E+03  0.30550300354E+03  0.84412968090E+02 0.  0.
        -11    1    4    4    0    0  0.12512233095E+02  0.26324370184E+02 -0.36822804278E+02  0.46962190723E+02  0.00000000000E+00 0.  1.
         12    1    4    4    0    0  0.58747402343E+02 -0.47813201834E+02 -0.24719626280E+03  0.25854081282E+03  0.00000000000E+00 0. -1.
        -13    1    3    3    0    0 -0.60615757934E+02 -0.15874470918E+02  0.12017758890E+03  0.13553199552E+03  0.00000000000E+00 0.  1.
         13    1    3    3    0    0  0.22491824525E+02  0.29446276925E+02  0.51435624282E+02  0.63392340550E+02  0.00000000000E+00 0. -1.
         21    1    1    2  502  501 -0.33135702029E+02  0.79170256436E+01  0.12380308570E+03  0.12840505470E+03  0.00000000000E+00 0.  1.
<scales pt_clust_5="13000.00000" pt_clust_6="13000.00000" pt_clust_7="13000.00000" pt_clust_8="13000.00000" pt_clust_9="34.06837"></scales>
<clustering>
<clus scale="   34.068">  1  9  2 -1</clus>
<clus scale="   84.413">  5  6 -1 -1</clus>
<clus scale="   92.099">  7  8 -1 -1</clus>
<clus scale="  111.316">  2  5  1 -1</clus>
<clus scale="  111.316">  2  5  1 -1</clus>
</clustering>
</event>
<event>
 9    2  0.2869112E-005  0.9656220E+02  0.7546771E-02  0.1292769E+00
         -1   -1    0    0    0  501 -0.00000000000E+00  0.00000000000E+00  0.75287193406E+02  0.75287193406E+02  0.00000000000E+00 0.  1.
          2   -1    0    0  502    0  0.00000000000E+00 -0.00000000000E+00 -0.36440688830E+03  0.36440688830E+03  0.00000000000E+00 0. -1.
         24    2    1    2    0    0  0.42265981877E+02  0.16821340211E+02 -0.26267624511E+02  0.97330366678E+02  0.81938034329E+02 0.  0.
         23    2    1    2    0    0 -0.21562927371E+02 -0.19453589569E+02 -0.29155314640E+03  0.30687714057E+03  0.91252069814E+02 0.  0.
        -13    1    3    3    0    0  0.49668370912E+02  0.43108396646E+02 -0.13298652778E+02  0.67097951504E+02  0.00000000000E+00 0.  1.
         14    1    3    3    0    0 -0.74023890342E+01 -0.26287056435E+02 -0.12968971733E+02  0.30232415173E+02  0.00000000000E+00 0. -1.
        -11    1    4    4    0    0 -0.55615153093E+02 -0.24027209386E+02 -0.20463334587E+03  0.21341311648E+03  0.00000000000E+00 0. -1.
         11    1    4    4    0    0  0.34052225722E+02  0.45736198168E+01 -0.86919800529E+02  0.93464024089E+02  0.00000000000E+00 0.  1.
         21    1    1    2  502  501 -0.20703054506E+02  0.26322493578E+01  0.28701076013E+02  0.35486574460E+02  0.00000000000E+00 0.  1.
<scales pt_clust_5="13000.00000" pt_clust_6="13000.00000" pt_clust_7="13000.00000" pt_clust_8="13000.00000" pt_clust_9="20.86972"></scales>
<clustering>
<clus scale="   20.870">  1  9  2 -1</clus>
<clus scale="   81.938">  5  6 -1 -1</clus>
<clus scale="   87.813">  1  5  2 -1</clus>
<clus scale="   91.252">  7  8 -1 -1</clus>
<clus scale="   96.562">  2  5  1 -1</clus>
</clustering>
</event>
<event>
 9    2  0.2869112E-005  0.1177151E+03  0.7546771E-02  0.1253143E+00
         -1   -1    0    0    0  501 -0.00000000000E+00  0.00000000000E+00  0.62854219677E+02  0.62854219677E+02  0.00000000000E+00 0.  1.
          2   -1    0    0  502    0  0.00000000000E+00 -0.00000000000E+00 -0.40210098455E+03  0.40210098455E+03  0.00000000000E+00 0. -1.
         24    2    1    2    0    0  0.35008108626E+02 -0.85649708363E+01 -0.91392495912E+01  0.90080068447E+02  0.82048561555E+02 0.  0.
         23    2    1    2    0    0 -0.72057317344E+02 -0.11205129524E+02 -0.29692992214E+03  0.32135641549E+03  0.98917921546E+02 0.  0.
        -13    1    3    3    0    0  0.34939738126E+02 -0.30451394390E+02 -0.33608787759E+02  0.57250531309E+02  0.00000000000E+00 0.  1.
         14    1    3    3    0    0  0.68370500527E-01  0.21886423554E+02  0.24469538168E+02  0.32829537137E+02  0.00000000000E+00 0. -1.
        -13    1    4    4    0    0 -0.20220236091E+02 -0.49980473834E+02 -0.94156996647E+02  0.10850090198E+03  0.00000000000E+00 0.  1.
         13    1    4    4    0    0 -0.51837081252E+02  0.38775344310E+02 -0.20277292550E+03  0.21285551352E+03  0.00000000000E+00 0. -1.
         21    1    1    2  502  501  0.37049208717E+02  0.19770100360E+02 -0.33177593139E+02  0.53518720288E+02  0.00000000000E+00 0.  1.
<scales pt_clust_5="13000.00000" pt_clust_6="13000.00000" pt_clust_7="13000.00000" pt_clust_8="13000.00000" pt_clust_9="41.99406"></scales>
<clustering>
<clus scale="   41.994">  1  9  2 -1</clus>
<clus scale="   82.049">  5  6 -1 -1</clus>
<clus scale="   98.918">  7  8 -1 -1</clus>
<clus scale="  103.943">  1  5  2 -1</clus>
<clus scale="  117.715">  2  5  1 -1</clus>
</clustering>
</event>
<event>
 9    2  0.2869112E-005  0.1052017E+03  0.7546771E-02  0.1275076E+00
          2   -1    0    0  502    0  0.00000000000E+00  0.00000000000E+00  0.40792368033E+03  0.40792368033E+03  0.00000000000E+00 0. -1.
         -1   -1    0    0    0  501 -0.00000000000E+00 -0.00000000000E+00 -0.68700267738E+02  0.68700267738E+02  0.00000000000E+00 0.  1.
         23    2    1    2    0    0 -0.43128988978E+02  0.13445409464E+02  0.44706956591E+01  0.10238432943E+03  0.91769684906E+02 0.  0.
         24    2    1    2    0    0  0.87323909115E+02 -0.98936478647E+00  0.27093338948E+03  0.29561868903E+03  0.79743738472E+02 0.  0.
        -13    1    4    4    0    0 -0.51424225667E+01  0.22282362704E+02  0.55596778132E+02  0.60116137070E+02  0.00000000000E+00 0.  1.
         14    1    4    4    0    0  0.92466331682E+02 -0.23271727490E+02  0.21533661135E+03  0.23550255196E+03  0.00000000000E+00 0. -1.
        -13    1    3    3    0    0 -0.23320898569E+02  0.44085055282E+02 -0.24715822763E+02  0.55661731056E+02  0.00000000000E+00 0.  1.
         13    1    3    3    0    0 -0.19808090408E+02 -0.30639645818E+02  0.29186518422E+02  0.46722598376E+02  0.00000000000E+00 0. -1.
         21    1    1    2  502  501 -0.44194920137E+02 -0.12456044677E+02  0.63819327458E+02  0.78620929606E+02  0.00000000000E+00 0. -1.
<scales pt_clust_5="13000.00000" pt_clust_6="13000.00000" pt_clust_7="13000.00000" pt_clust_8="13000.00000" pt_clust_9="45.91671"></scales>
<clustering>
<clus scale="   45.917">  1  9  2 -1</clus>
<clus scale="   79.744">  5  6 -1 -1</clus>
<clus scale="   91.770">  7  8 -1 -1</clus>
<clus scale="   94.894">  1  5  2 -1</clus>
<clus scale="   45.917">  1  5  2 -1</clus>
</clustering>
</event>
<event>
 9    2  0.2869112E-005  0.1406613E+03  0.7546771E-02  0.1215184E+00
         -1   -1    0    0    0  501 -0.00000000000E+00  0.00000000000E+00  0.44887498339E+03  0.44887498339E+03  0.00000000000E+00 0.  1.
          2   -1    0    0  502    0  0.00000000000E+00 -0.00000000000E+00 -0.61803268828E+02  0.61803268828E+02  0.00000000000E+00 0. -1.
         23    2    1    2    0    0 -0.10287937075E+03  0.62048664117E+02  0.19049844391E+03  0.24394205163E+03  0.93722280047E+02 0.  0.
         24    2    1    2    0    0  0.72601589261E+02 -0.64362584971E+02  0.88443154700E+02  0.15442315479E+03  0.81306740272E+02 0.  0.
        -11    1    4    4    0    0  0.70234476771E+02 -0.22472125400E+02  0.24045909172E+02  0.77563418538E+02  0.00000000000E+00 0.  1.
         12    1    4    4    0    0  0.23671124892E+01 -0.41890459571E+02  0.64397245528E+02  0.76859736249E+02  0.00000000000E+00 0. -1.
        -11    1    3    3    0    0 -0.46167175680E+02 -0.12079436798E+02  0.11287199872E+03  0.12254553847E+03  0.00000000000E+00 0.  1.
         11    1    3    3    0    0 -0.56712195066E+02  0.74128100915E+02  0.77626445185E+02  0.12139651316E+03  0.00000000000E+00 0. -1.
         21    1    1    2  502  501  0.30277781485E+02  0.23139208537E+01  0.10813011596E+03  0.11231304581E+03  0.00000000000E+00 0.  1.
<scales pt_clust_5="13000.00000" pt_clust_6="13000.00000" pt_clust_7="13000.00000" pt_clust_8="13000.00000" pt_clust_9="30.36607"></scales>
<clustering>
<clus scale="   30.366">  1  9  2 -1</clus>
<clus scale="   81.307">  5  6 -1 -1</clus>
<clus scale="   93.722">  7  8 -1 -1</clus>
<clus scale="  132.712">  2  5  1 -1</clus>
<clus scale="  132.712">  2  5  1 -1</clus>
</clustering>
</event>
<event>
 9    2  0.2869112E-005  0.1231115E+03  0.7546771E-02  0.1244542E+00
         -1   -1    0    0    0  501 -0.00000000000E+00  0.00000000000E+00  0.66024932880E+02  0.66024932880E+02  0.00000000000E+00 0.  1.
          2   -1    0    0  502    0  0.00000000000E+00 -0.00000000000E+00 -0.51204076866E+03  0.51204076866E+03  0.00000000000E+00 0. -1.
         23    2    1    2    0    0 -0.47939745742E+02 -0.31860765714E+02 -0.11397655239E+03  0.15706605301E+03  0.91464544496E+02 0.  0.
         24    2    1    2    0    0  0.60374065512E+02  0.45127533687E+00 -0.35757586111E+03  0.37865245033E+03  0.10895847953E+03 0.  0.
        -13    1    4    4    0    0  0.41012211233E+01  0.42766172541E+02 -0.66412613122E+02  0.79097412791E+02  0.00000000000E+00 0.  1.
         14    1    4    4    0    0  0.56272844388E+02 -0.42314897204E+02 -0.29116324798E+03  0.29955503754E+03  0.00000000000E+00 0. -1.
        -11    1    3    3    0    0 -0.15258760997E+02  0.30017698373E+02 -0.59559658194E+02  0.68419623552E+02  0.00000000000E+00 0. -1.
         11    1    3    3    0    0 -0.32680984744E+02 -0.61878464087E+02 -0.54416894193E+02  0.88646429456E+02  0.00000000000E+00 0.  1.
         21    1    1    2  502  501 -0.12434319770E+02  0.31409490377E+02  0.25536577713E+02  0.42347198198E+02  0.00000000000E+00 0. -1.
<scales pt_clust_5="13000.00000" pt_clust_6="13000.00000" pt_clust_7="13000.00000" pt_clust_8="13000.00000" pt_clust_9="33.78118"></scales>
<clustering>
<clus scale="   33.781">  1  9  2 -1</clus>
<clus scale="   91.465">  7  8 -1 -1</clus>
<clus scale="  107.936">  1  7  2 -1</clus>
<clus scale="  108.958">  5  6 -1 -1</clus>
<clus scale="  123.112">  2  5  1 -1</clus>
</clustering>
</event>
<event>
 9    2  0.2869112E-005  0.1176317E+03  0.7546771E-02  0.1249757E+00
         -1   -1    0    0    0  501 -0.00000000000E+00  0.00000000000E+00  0.46103067245E+02  0.46103067245E+02  0.00000000000E+00 0.  1.
          2   -1    0    0  502    0  0.00000000000E+00 -0.00000000000E+00 -0.98906718353E+03  0.98906718353E+03  0.00000000000E+00 0. -1.
         23    2    1    2    0    0  0.54526472696E+02  0.69865787763E+00 -0.31814310377E+02  0.11139025216E+03  0.91771529265E+02 0.  0.
         24    2    1    2    0    0 -0.74119940962E+02 -0.13920056557E+02 -0.86100620737E+03  0.86834454195E+03  0.83684053302E+02 0.  0.
        -11    1    4    4    0    0 -0.50178036581E+02 -0.14118336758E+02 -0.19317674706E+03  0.20008602748E+03  0.00000000000E+00 0.  1.
         12    1    4    4    0    0 -0.23941904381E+02  0.19828020019E+00 -0.66782946031E+03  0.66825851447E+03  0.00000000000E+00 0. -1.
        -11    1    3    3    0    0  0.74803785941E+02 -0.19324637819E+02 -0.16362520375E+02  0.78973287199E+02  0.00000000000E+00 0.  1.
         11    1    3    3    0    0 -0.20277313245E+02  0.20023295696E+02 -0.15451790001E+02  0.32416964960E+02  0.00000000000E+00 0. -1.
         21    1    1    2  502  501  0.19593468266E+02  0.13221398680E+02 -0.50143598535E+02  0.55435456666E+02  0.00000000000E+00 0.  1.
<scales pt_clust_5="13000.00000" pt_clust_6="13000.00000" pt_clust_7="13000.00000" pt_clust_8="13000.00000" pt_clust_9="23.63703"></scales>
<clustering>
<clus scale="   23.637">  1  9  2 -1</clus>
<clus scale="   83.684">  5  6 -1 -1</clus>
<clus scale="   91.772">  7  8 -1 -1</clus>
<clus scale="  111.437">  2  5  1 -1</clus>
<clus scale="  111.437">  2  5  1 -1</clus>
</clustering>
</event>
<event>
 9    2  0.2869112E-005  0.1805094E+03  0.7546771E-02  0.1168514E+00
         -1   -1    0    0    0  501 -0.00000000000E+00  0.00000000000E+00  0.19388295439E+03  0.19388295439E+03  0.00000000000E+00 0.  1.
          2   -1    0    0  502    0  0.00000000000E+00 -0.00000000000E+00 -0.37326924414E+03  0.37326924414E+03  0.00000000000E+00 0. -1.
         23    2    1    2    0    0 -0.96521940649E+02 -0.97851433765E+02  0.11034687082E+03  0.19836464429E+03  0.90998418057E+02 0.  0.
         24    2    1    2    0    0  0.10951217253E+03  0.11506664994E+03 -0.29670906046E+03  0.34612099360E+03  0.80809812455E+02 0.  0.
        -13    1    4    4    0    0  0.31823986831E+02  0.37076293197E+01 -0.11441540171E+03  0.11881665204E+03  0.00000000000E+00 0.  1.
         14    1    4    4    0    0  0.77688185695E+02  0.11135902062E+03 -0.18229365874E+03  0.22730434155E+03  0.00000000000E+00 0. -1.
        -13    1    3    3    0    0 -0.11076611390E+03 -0.67274006676E+02  0.97868589887E+02  0.16239822921E+03  0.00000000000E+00 0. -1.
         13    1    3    3    0    0  0.14244173252E+02 -0.30577427089E+02  0.12478280931E+02  0.35966415084E+02  0.00000000000E+00 0.  1.
         21    1    1    2  502  501 -0.12990231877E+02 -0.17215216179E+02  0.69758998897E+01  0.22666560648E+02  0.00000000000E+00 0.  1.
<scales pt_clust_5="13000.00000" pt_clust_6="13000.00000" pt_clust_7="13000.00000" pt_clust_8="13000.00000" pt_clust_9="21.56640"></scales>
<clustering>
<clus scale="   21.566">  1  9  2 -1</clus>
<clus scale="   80.810">  5  6 -1 -1</clus>
<clus scale="   90.998">  7  8 -1 -1</clus>
<clus scale="  175.594">  2  5  1 -1</clus>
<clus scale="  175.594">  2  5  1 -1</clus>
</clustering>
</event>
<event>
 9    2  0.2869112E-005  0.9653047E+02  0.7546771E-02  0.1294306E+00
         -1   -1    0    0    0  501 -0.00000000000E+00  0.00000000000E+00  0.78278479634E+01  0.78278479634E+01  0.00000000000E+00 0.  1.
          2   -1    0    0  502    0  0.00000000000E+00 -0.00000000000E+00 -0.24332523502E+04  0.24332523502E+04  0.00000000000E+00 0. -1.
         23    2    1    2    0    0 -0.19195750624E+02  0.13221358624E+02 -0.42438682496E+03  0.43450050651E+03  0.90239857013E+02 0.  0.
         24    2    1    2    0    0  0.24122378071E+02  0.34415413466E+02 -0.16367140402E+04  0.16391218760E+04  0.78239154864E+02 0.  0.
        -13    1    4    4    0    0  0.20561041111E+02  0.16114293493E+02 -0.14778391447E+03  0.15007502205E+03  0.00000000000E+00 0.  1.
         14    1    4    4    0    0  0.35613369598E+01  0.18301119973E+02 -0.14889301257E+04  0.14890468540E+04  0.00000000000E+00 0. -1.
        -11    1    3    3    0    0 -0.27855494553E+02 -0.34601716948E+02 -0.18921816059E+03  0.19436234123E+03  0.00000000000E+00 0. -1.
         11    1    3    3    0    0  0.86597439289E+01  0.47823075571E+02 -0.23516866437E+03  0.24013816528E+03  0.00000000000E+00 0.  1.
         21    1    1    2  502  501 -0.49266274474E+01 -0.47636772090E+02 -0.36432363711E+03  0.36745781563E+03  0.00000000000E+00 0. -1.
<scales pt_clust_5="13000.00000" pt_clust_6="13000.00000" pt_clust_7="13000.00000" pt_clust_8="13000.00000" pt_clust_9="47.89085"></scales>
<clustering>
<clus scale="   47.891">  1  9  2 -1</clus>
<clus scale="   78.239">  5  6 -1 -1</clus>
<clus scale="   85.418">  2  5  1 -1</clus>
<clus scale="   90.240">  7  8 -1 -1</clus>
<clus scale="   85.418">  2  5  1 -1</clus>
</clustering>
</event>
<event>
 9    2  0.2869112E-005  0.1586329E+03  0.7546771E-02  0.1221714E+00
          2   -1    0    0  502    0  0.00000000000E+00  0.00000000000E+00  0.48864007821E+03  0.48864007821E+03  0.00000000000E+00 0. -1.
         -1   -1    0    0    0  501 -0.00000000000E+00 -0.00000000000E+00 -0.83958718904E+02  0.83958718904E+02  0.00000000000E+00 0.  1.
         23    2    1    2    0    0  0.12230083505E+03 -0.47274807219E+02  0.60690505883E+02  0.17109976909E+03  0.91648195973E+02 0.  0.
         24    2    1    2    0    0 -0.47493331316E+01  0.15569660417E+01  0.12398611984E+03  0.14790376111E+03  0.80485926270E+02 0.  0.
        -13    1    4    4    0    0  0.11815945814E+02 -0.32446583077E+02  0.92346121104E+02  0.98591091950E+02  0.00000000000E+00 0.  1.
         14    1    4    4    0    0 -0.16565278945E+02  0.34003549119E+02  0.31639998736E+02  0.49312669155E+02  0.00000000000E+00 0. -1.
        -11    1    3    3    0    0  0.87813599979E+02 -0.55893871696E+02  0.39801817291E+01  0.10416906969E+03  0.00000000000E+00 0.  1.
         11    1    3    3    0    0  0.34487235073E+02  0.86190644771E+01  0.56710324154E+02  0.66930699392E+02  0.00000000000E+00 0. -1.
         21    1    1    2  502  501 -0.11755150192E+03  0.45717841177E+02  0.22000473358E+03  0.25359526692E+03  0.00000000000E+00 0. -1.
<scales pt_clust_5="13000.00000" pt_clust_6="13000.00000" pt_clust_7="13000.00000" pt_clust_8="13000.00000" pt_clust_9="129.47971"></scales>
<clustering>
<clus scale="   80.486">  5  6 -1 -1</clus>
<clus scale="   80.641">  1  5  2 -1</clus>
<clus scale="   91.648">  7  8 -1 -1</clus>
<clus scale="  129.480">  1  9  2 -1</clus>
<clus scale="   80.641">  1  5  2 -1</clus>
</clustering>
</event>
<event>
 9    2  0.2869112E-005  0.1906156E+03  0.7546771E-02  0.1158619E+00
         -1   -1    0    0    0  501 -0.00000000000E+00  0.00000000000E+00  0.10501127821E+03  0.10501127821E+03  0.00000000000E+00 0.  1.
          2   -1    0    0  502    0  0.00000000000E+00 -0.00000000000E+00 -0.97872550196E+03  0.97872550196E+03  0.00000000000E+00 0. -1.
         23    2    1    2    0    0 -0.39405240650E+02  0.18058878928E+03 -0.10424271678E+03  0.22909168233E+03  0.86321324739E+02 0.  0.
         24    2    1    2    0    0  0.11469322031E+03 -0.12685435723E+03 -0.73025832086E+03  0.75417946674E+03  0.79138423898E+02 0.  0.
        -11    1    4    4    0    0  0.63046066360E+02 -0.11662448223E+03 -0.45454893887E+03  0.47348792399E+03  0.00000000000E+00 0.  1.
         12    1    4    4    0    0  0.51647153949E+02 -0.10229874997E+02 -0.27570938199E+03  0.28069154275E+03  0.00000000000E+00 0. -1.
        -13    1    3    3    0    0 -0.11001497843E+02  0.15865823517E+03 -0.55250179938E+02  0.16836285494E+03  0.00000000000E+00 0.  1.
         13    1    3    3    0    0 -0.28403742807E+02  0.21930554116E+02 -0.48992536845E+02  0.60728827387E+02  0.00000000000E+00 0. -1.
         21    1    1    2  502  501 -0.75287979658E+02 -0.53734432054E+02 -0.39213186106E+02  0.10046563111E+03  0.00000000000E+00 0.  1.
<scales pt_clust_5="13000.00000" pt_clust_6="13000.00000" pt_clust_7="13000.00000" pt_clust_8="13000.00000" pt_clust_9="92.49686"></scales>
<clustering>
<clus scale="   79.138">  5  6 -1 -1</clus>
<clus scale="   86.321">  7  8 -1 -1</clus>
<clus scale="   92.497">  1  9  2 -1</clus>
<clus scale="  187.472">  2  5  1 -1</clus>
<clus scale="  187.472">  2  5  1 -1</clus>
</clustering>
</event>
<event>
 9    2  0.2869112E-005  0.9503284E+02  0.7546771E-02  0.1296522E+00
         -1   -1    0    0    0  501 -0.00000000000E+00  0.00000000000E+00  0.55311106236E+02  0.55311106236E+02  0.00000000000E+00 0.  1.
          2   -1    0    0  502    0  0.00000000000E+00 -0.00000000000E+00 -0.33299893183E+03  0.33299893183E+03  0.00000000000E+00 0. -1.
         23    2    1    2    0    0 -0.40280124219E+02 -0.30300182271E+02 -0.22075908784E+02  0.10531665183E+03  0.89797895023E+02 0.  0.
         24    2    1    2    0    0  0.17871997533E+02  0.21428986575E+02 -0.23932361969E+03  0.25390505735E+03  0.80083540408E+02 0.  0.
        -13    1    4    4    0    0  0.23916337918E+02 -0.26959135428E+02 -0.10271057993E+03  0.10884966437E+03  0.00000000000E+00 0.  1.
         14    1    4    4    0    0 -0.60443403852E+01  0.48388122003E+02 -0.13661303976E+03  0.14505539298E+03  0.00000000000E+00 0. -1.
        -11    1    3    3    0    0 -0.16460098458E+01 -0.41411226876E+02  0.20945683787E+02  0.46436200631E+02  0.00000000000E+00 0. -1.
         11    1    3    3    0    0 -0.38634114373E+02  0.11111044605E+02 -0.43021592571E+02  0.58880451195E+02  0.00000000000E+00 0.  1.
         21    1    1    2  502  501  0.22408126686E+02  0.88711956955E+01 -0.16288297120E+02  0.29088328892E+02  0.00000000000E+00 0. -1.
<scales pt_clust_5="13000.00000" pt_clust_6="13000.00000" pt_clust_7="13000.00000" pt_clust_8="13000.00000" pt_clust_9="24.10025"></scales>
<clustering>
<clus scale="   24.100">  1  9  2 -1</clus>
<clus scale="   80.084">  5  6 -1 -1</clus>
<clus scale="   85.912">  2  5  1 -1</clus>
<clus scale="   89.798">  7  8 -1 -1</clus>
<clus scale="   85.912">  2  5  1 -1</clus>
</clustering>
</event>
<event>
 9    2  0.2869112E-005  0.1133973E+03  0.7546771E-02  0.1258391E+00
         -1   -1    0    0    0  501 -0.00000000000E+00  0.00000000000E+00  0.24425534542E+03  0.24425534542E+03  0.00000000000E+00 0.  1.
          2   -1    0    0  502    0  0.00000000000E+00 -0.00000000000E+00 -0.95677331452E+02  0.95677331452E+02  0.00000000000E+00 0. -1.
         24    2    1    2    0    0  0.39504900929E+02 -0.17718921296E+02  0.66620868920E+02  0.11262804231E+03  0.79825674882E+02 0.  0.
         23    2    1    2    0    0 -0.76359756480E+02  0.32653106999E+02 -0.13593056180E+02  0.12380994274E+03  0.90813506364E+02 0.  0.
        -11    1    3    3    0    0  0.32880242740E+02  0.22858857102E+02  0.58221522988E+02  0.70663876554E+02  0.00000000000E+00 0.  1.
         12    1    3    3    0    0  0.66246581893E+01 -0.40577778397E+02  0.83993459319E+01  0.41964165759E+02  0.00000000000E+00 0. -1.
        -13    1    4    4    0    0 -0.15911506596E+02  0.14414484320E+02 -0.47510851971E+02  0.52136690108E+02  0.00000000000E+00 0. -1.
         13    1    4    4    0    0 -0.60448249883E+02  0.18238622679E+02  0.33917795791E+02  0.71673252630E+02  0.00000000000E+00 0.  1.
         21    1    1    2  502  501  0.36854855550E+02 -0.14934185703E+02  0.95550201233E+02  0.10349469182E+03  0.00000000000E+00 0.  1.
<scales pt_clust_5="13000.00000" pt_clust_6="13000.00000" pt_clust_7="13000.00000" pt_clust_8="13000.00000" pt_clust_9="39.76569"></scales>
<clustering>
<clus scale="   39.766">  1  9  2 -1</clus>
<clus scale="   79.826">  5  6 -1 -1</clus>
<clus scale="   90.814">  7  8 -1 -1</clus>
<clus scale="  104.805">  1  5  2 -1</clus>
<clus scale="  113.397">  2  5  1 -1</clus>
</clustering>
</event>
<event>
 9    2  0.2869112E-005  0.1719882E+03  0.7546771E-02  0.1177091E+00
          2   -1    0    0  502    0  0.00000000000E+00  0.00000000000E+00  0.32581009831E+03  0.32581009831E+03  0.00000000000E+00 0. -1.
         -1   -1    0    0    0  501 -0.00000000000E+00 -0.00000000000E+00 -0.22017151408E+03  0.22017151408E+03  0.00000000000E+00 0.  1.
         24    2    1    2    0    0  0.10516325575E+03  0.12953154610E+03 -0.93288259697E+02  0.20775395627E+03  0.81371218220E+02 0.  0.
         23    2    1    2    0    0 -0.95089213299E+02 -0.10561130229E+03  0.23770453976E+03  0.29156531488E+03  0.91165667659E+02 0.  0.
        -11    1    3    3    0    0  0.10618125747E+03  0.12796665217E+03 -0.63636696875E+02  0.17804368199E+03  0.00000000000E+00 0.  1.
         12    1    3    3    0    0 -0.10180017173E+01  0.15648939283E+01 -0.29651562822E+02  0.29710274288E+02  0.00000000000E+00 0. -1.
        -11    1    4    4    0    0 -0.59645908758E+02 -0.17547953119E+02  0.45006057920E+02  0.76753568905E+02  0.00000000000E+00 0.  1.
         11    1    4    4    0    0 -0.35443304541E+02 -0.88063349173E+02  0.19269848184E+03  0.21481174597E+03  0.00000000000E+00 0. -1.
         21    1    1    2  502  501 -0.10074042453E+02 -0.23920243809E+02 -0.38777695830E+02  0.46662341231E+02  0.00000000000E+00 0. -1.
<scales pt_clust_5="13000.00000" pt_clust_6="13000.00000" pt_clust_7="13000.00000" pt_clust_8="13000.00000" pt_clust_9="25.95505"></scales>
<clustering>
<clus scale="   25.955">  2  9  1 -1</clus>
<clus scale="   81.371">  5  6 -1 -1</clus>
<clus scale="   91.166">  7  8 -1 -1</clus>
<clus scale="  167.003">  2  5  1 -1</clus>
<clus scale="  171.988">  1  5  2 -1</clus>
</clustering>
</event>
<event>
 9    2  0.2869112E-005  0.1156209E+03  0.7546771E-02  0.1254877E+00
          2   -1    0    0  502    0  0.00000000000E+00  0.00000000000E+00  0.24836245991E+03  0.24836245991E+03  0.00000000000E+00 0. -1.
         -1   -1    0    0    0  501 -0.00000000000E+00 -0.00000000000E+00 -0.21876784207E+03  0.21876784207E+03  0.00000000000E+00 0.  1.
         23    2    1    2    0    0 -0.22369950681E+02  0.71275966950E+02 -0.13046389014E+03  0.17675744353E+03  0.92960685537E+02 0.  0.
         24    2    1    2    0    0  0.43256024443E+02 -0.53317779415E+02  0.20894491437E+03  0.23426042395E+03  0.80660397542E+02 0.  0.
        -13    1    4    4    0    0  0.36489590050E+02 -0.20126771953E+02  0.28078158156E+02  0.50248981051E+02  0.00000000000E+00 0.  1.
         14    1    4    4    0    0  0.67664343929E+01 -0.33191007462E+02  0.18086675622E+03  0.18401144289E+03  0.00000000000E+00 0. -1.
        -13    1    3    3    0    0 -0.22340911197E+02  0.40120614698E+02 -0.13737301412E+03  0.14484517612E+03  0.00000000000E+00 0.  1.
         13    1    3    3    0    0 -0.29039484119E-01  0.31155352252E+02  0.69091239788E+01  0.31912267413E+02  0.00000000000E+00 0. -1.
         21    1    1    2  502  501 -0.20886073762E+02 -0.17958187535E+02 -0.48886406389E+02  0.56112434508E+02  0.00000000000E+00 0.  1.
<scales pt_clust_5="13000.00000" pt_clust_6="13000.00000" pt_clust_7="13000.00000" pt_clust_8="13000.00000" pt_clust_9="27.54496"></scales>
<clustering>
<clus scale="   27.545">  2  9  1 -1</clus>
<clus scale="   80.660">  5  6 -1 -1</clus>
<clus scale="   92.961">  7  8 -1 -1</clus>
<clus scale="  105.984">  1  5  2 -1</clus>
<clus scale="  105.984">  1  5  2 -1</clus>
</clustering>
</event>
<event>
 9    2  0.2869112E-005  0.1078798E+03  0.7546771E-02  0.1268402E+00
         -1   -1    0    0    0  501 -0.00000000000E+00  0.00000000000E+00  0.26850871549E+02  0.26850871549E+02  0.00000000000E+00 0.  1.
          2   -1    0    0  502    0  0.00000000000E+00 -0.00000000000E+00 -0.58383517156E+03  0.58383517156E+03  0.00000000000E+00 0. -1.
         24    2    1    2    0    0  0.29017286482E+02  0.68910595411E+02 -0.29291456191E+03  0.31290650901E+03  0.80751902321E+02 0.  0.
         23    2    1    2    0    0 -0.82807469053E+01 -0.42295252974E+02 -0.22460550303E+03  0.24585837871E+03  0.90228882287E+02 0.  0.
        -13    1    3    3    0    0  0.43701032629E+01  0.51266971894E+02 -0.64590636236E+02  0.82579358796E+02  0.00000000000E+00 0.  1.
         14    1    3    3    0    0  0.24647183219E+02  0.17643623517E+02 -0.22832392568E+03  0.23032715022E+03  0.00000000000E+00 0. -1.
        -13    1    4    4    0    0 -0.36713351422E+02 -0.25291551405E+02 -0.45448110933E+02  0.63663675141E+02  0.00000000000E+00 0.  1.
         13    1    4    4    0    0  0.28432604517E+02 -0.17003701570E+02 -0.17915739210E+03  0.18219470357E+03  0.00000000000E+00 0. -1.
         21    1    1    2  502  501 -0.20736539577E+02 -0.26615342437E+02 -0.39464235072E+02  0.51921155384E+02  0.00000000000E+00 0. -1.
<scales pt_clust_5="13000.00000" pt_clust_6="13000.00000" pt_clust_7="13000.00000" pt_clust_8="13000.00000" pt_clust_9="33.73990"></scales>
<clustering>
<clus scale="   33.740">  1  9  2 -1</clus>
<clus scale="   80.752">  5  6 -1 -1</clus>
<clus scale="   90.229">  7  8 -1 -1</clus>
<clus scale="  100.088">  1  5  2 -1</clus>
<clus scale="  107.880">  2  5  1 -1</clus>
</clustering>
</event>
<event>
 9    2  0.2869112E-005  0.9930396E+02  0.7546771E-02  0.1286630E+00
         -3   -1    0    0    0  501 -0.00000000000E+00  0.00000000000E+00  0.32221244291E+03  0.32221244291E+03  0.00000000000E+00 0.  1.
          4   -1    0    0  502    0  0.00000000000E+00 -0.00000000000E+00 -0.46258162410E+02  0.46258162410E+02  0.00000000000E+00 0. -1.
         23    2    1    2    0    0 -0.47752410308E+02 -0.28867301935E+02  0.17882273520E+03  0.20884058716E+03  0.92321213230E+02 0.  0.
         24    2    1    2    0    0  0.28489384918E+02  0.94705470349E+01  0.41025648448E+02  0.97218721825E+02  0.82867603613E+02 0.  0.
        -11    1    4    4    0    0  0.16802920199E+02 -0.19595109196E+02  0.56618836239E+02  0.62225389100E+02  0.00000000000E+00 0.  1.
         12    1    4    4    0    0  0.11686464719E+02  0.29065656230E+02 -0.15593187791E+02  0.34993332725E+02  0.00000000000E+00 0. -1.
        -11    1    3    3    0    0  0.11762182351E+01 -0.36680463697E+02  0.14316839439E+03  0.14779725660E+03  0.00000000000E+00 0.  1.
         11    1    3    3    0    0 -0.48928628543E+02  0.78131617622E+01  0.35654340806E+02  0.61043330562E+02  0.00000000000E+00 0. -1.
         21    1    1    2  502  501  0.19263025389E+02  0.19396754900E+02  0.56105896857E+02  0.62411296333E+02  0.00000000000E+00 0. -1.
<scales pt_clust_5="13000.00000" pt_clust_6="13000.00000" pt_clust_7="13000.00000" pt_clust_8="13000.00000" pt_clust_9="27.33676"></scales>
<clustering>
<clus scale="   27.337">  1  9  2 -1</clus>
<clus scale="   82.868">  5  6 -1 -1</clus>
<clus scale="   90.582">  2  5  1 -1</clus>
<clus scale="   92.321">  7  8 -1 -1</clus>
<clus scale="   90.582">  2  5  1 -1</clus>
</clustering>
</event>
<event>
 9    2  0.2869112E-005  0.1084036E+03  0.7546771E-02  0.1263850E+00
         -1   -1    0    0    0  501 -0.00000000000E+00  0.00000000000E+00  0.67391655601E+02  0.67391655601E+02  0.00000000000E+00 0.  1.
          2   -1    0    0  502    0  0.00000000000E+00 -0.00000000000E+00 -0.26915391903E+03  0.26915391903E+03  0.00000000000E+00 0. -1.
         23    2    1    2    0    0  0.51230709689E+02  0.70567419912E+02 -0.93438576685E+02  0.15232951983E+03  0.82880447825E+02 0.  0.
         24    2    1    2    0    0 -0.52633099716E+01 -0.59682576784E+02 -0.77814409575E+02  0.12798174463E+03  0.82064195708E+02 0.  0.
        -13    1    4    4    0    0  0.13866149514E+02 -0.48649007351E+02 -0.89641969911E+02  0.10293045608E+03  0.00000000000E+00 0.  1.
         14    1    4    4    0    0 -0.19129459486E+02 -0.11033569433E+02  0.11827560335E+02  0.25051288552E+02  0.00000000000E+00 0. -1.
        -11    1    3    3    0    0  0.47843767833E+02  0.18612922291E+02 -0.85407577952E+02  0.99648990804E+02  0.00000000000E+00 0. -1.
         11    1    3    3    0    0  0.33869418560E+01  0.51954497621E+02 -0.80309987332E+01  0.52680529030E+02  0.00000000000E+00 0.  1.
         21    1    1    2  502  501 -0.45967399717E+02 -0.10884843128E+02 -0.30509277165E+02  0.56234310166E+02  0.00000000000E+00 0. -1.
<scales pt_clust_5="13000.00000" pt_clust_6="13000.00000" pt_clust_7="13000.00000" pt_clust_8="13000.00000" pt_clust_9="47.23856"></scales>
<clustering>
<clus scale="   47.239">  1  9  2 -1</clus>
<clus scale="   82.064">  5  6 -1 -1</clus>
<clus scale="   82.880">  7  8 -1 -1</clus>
<clus scale="  107.781">  2  5  1 -1</clus>
<clus scale="  107.781">  2  5  1 -1</clus>
</clustering>
</event>
<event>
 9    2  0.2869112E-005  0.1272002E+03  0.7546771E-02  0.1249707E+00
         -1   -1    0    0    0  501 -0.00000000000E+00  0.00000000000E+00  0.54814201128E+02  0.54814201128E+02  0.00000000000E+00 0.  1.
          2   -1    0    0  502    0  0.00000000000E+00 -0.00000000000E+00 -0.98728148383E+03  0.98728148383E+03  0.00000000000E+00 0. -1.
         23    2    1    2    0    0  0.86203813991E+02 -0.26250274539E+02 -0.52254754091E+02  0.13724454219E+03  0.89360676896E+02 0.  0.
         24    2    1    2    0    0  0.11597769229E+02  0.28941470521E+02 -0.21367046817E+03  0.23116671326E+03  0.82527955193E+02 0.  0.
        -11    1    4    4    0    0  0.46838548837E+02  0.12715672866E+02 -0.13478922137E+03  0.14326085366E+03  0.00000000000E+00 0.  1.
         12    1    4    4    0    0 -0.35240779608E+02  0.16225797656E+02 -0.78881246793E+02  0.87905859603E+02  0.00000000000E+00 0. -1.
        -13    1    3    3    0    0  0.71205263648E+01 -0.43975502060E+02 -0.28123974072E+02  0.52683057948E+02  0.00000000000E+00 0. -1.
         13    1    3    3    0    0  0.79083287626E+02  0.17725227522E+02 -0.24130780019E+02  0.84561484240E+02  0.00000000000E+00 0.  1.
         21    1    1    2  502  501 -0.97801583220E+02 -0.26911959827E+01 -0.66654206044E+03  0.67368442950E+03  0.00000000000E+00 0. -1.
<scales pt_clust_5="13000.00000" pt_clust_6="13000.00000" pt_clust_7="13000.00000" pt_clust_8="13000.00000" pt_clust_9="90.52384"></scales>
<clustering>
<clus scale="   82.528">  5  6 -1 -1</clus>
<clus scale="   88.221">  2  5  1 -1</clus>
<clus scale="   89.361">  7  8 -1 -1</clus>
<clus scale="   90.524">  2  9  1 -1</clus>
<clus scale="   88.221">  2  5  1 -1</clus>
</clustering>
</event>
<event>
 9    2  0.2869112E-005  0.1206790E+03  0.7546771E-02  0.1257932E+00
          2   -1    0    0  502    0  0.00000000000E+00  0.00000000000E+00  0.13194950588E+03  0.13194950588E+03  0.00000000000E+00 0. -1.
         -1   -1    0    0    0  501 -0.00000000000E+00 -0.00000000000E+00 -0.30841064197E+03  0.30841064197E+03  0.00000000000E+00 0.  1.
         23    2    1    2    0    0 -0.21000358515E+02  0.64802072413E+02 -0.11475713574E+03  0.16061971992E+03  0.89382160295E+02 0.  0.
         24    2    1    2    0    0 -0.19467075873E+02  0.14271343392E+02  0.75859389359E+02  0.11599091030E+03  0.84359978861E+02 0.  0.
        -13    1    4    4    0    0  0.58592014990E+01  0.42306935047E+02  0.16832010065E+02  0.45907772306E+02  0.00000000000E+00 0.  1.
         14    1    4    4    0    0 -0.25326277372E+02 -0.28035591655E+02  0.59027379294E+02  0.70083137996E+02  0.00000000000E+00 0. -1.
        -13    1    3    3    0    0  0.17389751735E+02 -0.11594280913E+02 -0.47303797612E+02  0.51715375700E+02  0.00000000000E+00 0.  1.
         13    1    3    3    0    0 -0.38390110250E+02  0.76396353326E+02 -0.67453338125E+02  0.10890434422E+03  0.00000000000E+00 0. -1.
         21    1    1    2  502  501  0.40467434388E+02 -0.79073415805E+02 -0.13756338971E+03  0.16374951762E+03  0.00000000000E+00 0.  1.
<scales pt_clust_5="13000.00000" pt_clust_6="13000.00000" pt_clust_7="13000.00000" pt_clust_8="13000.00000" pt_clust_9="81.08173"></scales>
<clustering>
<clus scale="   84.360">  5  6 -1 -1</clus>
<clus scale="   87.745">  1  5  2 -1</clus>
<clus scale="   81.082">  2  9  1 -1</clus>
<clus scale="   89.382">  7  8 -1 -1</clus>
<clus scale="   87.745">  1  5  2 -1</clus>
</clustering>
</event>
<event>
 9    2  0.2869112E-005  0.1980311E+03  0.7546771E-02  0.1152456E+00
          2   -1    0    0  502    0  0.00000000000E+00  0.00000000000E+00  0.48014784235E+03  0.48014784235E+03  0.00000000000E+00 0. -1.
         -1   -1    0    0    0  501 -0.00000000000E+00 -0.00000000000E+00 -0.32157065731E+03  0.32157065731E+03  0.00000000000E+00 0.  1.
         24    2    1    2    0    0  0.22147042517E+02  0.12241188110E+03 -0.16064739563E+03  0.21837876355E+03  0.80040855311E+02 0.  0.
         23    2    1    2    0    0 -0.11643724026E+03 -0.14296684990E+03  0.40500208156E+03  0.45422378903E+03  0.91079159877E+02 0.  0.
        -13    1    3    3    0    0 -0.85004081889E+01  0.11436813621E+03 -0.11184491552E+03  0.16019242381E+03  0.00000000000E+00 0.  1.
         14    1    3    3    0    0  0.30647450706E+02  0.80437448916E+01 -0.48802480118E+02  0.58186339740E+02  0.00000000000E+00 0. -1.
        -13    1    4    4    0    0 -0.33225482533E+02  0.60707051956E+01  0.50311283641E+02  0.60597123799E+02  0.00000000000E+00 0.  1.
         13    1    4    4    0    0 -0.83211757723E+02 -0.14903755510E+03  0.35469079792E+03  0.39362666523E+03  0.00000000000E+00 0. -1.
         21    1    1    2  502  501  0.94290197739E+02  0.20554968798E+02 -0.85777500888E+02  0.12911594708E+03  0.00000000000E+00 0.  1.
<scales pt_clust_5="13000.00000" pt_clust_6="13000.00000" pt_clust_7="13000.00000" pt_clust_8="13000.00000" pt_clust_9="96.50465"></scales>
<clustering>
<clus scale="   80.041">  5  6 -1 -1</clus>
<clus scale="   91.079">  7  8 -1 -1</clus>
<clus scale="   96.505">  2  9  1 -1</clus>
<clus scale="  193.203">  2  5  1 -1</clus>
<clus scale="  198.031">  1  5  2 -1</clus>
</clustering>
</event>
<event>
 9    2  0.2869112E-005  0.2171981E+03  0.7546771E-02  0.1136797E+00
         -1   -1    0    0    0  501 -0.00000000000E+00  0.00000000000E+00  0.14379699158E+03  0.14379699158E+03  0.00000000000E+00 0.  1.
          2   -1    0    0  502    0  0.00000000000E+00 -0.00000000000E+00 -0.11178943868E+04  0.11178943868E+04  0.00000000000E+00 0. -1.
         23    2    1    2    0    0 -0.70104812006E+02 -0.15997130340E+03 -0.98465843831E+02  0.22013693858E+03  0.90880398057E+02 0.  0.
         24    2    1    2    0    0  0.38048108020E+02  0.19908376344E+03 -0.93700410870E+03  0.96203081058E+03  0.80278125190E+02 0.  0.
        -11    1    4    4    0    0  0.39186872410E+02  0.31277085066E+02 -0.22493761589E+03  0.23045780104E+03  0.00000000000E+00 0.  1.
         12    1    4    4    0    0 -0.11387643896E+01  0.16780667837E+03 -0.71206649282E+03  0.73157300954E+03  0.00000000000E+00 0. -1.
        -13    1    3    3    0    0 -0.14749682962E+02 -0.31850395601E+02 -0.69114078628E+02  0.77516170649E+02  0.00000000000E+00 0. -1.
         13    1    3    3    0    0 -0.55355129044E+02 -0.12812090780E+03 -0.29351765203E+02  0.14262076794E+03  0.00000000000E+00 0.  1.
         21    1    1    2  502  501  0.32056703986E+02 -0.39112460040E+02  0.61372557357E+02  0.79523629176E+02  0.00000000000E+00 0.  1.
<scales pt_clust_5="13000.00000" pt_clust_6="13000.00000" pt_clust_7="13000.00000" pt_clust_8="13000.00000" pt_clust_9="50.57091"></scales>
<clustering>
<clus scale="   50.571">  1  9  2 -1</clus>
<clus scale="   80.278">  5  6 -1 -1</clus>
<clus scale="   90.880">  7  8 -1 -1</clus>
<clus scale="  212.980">  2  5  1 -1</clus>
<clus scale="  212.980">  2  5  1 -1</clus>
</clustering>
</event>
<event>
 9    2  0.2869112E-005  0.1172628E+03  0.7546771E-02  0.1252547E+00
         -1   -1    0    0    0  501 -0.00000000000E+00  0.00000000000E+00  0.90722132046E+02  0.90722132046E+02  0.00000000000E+00 0.  1.
          2   -1    0    0  502    0  0.00000000000E+00 -0.00000000000E+00 -0.49983511216E+03  0.49983511216E+03  0.00000000000E+00 0. -1.
         23    2    1    2    0    0 -0.61993452121E+02  0.22616570954E+02 -0.63078825363E+01  0.11443688877E+03  0.93280838021E+02 0.  0.
         24    2    1    2    0    0  0.72057563548E+02 -0.13492940524E+01 -0.42826734942E+03  0.44145178646E+03  0.79200026061E+02 0.  0.
        -11    1    4    4    0    0  0.33561439623E+02  0.12546603931E+02 -0.53094719042E+02  0.64053389371E+02  0.00000000000E+00 0.  1.
         12    1    4    4    0    0  0.38496123924E+02 -0.13895897984E+02 -0.37517263038E+03  0.37739839709E+03  0.00000000000E+00 0. -1.
        -11    1    3    3    0    0 -0.68095268084E+02  0.51092961512E+02 -0.41051369984E+01  0.85230912240E+02  0.00000000000E+00 0.  1.
         11    1    3    3    0    0  0.61018159629E+01 -0.28476390558E+02 -0.22027455379E+01  0.29205976531E+02  0.00000000000E+00 0. -1.
         21    1    1    2  502  501 -0.10064111427E+02 -0.21267276902E+02  0.25462251846E+02  0.34668568974E+02  0.00000000000E+00 0. -1.
<scales pt_clust_5="13000.00000" pt_clust_6="13000.00000" pt_clust_7="13000.00000" pt_clust_8="13000.00000" pt_clust_9="23.52835"></scales>
<clustering>
<clus scale="   23.528">  1  9  2 -1</clus>
<clus scale="   79.200">  5  6 -1 -1</clus>
<clus scale="   93.281">  7  8 -1 -1</clus>
<clus scale="  106.404">  2  5  1 -1</clus>
<clus scale="  106.404">  2  5  1 -1</clus>
</clustering>
</event>
<event>
 9    2  0.2869112E-005  0.2666362E+03  0.7546771E-02  0.1145844E+00
         -1   -1    0    0    0  501 -0.00000000000E+00  0.00000000000E+00  0.17797685361E+04  0.17797685361E+04  0.00000000000E+00 0.  1.
          2   -1    0    0  502    0  0.00000000000E+00 -0.00000000000E+00 -0.85416679335E+02  0.85416679335E+02  0.00000000000E+00 0. -1.
         24    2    1    2    0    0  0.23524082422E+03  0.12496830352E+03  0.38799045762E+03  0.47773041536E+03  0.82063586885E+02 0.  0.
         23    2    1    2    0    0 -0.67365189999E+01 -0.22716954045E+02  0.47743830442E+02  0.10418252179E+03  0.89515829948E+02 0.  0.
        -13    1    3    3    0    0  0.50408274039E+02 -0.66020813284E+01  0.56152637788E+02  0.75747609203E+02  0.00000000000E+00 0.  1.
         14    1    3    3    0    0  0.18483255018E+03  0.13157038485E+03  0.33183781983E+03  0.40198280616E+03  0.00000000000E+00 0. -1.
        -11    1    4    4    0    0 -0.18733515597E+02  0.31682320698E+02  0.21199176492E+02  0.42474923606E+02  0.00000000000E+00 0.  1.
         11    1    4    4    0    0  0.11996996597E+02 -0.54399274743E+02  0.26544653950E+02  0.61707598181E+02  0.00000000000E+00 0. -1.
         21    1    1    2  502  501 -0.22850430522E+03 -0.10225134947E+03  0.12586175687E+04  0.12832722783E+04  0.00000000000E+00 0.  1.
<scales pt_clust_5="13000.00000" pt_clust_6="13000.00000" pt_clust_7="13000.00000" pt_clust_8="13000.00000" pt_clust_9="253.69353"></scales>
<clustering>
<clus scale="   82.064">  5  6 -1 -1</clus>
<clus scale="   89.516">  7  8 -1 -1</clus>
<clus scale="   92.599">  2  7  1 -1</clus>
<clus scale="  253.694">  1  9  2 -1</clus>
<clus scale="   92.599">  2  5  1 -1</clus>
</clustering>
</event>
<event>
 9    2  0.2869112E-005  0.9642305E+02  0.7546771E-02  0.1295891E+00
         -1   -1    0    0    0  501 -0.00000000000E+00  0.00000000000E+00  0.24695561294E+02  0.24695561294E+02  0.00000000000E+00 0.  1.
          2   -1    0    0  502    0  0.00000000000E+00 -0.00000000000E+00 -0.60554406427E+03  0.60554406427E+03  0.00000000000E+00 0. -1.
         23    2    1    2    0    0 -0.46897688327E+02  0.17453111234E+02 -0.19591195740E+03  0.22202421147E+03  0.91701969260E+02 0.  0.
         24    2    1    2    0    0  0.19678220909E+02 -0.12106052703E+02 -0.36540844394E+03  0.37429142266E+03  0.77697807419E+02 0.  0.
        -11    1    4    4    0    0  0.43315512370E+02  0.12597424513E+02 -0.24520982186E+03  0.24932465874E+03  0.00000000000E+00 0.  1.
         12    1    4    4    0    0 -0.23637291461E+02 -0.24703477216E+02 -0.12019862208E+03  0.12496676392E+03  0.00000000000E+00 0. -1.
        -13    1    3    3    0    0 -0.68187022881E+02  0.33507565319E+02 -0.12516134378E+03  0.14641580857E+03  0.00000000000E+00 0. -1.
         13    1    3    3    0    0  0.21289334554E+02 -0.16054454085E+02 -0.70750613619E+02  0.75608402901E+02  0.00000000000E+00 0.  1.
         21    1    1    2  502  501  0.27219467418E+02 -0.53470585309E+01 -0.19528101630E+02  0.33923991432E+02  0.00000000000E+00 0.  1.
<scales pt_clust_5="13000.00000" pt_clust_6="13000.00000" pt_clust_7="13000.00000" pt_clust_8="13000.00000" pt_clust_9="27.73969"></scales>
<clustering>
<clus scale="   27.740">  1  9  2 -1</clus>
<clus scale="   77.698">  5  6 -1 -1</clus>
<clus scale="   83.217">  2  5  1 -1</clus>
<clus scale="   91.702">  7  8 -1 -1</clus>
<clus scale="   83.217">  2  5  1 -1</clus>
</clustering>
</event>
<event>
 9    2  0.2869112E-005  0.1013479E+03  0.7546771E-02  0.1284254E+00
         -1   -1    0    0    0  501 -0.00000000000E+00  0.00000000000E+00  0.75258572884E+02  0.75258572884E+02  0.00000000000E+00 0.  1.
          2   -1    0    0  502    0  0.00000000000E+00 -0.00000000000E+00 -0.43683708132E+03  0.43683708132E+03  0.00000000000E+00 0. -1.
         24    2    1    2    0    0 -0.20287290975E+02 -0.78474733212E+01  0.11159522791E+02  0.82493022979E+02  0.78787098427E+02 0.  0.
         23    2    1    2    0    0  0.69478436680E+01  0.45628532859E+02 -0.37549575681E+03  0.38944102811E+03  0.92395970965E+02 0.  0.
        -11    1    3    3    0    0 -0.40906344818E+02 -0.26305373849E+02 -0.73685971112E+01  0.49189409055E+02  0.00000000000E+00 0.  1.
         12    1    3    3    0    0  0.20619053843E+02  0.18457900528E+02  0.18528119902E+02  0.33303613924E+02  0.00000000000E+00 0. -1.
        -11    1    4    4    0    0  0.86689807596E+01 -0.25717598793E+02 -0.16395963997E+03  0.16619058232E+03  0.00000000000E+00 0. -1.
         11    1    4    4    0    0 -0.17211370916E+01  0.71346131652E+02 -0.21153611685E+03  0.22325044579E+03  0.00000000000E+00 0.  1.
         21    1    1    2  502  501  0.13339447307E+02 -0.37781059538E+02  0.27577255853E+01  0.40161603113E+02  0.00000000000E+00 0.  1.
<scales pt_clust_5="13000.00000" pt_clust_6="13000.00000" pt_clust_7="13000.00000" pt_clust_8="13000.00000" pt_clust_9="40.06681"></scales>
<clustering>
<clus scale="   40.067">  1  9  2 -1</clus>
<clus scale="   78.787">  5  6 -1 -1</clus>
<clus scale="   89.117">  1  5  2 -1</clus>
<clus scale="   92.396">  7  8 -1 -1</clus>
<clus scale="  101.348">  2  5  1 -1</clus>
</clustering>
</event>
<event>
 9    2  0.2869112E-005  0.1057527E+03  0.7546771E-02  0.1272266E+00
         -1   -1    0    0    0  501 -0.00000000000E+00  0.00000000000E+00  0.33774475389E+02  0.33774475389E+02  0.00000000000E+00 0.  1.
          2   -1    0    0  502    0  0.00000000000E+00 -0.00000000000E+00 -0.13465119498E+04  0.13465119498E+04  0.00000000000E+00 0. -1.
         23    2    1    2    0    0  0.58887863586E+02 -0.31986910014E+02 -0.18737598490E+03  0.21908040003E+03  0.91627065177E+02 0.  0.
         24    2    1    2    0    0 -0.36816910815E+02  0.35569708371E+02 -0.11332781073E+04  0.11374860707E+04  0.83274265783E+02 0.  0.
        -11    1    4    4    0    0 -0.22449811852E+02  0.90610800484E+01 -0.75672892142E+02  0.79451141143E+02  0.00000000000E+00 0.  1.
         12    1    4    4    0    0 -0.14367098963E+02  0.26508628322E+02 -0.10576052152E+04  0.10580349295E+04  0.00000000000E+00 0. -1.
        -11    1    3    3    0    0  0.41048863014E+02 -0.47563112617E+02 -0.51732152746E+02  0.81384731150E+02  0.00000000000E+00 0.  1.
         11    1    3    3    0    0  0.17839000572E+02  0.15576202603E+02 -0.13564383215E+03  0.13769566888E+03  0.00000000000E+00 0. -1.
         21    1    1    2  502  501 -0.22070952771E+02 -0.35827983566E+01  0.79166178600E+01  0.23719954439E+02  0.00000000000E+00 0.  1.
<scales pt_clust_5="13000.00000" pt_clust_6="13000.00000" pt_clust_7="13000.00000" pt_clust_8="13000.00000" pt_clust_9="22.35986"></scales>
<clustering>
<clus scale="   22.360">  1  9  2 -1</clus>
<clus scale="   83.274">  5  6 -1 -1</clus>
<clus scale="   91.627">  7  8 -1 -1</clus>
<clus scale="   98.604">  2  5  1 -1</clus>
<clus scale="   98.604">  2  5  1 -1</clus>
</clustering>
</event>
<event>
 9    2  0.2869112E-005  0.1806595E+03  0.7546771E-02  0.1168564E+00
         -1   -1    0    0    0  501 -0.00000000000E+00  0.00000000000E+00  0.25905497616E+02  0.25905497616E+02  0.00000000000E+00 0.  1.
          2   -1    0    0  502    0  0.00000000000E+00 -0.00000000000E+00 -0.17804879948E+04  0.17804879948E+04  0.00000000000E+00 0. -1.
         23    2    1    2    0    0  0.86124659306E+02 -0.13718332197E+03 -0.42873384068E+03  0.46751874485E+03  0.92327405864E+02 0.  0.
         24    2    1    2    0    0 -0.79428748019E+02  0.11239184762E+03 -0.11875814128E+04  0.11982430189E+04  0.80596940828E+02 0.  0.
        -13    1    4    4    0    0 -0.22581706545E+02  0.72675743887E+02 -0.37116451151E+03  0.37888625183E+03  0.00000000000E+00 0.  1.
         14    1    4    4    0    0 -0.56847041474E+02  0.39716103735E+02 -0.81641690133E+03  0.81935676711E+03  0.00000000000E+00 0. -1.
        -11    1    3    3    0    0  0.30683839916E+02 -0.78843047775E+01 -0.17079790557E+03  0.17371121104E+03  0.00000000000E+00 0. -1.
         11    1    3    3    0    0  0.55440819390E+02 -0.12929901720E+03 -0.25793593511E+03  0.29380753381E+03  0.00000000000E+00 0.  1.
         21    1    1    2  502  501 -0.66959112870E+01  0.24791474353E+02 -0.13826724368E+03  0.14063172865E+03  0.00000000000E+00 0.  1.
<scales pt_clust_5="13000.00000" pt_clust_6="13000.00000" pt_clust_7="13000.00000" pt_clust_8="13000.00000" pt_clust_9="25.67981"></scales>
<clustering>
<clus scale="   25.680">  2  9  1 -1</clus>
<clus scale="   80.597">  5  6 -1 -1</clus>
<clus scale="   92.327">  7  8 -1 -1</clus>
<clus scale="  174.955">  2  5  1 -1</clus>
<clus scale="   25.680">  2  5  1 -1</clus>
</clustering>
</event>
<event>
 9    2  0.2869112E-005  0.1431696E+03  0.7546771E-02  0.1211286E+00
          2   -1    0    0  502    0  0.00000000000E+00  0.00000000000E+00  0.67168080181E+03  0.67168080181E+03  0.00000000000E+00 0. -1.
         -1   -1    0    0    0  501 -0.00000000000E+00 -0.00000000000E+00 -0.31279726088E+03  0.31279726088E+03  0.00000000000E+00 0.  1.
         23    2    1    2    0    0  0.75443897739E+02 -0.31017387663E+02  0.28720212127E+02  0.12581033632E+03  0.91375763185E+02 0.  0.
         24    2    1    2    0    0 -0.56300617686E+02  0.10409118451E+03  0.58010810593E+03  0.59755733483E+03  0.80898823279E+02 0.  0.
        -11    1    4    4    0    0 -0.15117170496E+02  0.59571624997E+02  0.13494025748E+03  0.14827737669E+03  0.00000000000E+00 0.  1.
         12    1    4    4    0    0 -0.41183447190E+02  0.44519559514E+02  0.44516784845E+03  0.44927995815E+03  0.00000000000E+00 0. -1.
        -11    1    3    3    0    0  0.16328175098E+02  0.12635773221E+02  0.45911097407E+02  0.50339854311E+02  0.00000000000E+00 0. -1.
         11    1    3    3    0    0  0.59115722640E+02 -0.43653160884E+02 -0.17190885280E+02  0.75470482012E+02  0.00000000000E+00 0.  1.
         21    1    1    2  502  501 -0.19143280053E+02 -0.73073796848E+02 -0.24994477712E+03  0.26111039153E+03  0.00000000000E+00 0.  1.
<scales pt_clust_5="13000.00000" pt_clust_6="13000.00000" pt_clust_7="13000.00000" pt_clust_8="13000.00000" pt_clust_9="75.53969"></scales>
<clustering>
<clus scale="   75.540">  2  9  1 -1</clus>
<clus scale="   80.899">  5  6 -1 -1</clus>
<clus scale="   91.376">  7  8 -1 -1</clus>
<clus scale="  136.721">  1  5  2 -1</clus>
<clus scale="  136.721">  1  5  2 -1</clus>
</clustering>
</event>
<event>
 9    2  0.2869112E-005  0.1133099E+03  0.7546771E-02  0.1257105E+00
          2   -1    0    0  502    0  0.00000000000E+00  0.00000000000E+00  0.70679973501E+03  0.70679973501E+03  0.00000000000E+00 0. -1.
         -1   -1    0    0    0  501 -0.00000000000E+00 -0.00000000000E+00 -0.11124644280E+03  0.11124644280E+03  0.00000000000E+00 0.  1.
         23    2    1    2    0    0  0.75043507538E+02  0.42168021573E+02 -0.59668859559E+02  0.13636901663E+03  0.87329638897E+02 0.  0.
         24    2    1    2    0    0 -0.52778067771E+02 -0.48490122425E+02  0.64884028075E+03  0.65766784955E+03  0.79977959385E+02 0.  0.
        -13    1    4    4    0    0 -0.34812405507E+02 -0.97381693043E+01  0.87066254993E+02  0.94272309175E+02  0.00000000000E+00 0.  1.
         14    1    4    4    0    0 -0.17965662265E+02 -0.38751953121E+02  0.56177402576E+03  0.56339554037E+03  0.00000000000E+00 0. -1.
        -13    1    3    3    0    0  0.91135565677E+02  0.17995065304E+02 -0.39129016427E+02  0.10079977001E+03  0.00000000000E+00 0.  1.
         13    1    3    3    0    0 -0.16092058139E+02  0.24172956269E+02 -0.20539843132E+02  0.35569246630E+02  0.00000000000E+00 0. -1.
         21    1    1    2  502  501 -0.22265439767E+02  0.63221008527E+01  0.63818710229E+01  0.24009311630E+02  0.00000000000E+00 0.  1.
<scales pt_clust_5="13000.00000" pt_clust_6="13000.00000" pt_clust_7="13000.00000" pt_clust_8="13000.00000" pt_clust_9="23.14560"></scales>
<clustering>
<clus scale="   23.146">  2  9  1 -1</clus>
<clus scale="   79.978">  5  6 -1 -1</clus>
<clus scale="   87.330">  7  8 -1 -1</clus>
<clus scale="  107.746">  1  5  2 -1</clus>
<clus scale="  107.746">  1  5  2 -1</clus>
</clustering>
</event>
<event>
 9    2  0.2869112E-005  0.1007218E+03  0.7546771E-02  0.1284843E+00
          2   -1    0    0  502    0  0.00000000000E+00  0.00000000000E+00  0.37387467030E+03  0.37387467030E+03  0.00000000000E+00 0. -1.
         -1   -1    0    0    0  501 -0.00000000000E+00 -0.00000000000E+00 -0.97459412727E+02  0.97459412727E+02  0.00000000000E+00 0.  1.
         24    2    1    2    0    0  0.44290297516E+02  0.19671584937E+02  0.57890437964E+02  0.10926112249E+03  0.78981569820E+02 0.  0.
         23    2    1    2    0    0 -0.17853505691E+02 -0.40130017460E+02  0.27688603648E+03  0.29481611660E+03  0.91222253021E+02 0.  0.
        -11    1    3    3    0    0  0.22196281410E+02 -0.72838199663E+01 -0.15486201562E+02  0.28027689533E+02  0.00000000000E+00 0.  1.
         12    1    3    3    0    0  0.22094016106E+02  0.26955404903E+02  0.73376639527E+02  0.81233432954E+02  0.00000000000E+00 0. -1.
        -11    1    4    4    0    0  0.13142864994E+02 -0.59801748204E+02  0.20711703330E+03  0.21597789116E+03  0.00000000000E+00 0.  1.
         11    1    4    4    0    0 -0.30996370685E+02  0.19671730744E+02  0.69769003179E+02  0.78838225441E+02  0.00000000000E+00 0. -1.
         21    1    1    2  502  501 -0.26436791825E+02  0.20458432523E+02 -0.58361216864E+02  0.67256843943E+02  0.00000000000E+00 0. -1.
<scales pt_clust_5="13000.00000" pt_clust_6="13000.00000" pt_clust_7="13000.00000" pt_clust_8="13000.00000" pt_clust_9="33.42830"></scales>
<clustering>
<clus scale="   33.428">  2  9  1 -1</clus>
<clus scale="   78.982">  5  6 -1 -1</clus>
<clus scale="   89.786">  2  5  1 -1</clus>
<clus scale="   91.222">  7  8 -1 -1</clus>
<clus scale="  100.722">  1  5  2 -1</clus>
</clustering>
</event>
<event>
 9    2  0.2869112E-005  0.1061030E+03  0.7546771E-02  0.1277470E+00
         -3   -1    0    0    0  501 -0.00000000000E+00  0.00000000000E+00  0.67073639061E+02  0.67073639061E+02  0.00000000000E+00 0.  1.
          4   -1    0    0  502    0  0.00000000000E+00 -0.00000000000E+00 -0.56100858190E+03  0.56100858190E+03  0.00000000000E+00 0. -1.
         23    2    1    2    0    0  0.21868951138E+02  0.53838806388E+02 -0.37049170548E+00  0.11443272204E+03  0.98579118038E+02 0.  0.
         24    2    1    2    0    0 -0.20836788571E+02 -0.31769765791E+02 -0.47947032122E+03  0.48744353757E+03  0.79157587148E+02 0.  0.
        -11    1    4    4    0    0  0.14842447582E+02 -0.13744318456E+02 -0.29903077952E+02  0.36102612247E+02  0.00000000000E+00 0.  1.
         12    1    4    4    0    0 -0.35679236152E+02 -0.18025447335E+02 -0.44956724327E+03  0.45134092532E+03  0.00000000000E+00 0. -1.
        -13    1    3    3    0    0  0.61110403869E+02  0.37425750570E+02 -0.37871329011E+01  0.71760090875E+02  0.00000000000E+00 0. -1.
         13    1    3    3    0    0 -0.39241452732E+02  0.16413055818E+02  0.34166411956E+01  0.42672631168E+02  0.00000000000E+00 0.  1.
         21    1    1    2  502  501 -0.10321625671E+01 -0.22069040597E+02 -0.14094129905E+02  0.26205961348E+02  0.00000000000E+00 0. -1.
<scales pt_clust_5="13000.00000" pt_clust_6="13000.00000" pt_clust_7="13000.00000" pt_clust_8="13000.00000" pt_clust_9="22.09316"></scales>
<clustering>
<clus scale="   22.093">  1  9  2 -1</clus>
<clus scale="   79.158">  5  6 -1 -1</clus>
<clus scale="   88.351">  2  5  1 -1</clus>
<clus scale="   98.579">  7  8 -1 -1</clus>
<clus scale="   88.351">  2  5  1 -1</clus>
</clustering>
</event>
<event>
 9    2  0.2869112E-005  0.1065252E+03  0.7546771E-02  0.1268450E+00
          2   -1    0    0  502    0  0.00000000000E+00  0.00000000000E+00  0.13631418995E+03  0.13631418995E+03  0.00000000000E+00 0. -1.
         -1   -1    0    0    0  501 -0.00000000000E+00 -0.00000000000E+00 -0.18006581399E+03  0.18006581399E+03  0.00000000000E+00 0.  1.
         24    2    1    2    0    0 -0.26231761505E+02 -0.81997058841E+02 -0.93428324327E+02  0.15121720462E+03  0.82013219761E+02 0.  0.
         23    2    1    2    0    0  0.31439755763E+02  0.50143013194E+02  0.71585044348E+02  0.12615281383E+03  0.85365882229E+02 0.  0.
        -13    1    3    3    0    0 -0.28218687415E+02 -0.82432727666E+02 -0.10672037180E+03  0.13777041289E+03  0.00000000000E+00 0.  1.
         14    1    3    3    0    0  0.19869259095E+01  0.43566882432E+00  0.13292047472E+02  0.13446791732E+02  0.00000000000E+00 0. -1.
        -13    1    4    4    0    0 -0.19148431139E+02  0.21002570639E+02 -0.60083397472E+01  0.29049449824E+02  0.00000000000E+00 0.  1.
         13    1    4    4    0    0  0.50588186902E+02  0.29140442555E+02  0.77593384095E+02  0.97103364008E+02  0.00000000000E+00 0. -1.
         21    1    1    2  502  501 -0.52079942578E+01  0.31854045647E+02 -0.21908344066E+02  0.39009985491E+02  0.00000000000E+00 0. -1.
<scales pt_clust_5="13000.00000" pt_clust_6="13000.00000" pt_clust_7="13000.00000" pt_clust_8="13000.00000" pt_clust_9="32.27698"></scales>
<clustering>
<clus scale="   32.277">  2  9  1 -1</clus>
<clus scale="   82.013">  5  6 -1 -1</clus>
<clus scale="   85.366">  7  8 -1 -1</clus>
<clus scale="  103.858">  2  5  1 -1</clus>
<clus scale="  106.525">  1  5  2 -1</clus>
</clustering>
</event>
<event>
 9    2  0.2869112E-005  0.9911023E+02  0.7546771E-02  0.1287535E+00
         -1   -1    0    0    0  501 -0.00000000000E+00  0.00000000000E+00  0.15312347070E+03  0.15312347070E+03  0.00000000000E+00 0.  1.
          2   -1    0    0  502    0  0.00000000000E+00 -0.00000000000E+00 -0.16827438713E+03  0.16827438713E+03  0.00000000000E+00 0. -1.
         23    2    1    2    0    0  0.81549988878E+01 -0.19146151262E+02  0.98835934996E+02  0.13575169936E+03  0.90702275150E+02 0.  0.
         24    2    1    2    0    0 -0.20602963442E+02  0.36925034324E+02 -0.13013795995E+03  0.15859253004E+03  0.80173322891E+02 0.  0.
        -11    1    4    4    0    0  0.27717025301E+02  0.80115288761E+00 -0.59863974503E+02  0.65974015952E+02  0.00000000000E+00 0.  1.
         12    1    4    4    0    0 -0.48319988743E+02  0.36123881436E+02 -0.70273985445E+02  0.92618514091E+02  0.00000000000E+00 0. -1.
        -13    1    3    3    0    0  0.46631533410E+02  0.37198298090E+01  0.38254401454E+02  0.60429597653E+02  0.00000000000E+00 0. -1.
         13    1    3    3    0    0 -0.38476534522E+02 -0.22865981071E+02  0.60581533542E+02  0.75322101706E+02  0.00000000000E+00 0.  1.
         21    1    1    2  502  501  0.12447964554E+02 -0.17778883062E+02  0.16151108527E+02  0.27053628428E+02  0.00000000000E+00 0.  1.
<scales pt_clust_5="13000.00000" pt_clust_6="13000.00000" pt_clust_7="13000.00000" pt_clust_8="13000.00000" pt_clust_9="21.70347"></scales>
<clustering>
<clus scale="   21.703">  1  9  2 -1</clus>
<clus scale="   80.173">  5  6 -1 -1</clus>
<clus scale="   89.575">  2  5  1 -1</clus>
<clus scale="   90.702">  7  8 -1 -1</clus>
<clus scale="   89.575">  2  5  1 -1</clus>
</clustering>
</event>
<event>
 9    2  0.2869112E-005  0.1478053E+03  0.7546771E-02  0.1206459E+00
          2   -1    0    0  502    0  0.00000000000E+00  0.00000000000E+00  0.49901531891E+03  0.49901531891E+03  0.00000000000E+00 0. -1.
         -1   -1    0    0    0  501 -0.00000000000E+00 -0.00000000000E+00 -0.44215311724E+03  0.44215311724E+03  0.00000000000E+00 0.  1.
         24    2    1    2    0    0  0.11563180030E+03  0.10400222452E+03 -0.21760634544E+03  0.27935055701E+03  0.80604194531E+02 0.  0.
         23    2    1    2    0    0 -0.50315697668E+02 -0.97967618440E+02  0.45061114313E+03  0.47385824555E+03  0.96756968042E+02 0.  0.
        -11    1    3    3    0    0  0.89177397362E+02  0.26221078512E+02 -0.11186218784E+03  0.14544174857E+03  0.00000000000E+00 0.  1.
         12    1    3    3    0    0  0.26454402939E+02  0.77781146013E+02 -0.10574415760E+03  0.13390880843E+03  0.00000000000E+00 0. -1.
        -13    1    4    4    0    0 -0.30602994879E+02 -0.87698469701E+02  0.43912038706E+03  0.44883658409E+03  0.00000000000E+00 0. -1.
         13    1    4    4    0    0 -0.19712702788E+02 -0.10269148739E+02  0.11490756067E+02  0.25021661457E+02  0.00000000000E+00 0.  1.
         21    1    1    2  502  501 -0.65316102634E+02 -0.60346060841E+01 -0.17614259601E+03  0.18795963360E+03  0.00000000000E+00 0. -1.
<scales pt_clust_5="13000.00000" pt_clust_6="13000.00000" pt_clust_7="13000.00000" pt_clust_8="13000.00000" pt_clust_9="65.59428"></scales>
<clustering>
<clus scale="   65.594">  2  9  1 -1</clus>
<clus scale="   80.604">  5  6 -1 -1</clus>
<clus scale="   96.757">  7  8 -1 -1</clus>
<clus scale="  137.773">  2  5  1 -1</clus>
<clus scale="  147.805">  1  5  2 -1</clus>
</clustering>
</event>
<event>
 9    2  0.2869112E-005  0.1244732E+03  0.7546771E-02  0.1241045E+00
         -1   -1    0    0    0  501 -0.00000000000E+00  0.00000000000E+00  0.23540528316E+02  0.23540528316E+02  0.00000000000E+00 0.  1.
          2   -1    0    0  502    0  0.00000000000E+00 -0.00000000000E+00 -0.99818732302E+03  0.99818732302E+03  0.00000000000E+00 0. -1.
         23    2    1    2    0    0 -0.83630826249E+02 -0.57268280013E+01 -0.21693028537E+03  0.24936694707E+03  0.89990076804E+02 0.  0.
         24    2    1    2    0    0  0.61236666550E+02  0.29174999680E+01 -0.69815743276E+03  0.70866887718E+03  0.10502064283E+03 0.  0.
        -13    1    4    4    0    0 -0.29521729665E+01  0.25925573802E+02 -0.45436037724E+02  0.52395459977E+02  0.00000000000E+00 0.  1.
         14    1    4    4    0    0  0.64188839517E+02 -0.23008073834E+02 -0.65272139504E+03  0.65627341720E+03  0.00000000000E+00 0. -1.
        -11    1    3    3    0    0 -0.53561933193E+02 -0.46032030078E+02 -0.10361264031E+03  0.12539301301E+03  0.00000000000E+00 0.  1.
         11    1    3    3    0    0 -0.30068893056E+02  0.40305202076E+02 -0.11331764506E+03  0.12397393406E+03  0.00000000000E+00 0. -1.
         21    1    1    2  502  501  0.22394159698E+02  0.28093280332E+01 -0.59559076570E+02  0.63692027088E+02  0.00000000000E+00 0. -1.
<scales pt_clust_5="13000.00000" pt_clust_6="13000.00000" pt_clust_7="13000.00000" pt_clust_8="13000.00000" pt_clust_9="22.56969"></scales>
<clustering>
<clus scale="   22.570">  1  9  2 -1</clus>
<clus scale="   89.990">  7  8 -1 -1</clus>
<clus scale="  105.021">  5  6 -1 -1</clus>
<clus scale="  112.082">  1  7  2 -1</clus>
<clus scale="  124.473">  2  5  1 -1</clus>
</clustering>
</event>
<event>
 9    2  0.2869112E-005  0.1333352E+03  0.7546771E-02  0.1244878E+00
         -1   -1    0    0    0  501 -0.00000000000E+00  0.00000000000E+00  0.18037188299E+03  0.18037188299E+03  0.00000000000E+00 0.  1.
          2   -1    0    0  502    0  0.00000000000E+00 -0.00000000000E+00 -0.82121233992E+03  0.82121233992E+03  0.00000000000E+00 0. -1.
         23    2    1    2    0    0 -0.16912043866E+02 -0.77346621762E+02 -0.15289403874E+03  0.19583952876E+03  0.93316755296E+02 0.  0.
         24    2    1    2    0    0  0.18699009500E+02 -0.19430586251E+02 -0.62902121556E+03  0.63465664754E+03  0.79963554246E+02 0.  0.
        -13    1    4    4    0    0 -0.10285853609E+02 -0.18708804848E+02 -0.43887405334E+02  0.48804943503E+02  0.00000000000E+00 0.  1.
         14    1    4    4    0    0  0.28984863108E+02 -0.72178140269E+00 -0.58513381023E+03  0.58585170404E+03  0.00000000000E+00 0. -1.
        -11    1    3    3    0    0  0.33715592228E+01  0.21301636880E+02 -0.30063795871E+02  0.36999445503E+02  0.00000000000E+00 0.  1.
         11    1    3    3    0    0 -0.20283603089E+02 -0.98648258642E+02 -0.12283024287E+03  0.15884008326E+03  0.00000000000E+00 0. -1.
         21    1    1    2  502  501 -0.17869656332E+01  0.96777208013E+02  0.14107479737E+03  0.17108804661E+03  0.00000000000E+00 0.  1.
<scales pt_clust_5="13000.00000" pt_clust_6="13000.00000" pt_clust_7="13000.00000" pt_clust_8="13000.00000" pt_clust_9="95.23795"></scales>
<clustering>
<clus scale="   79.964">  5  6 -1 -1</clus>
<clus scale="   84.388">  2  5  1 -1</clus>
<clus scale="   93.317">  7  8 -1 -1</clus>
<clus scale="   95.238">  1  9  2 -1</clus>
<clus scale="   84.388">  2  5  1 -1</clus>
</clustering>
</event>
<event>
 9    2  0.2869112E-005  0.1518787E+03  0.7546771E-02  0.1211597E+00
          2   -1    0    0  502    0  0.00000000000E+00  0.00000000000E+00  0.88240300901E+02  0.88240300901E+02  0.00000000000E+00 0. -1.
         -1   -1    0    0    0  501 -0.00000000000E+00 -0.00000000000E+00 -0.47685739839E+03  0.47685739839E+03  0.00000000000E+00 0.  1.
         23    2    1    2    0    0 -0.28105653159E+02 -0.10700402735E+03 -0.84800841458E+02  0.16659016306E+03  0.91221215233E+02 0.  0.
         24    2    1    2    0    0  0.85352295975E+02 -0.15929868219E+02 -0.88893256091E+02  0.14437800883E+03  0.73513422750E+02 0.  0.
        -13    1    4    4    0    0  0.72412487544E+02 -0.32983537035E+02 -0.93194898829E+02  0.12254293629E+03  0.00000000000E+00 0.  1.
         14    1    4    4    0    0  0.12939808431E+02  0.17053668815E+02  0.43016427373E+01  0.21835072533E+02  0.00000000000E+00 0. -1.
        -11    1    3    3    0    0 -0.59882063673E+02 -0.79252812835E+02 -0.71377321240E+02  0.12231758614E+03  0.00000000000E+00 0.  1.
         11    1    3    3    0    0  0.31776410514E+02 -0.27751214516E+02 -0.13423520218E+02  0.44272576922E+02  0.00000000000E+00 0. -1.
         21    1    1    2  502  501 -0.57246642815E+02  0.12293389557E+03 -0.21492299994E+03  0.25412952740E+03  0.00000000000E+00 0.  1.
<scales pt_clust_5="13000.00000" pt_clust_6="13000.00000" pt_clust_7="13000.00000" pt_clust_8="13000.00000" pt_clust_9="121.43238"></scales>
<clustering>
<clus scale="   73.513">  5  6 -1 -1</clus>
<clus scale="   91.221">  7  8 -1 -1</clus>
<clus scale="  113.767">  1  5  2 -1</clus>
<clus scale="  121.432">  2  9  1 -1</clus>
<clus scale="  113.767">  1  5  2 -1</clus>
</clustering>
</event>
<event>
 9    2  0.2869112E-005  0.1021005E+03  0.7546771E-02  0.1280918E+00
          2   -1    0    0  502    0  0.00000000000E+00  0.00000000000E+00  0.79539152347E+02  0.79539152347E+02  0.00000000000E+00 0. -1.
         -1   -1    0    0    0  501 -0.00000000000E+00 -0.00000000000E+00 -0.39811498831E+03  0.39811498831E+03  0.00000000000E+00 0.  1.
         24    2    1    2    0    0 -0.10982483420E+02  0.50199645840E+02 -0.10928810133E+03  0.14506511829E+03  0.80370268569E+02 0.  0.
         23    2    1    2    0    0  0.37936296895E+02 -0.29258507634E+02  0.16646032965E+02  0.10409152419E+03  0.90899571522E+02 0.  0.
        -11    1    3    3    0    0  0.20312036587E+02  0.98387520624E+01 -0.86039730399E+02  0.88950632822E+02  0.00000000000E+00 0.  1.
         12    1    3    3    0    0 -0.31294520007E+02  0.40360893778E+02 -0.23248370927E+02  0.56114485472E+02  0.00000000000E+00 0. -1.
        -11    1    4    4    0    0  0.29602363860E+02 -0.54689362443E+02 -0.13650903543E+02  0.63667680012E+02  0.00000000000E+00 0. -1.
         11    1    4    4    0    0  0.83339330355E+01  0.25430854809E+02  0.30296936507E+02  0.40423844175E+02  0.00000000000E+00 0.  1.
         21    1    1    2  502  501 -0.26953813475E+02 -0.20941138206E+02 -0.22593376760E+03  0.22849749817E+03  0.00000000000E+00 0.  1.
<scales pt_clust_5="13000.00000" pt_clust_6="13000.00000" pt_clust_7="13000.00000" pt_clust_8="13000.00000" pt_clust_9="34.13267"></scales>
<clustering>
<clus scale="   34.133">  2  9  1 -1</clus>
<clus scale="   80.370">  5  6 -1 -1</clus>
<clus scale="   90.900">  7  8 -1 -1</clus>
<clus scale="   92.850">  2  5  1 -1</clus>
<clus scale="  102.101">  1  5  2 -1</clus>
</clustering>
</event>
<event>
 9    2  0.2869112E-005  0.1220588E+03  0.7546771E-02  0.1242971E+00
         -1   -1    0    0    0  501 -0.00000000000E+00  0.00000000000E+00  0.22444852417E+03  0.22444852417E+03  0.00000000000E+00 0.  1.
          2   -1    0    0  502    0  0.00000000000E+00 -0.00000000000E+00 -0.89170464691E+02  0.89170464691E+02  0.00000000000E+00 0. -1.
         23    2    1    2    0    0 -0.87699029065E+02  0.37705887089E+02  0.58695824971E+02  0.14533853258E+03  0.92548557872E+02 0.  0.
         24    2    1    2    0    0  0.64697456279E+02 -0.24288056007E+02  0.24903331329E+02  0.11014424058E+03  0.82072573425E+02 0.  0.
        -13    1    4    4    0    0  0.45535821669E+02  0.26670799177E+02  0.14357625491E+02  0.54689889317E+02  0.00000000000E+00 0.  1.
         14    1    4    4    0    0  0.19161634610E+02 -0.50958855184E+02  0.10545705838E+02  0.55454351265E+02  0.00000000000E+00 0. -1.
        -11    1    3    3    0    0 -0.12330067400E+02 -0.18322406719E+02  0.45403137846E+02  0.50489465004E+02  0.00000000000E+00 0.  1.
         11    1    3    3    0    0 -0.75368961666E+02  0.56028293808E+02  0.13292687125E+02  0.94849067579E+02  0.00000000000E+00 0. -1.
         21    1    1    2  502  501  0.23001572787E+02 -0.13417831082E+02  0.51678903183E+02  0.58136215699E+02  0.00000000000E+00 0.  1.
<scales pt_clust_5="13000.00000" pt_clust_6="13000.00000" pt_clust_7="13000.00000" pt_clust_8="13000.00000" pt_clust_9="26.62913"></scales>
<clustering>
<clus scale="   26.629">  1  9  2 -1</clus>
<clus scale="   82.073">  5  6 -1 -1</clus>
<clus scale="   92.549">  7  8 -1 -1</clus>
<clus scale="  114.320">  2  5  1 -1</clus>
<clus scale="  114.320">  2  5  1 -1</clus>
</clustering>
</event>
<event>
 9    2  0.2869112E-005  0.1051270E+03  0.7546771E-02  0.1274810E+00
          2   -1    0    0  502    0  0.00000000000E+00  0.00000000000E+00  0.37718669478E+03  0.37718669478E+03  0.00000000000E+00 0. -1.
         -1   -1    0    0    0  501 -0.00000000000E+00 -0.00000000000E+00 -0.60775807039E+02  0.60775807039E+02  0.00000000000E+00 0.  1.
         23    2    1    2    0    0 -0.15652895037E+02 -0.71292381582E+01  0.47471345635E+02  0.10483818116E+03  0.91878596058E+02 0.  0.
         24    2    1    2    0    0  0.62812973387E+02 -0.12267985314E+01  0.26615215473E+03  0.28514864069E+03  0.80782443400E+02 0.  0.
        -11    1    4    4    0    0  0.65897372980E+02  0.27275692987E+02  0.21487058867E+03  0.22639743167E+03  0.00000000000E+00 0.  1.
         12    1    4    4    0    0 -0.30843995927E+01 -0.28502491518E+02  0.51281566059E+02  0.58751209018E+02  0.00000000000E+00 0. -1.
        -11    1    3    3    0    0 -0.36409506117E+02 -0.31954414454E+02  0.13054226429E+01  0.48460714677E+02  0.00000000000E+00 0. -1.
         11    1    3    3    0    0  0.20756611080E+02  0.24825176296E+02  0.46165922993E+02  0.56377466486E+02  0.00000000000E+00 0.  1.
         21    1    1    2  502  501 -0.47160078350E+02  0.83560366896E+01  0.27873873733E+01  0.47975679959E+02  0.00000000000E+00 0. -1.
<scales pt_clust_5="13000.00000" pt_clust_6="13000.00000" pt_clust_7="13000.00000" pt_clust_8="13000.00000" pt_clust_9="47.89464"></scales>
<clustering>
<clus scale="   47.895">  2  9  1 -1</clus>
<clus scale="   80.782">  5  6 -1 -1</clus>
<clus scale="   91.879">  7  8 -1 -1</clus>
<clus scale="   95.581">  1  5  2 -1</clus>
<clus scale="   95.581">  1  5  2 -1</clus>
</clustering>
</event>
<event>
 9    2  0.2869112E-005  0.1516713E+03  0.7546771E-02  0.1200246E+00
         -1   -1    0    0    0  501 -0.00000000000E+00  0.00000000000E+00  0.54675844603E+02  0.54675844603E+02  0.00000000000E+00 0.  1.
          2   -1    0    0  502    0  0.00000000000E+00 -0.00000000000E+00 -0.50159876649E+03  0.50159876649E+03  0.00000000000E+00 0. -1.
         23    2    1    2    0    0 -0.31177972613E+02  0.12524290264E+03 -0.13931953444E+03  0.21084112154E+03  0.91576171682E+02 0.  0.
         24    2    1    2    0    0  0.30745655813E+02 -0.10324122738E+03 -0.26837048076E+03  0.30045036406E+03  0.81508649458E+02 0.  0.
        -11    1    4    4    0    0  0.71407706938E+01 -0.19136957410E+02 -0.24772071648E+01  0.20575478132E+02  0.00000000000E+00 0.  1.
         12    1    4    4    0    0  0.23604885119E+02 -0.84104269971E+02 -0.26589327360E+03  0.27987488593E+03  0.00000000000E+00 0. -1.
        -11    1    3    3    0    0  0.23356123388E+02  0.42092374278E+02 -0.12591985112E+02  0.49757758804E+02  0.00000000000E+00 0.  1.
         11    1    3    3    0    0 -0.54534096002E+02  0.83150528358E+02 -0.12672754932E+03  0.16108336274E+03  0.00000000000E+00 0. -1.
         21    1    1    2  502  501  0.43231680051E+00 -0.22001675256E+02 -0.39232906693E+02  0.44983125497E+02  0.00000000000E+00 0.  1.
<scales pt_clust_5="13000.00000" pt_clust_6="13000.00000" pt_clust_7="13000.00000" pt_clust_8="13000.00000" pt_clust_9="22.00592"></scales>
<clustering>
<clus scale="   22.006">  2  9  1 -1</clus>
<clus scale="   81.509">  5  6 -1 -1</clus>
<clus scale="   91.576">  7  8 -1 -1</clus>
<clus scale="  145.814">  2  5  1 -1</clus>
<clus scale="   22.006">  2  5  1 -1</clus>
</clustering>
</event>
<event>
 9    2  0.2869112E-005  0.1018385E+03  0.7546771E-02  0.1281189E+00
          2   -1    0    0  502    0  0.00000000000E+00  0.00000000000E+00  0.98268120629E+02  0.98268120629E+02  0.00000000000E+00 0. -1.
         -1   -1    0    0    0  501 -0.00000000000E+00 -0.00000000000E+00 -0.15455102763E+03  0.15455102763E+03  0.00000000000E+00 0.  1.
         23    2    1    2    0    0 -0.48220758560E+02  0.20220093068E+02 -0.90585562539E+02  0.13850599878E+03  0.90796882314E+02 0.  0.
         24    2    1    2    0    0  0.26317268419E+02 -0.15838365008E+02  0.30099922615E+02  0.91583754746E+02  0.80858681469E+02 0.  0.
        -13    1    4    4    0    0 -0.24296583347E+02 -0.22484621966E+01 -0.92014371753E+01  0.26077691437E+02  0.00000000000E+00 0.  1.
         14    1    4    4    0    0  0.50613851765E+02 -0.13589902812E+02  0.39301359790E+02  0.65506063310E+02  0.00000000000E+00 0. -1.
        -13    1    3    3    0    0 -0.59976828091E+02  0.36649809352E+02 -0.94654471778E+02  0.11789782636E+03  0.00000000000E+00 0.  1.
         13    1    3    3    0    0  0.11756069531E+02 -0.16429716284E+02  0.40689092393E+01  0.20608172418E+02  0.00000000000E+00 0. -1.
         21    1    1    2  502  501  0.21903490141E+02 -0.43817280596E+01  0.42027329186E+01  0.22729394737E+02  0.00000000000E+00 0. -1.
<scales pt_clust_5="13000.00000" pt_clust_6="13000.00000" pt_clust_7="13000.00000" pt_clust_8="13000.00000" pt_clust_9="22.33747"></scales>
<clustering>
<clus scale="   22.337">  1  9  2 -1</clus>
<clus scale="   80.859">  5  6 -1 -1</clus>
<clus scale="   90.797">  7  8 -1 -1</clus>
<clus scale="   93.087">  1  5  2 -1</clus>
<clus scale="   22.337">  1  5  2 -1</clus>
</clustering>
</event>
<event>
 9    2  0.2869112E-005  0.1135581E+03  0.7546771E-02  0.1256900E+00
         -1   -1    0    0    0  501 -0.00000000000E+00  0.00000000000E+00  0.48015103927E+03  0.48015103927E+03  0.00000000000E+00 0.  1.
          2   -1    0    0  502    0  0.00000000000E+00 -0.00000000000E+00 -0.38464094086E+03  0.38464094086E+03  0.00000000000E+00 0. -1.
         24    2    1    2    0    0  0.81968883140E+01  0.27979286096E+02  0.87600546110E+02  0.12244302994E+03  0.80426428950E+02 0.  0.
         23    2    1    2    0    0  0.47195659402E+02 -0.59695550202E+02 -0.35510292062E+03  0.37376746497E+03  0.88391428631E+02 0.  0.
        -13    1    3    3    0    0  0.30711974372E+02  0.37211279529E+02  0.23076835826E+02  0.53483128608E+02  0.00000000000E+00 0.  1.
         14    1    3    3    0    0 -0.22515086058E+02 -0.92319934325E+01  0.64523710284E+02  0.68959901332E+02  0.00000000000E+00 0. -1.
        -13    1    4    4    0    0 -0.20169982808E+02 -0.32003212251E+02 -0.18330237687E+03  0.18716515479E+03  0.00000000000E+00 0. -1.
         13    1    4    4    0    0  0.67365642210E+02 -0.27692337951E+02 -0.17180054375E+03  0.18660231018E+03  0.00000000000E+00 0.  1.
         21    1    1    2  502  501 -0.55392547716E+02  0.31716264106E+02  0.36301247292E+03  0.36858148522E+03  0.00000000000E+00 0.  1.
<scales pt_clust_5="13000.00000" pt_clust_6="13000.00000" pt_clust_7="13000.00000" pt_clust_8="13000.00000" pt_clust_9="63.82990"></scales>
<clustering>
<clus scale="   63.830">  1  9  2 -1</clus>
<clus scale="   80.426">  5  6 -1 -1</clus>
<clus scale="   88.391">  7  8 -1 -1</clus>
<clus scale="  107.475">  1  5  2 -1</clus>
<clus scale="  113.558">  2  5  1 -1</clus>
</clustering>
</event>
<event>
 9    2  0.2869112E-005  0.1607348E+03  0.7546771E-02  0.1207795E+00
          2   -1    0    0  502    0  0.00000000000E+00  0.00000000000E+00  0.52707619190E+03  0.52707619190E+03  0.00000000000E+00 0. -1.
         -1   -1    0    0    0  501 -0.00000000000E+00 -0.00000000000E+00 -0.15568449005E+03  0.15568449005E+03  0.00000000000E+00 0.  1.
         23    2    1    2    0    0 -0.79010174076E+02 -0.51649266958E+02  0.69968737054E+02  0.14913591659E+03  0.91845756943E+02 0.  0.
         24    2    1    2    0    0 -0.64636113279E+02  0.47758092544E+01  0.35758071032E+03  0.37242591520E+03  0.81464485678E+02 0.  0.
        -13    1    4    4    0    0  0.98956505239E+01 -0.22449709846E+02  0.95103932477E+02  0.98217469648E+02  0.00000000000E+00 0.  1.
         14    1    4    4    0    0 -0.74531763803E+02  0.27225519101E+02  0.26247677785E+03  0.27420844556E+03  0.00000000000E+00 0. -1.
        -11    1    3    3    0    0  0.16883704517E+02 -0.27573509835E+02  0.11765008381E+02  0.34406007398E+02  0.00000000000E+00 0.  1.
         11    1    3    3    0    0 -0.95893878593E+02 -0.24075757123E+02  0.58203728673E+02  0.11472990920E+03  0.00000000000E+00 0. -1.
         21    1    1    2  502  501  0.14364628735E+03  0.46873457704E+02 -0.56157745524E+02  0.16119885015E+03  0.00000000000E+00 0.  1.
<scales pt_clust_5="13000.00000" pt_clust_6="13000.00000" pt_clust_7="13000.00000" pt_clust_8="13000.00000" pt_clust_9="131.90923"></scales>
<clustering>
<clus scale="   81.464">  5  6 -1 -1</clus>
<clus scale="   91.846">  7  8 -1 -1</clus>
<clus scale="  104.101">  1  5  2 -1</clus>
<clus scale="  131.909">  2  9  1 -1</clus>
<clus scale="  104.101">  1  5  2 -1</clus>
</clustering>
</event>
<event>
 9    2  0.2869112E-005  0.9906033E+02  0.7546771E-02  0.1287202E+00
         -1   -1    0    0    0  501 -0.00000000000E+00  0.00000000000E+00  0.42066161538E+03  0.42066161538E+03  0.00000000000E+00 0.  1.
          2   -1    0    0  502    0  0.00000000000E+00 -0.00000000000E+00 -0.16097394097E+03  0.16097394097E+03  0.00000000000E+00 0. -1.
         23    2    1    2    0    0  0.67413774556E+00  0.41598780751E+02  0.38496349374E+03  0.39758186131E+03  0.90241519886E+02 0.  0.
         24    2    1    2    0    0  0.13618882816E+02 -0.23614343886E+02 -0.13466098863E+03  0.15923813926E+03  0.80499018198E+02 0.  0.
        -11    1    4    4    0    0  0.35922094888E+02 -0.23774672535E+01 -0.21435370878E+02  0.41898978226E+02  0.00000000000E+00 0.  1.
         12    1    4    4    0    0 -0.22303212072E+02 -0.21236876633E+02 -0.11322561775E+03  0.11733916103E+03  0.00000000000E+00 0. -1.
        -13    1    3    3    0    0  0.11516234234E+01  0.61945188621E+02  0.36038092414E+03  0.36566780432E+03  0.00000000000E+00 0.  1.
         13    1    3    3    0    0 -0.47748567786E+00 -0.20346407870E+02  0.24582569594E+02  0.31914056991E+02  0.00000000000E+00 0. -1.
         21    1    1    2  502  501 -0.14293020562E+02 -0.17984436865E+02  0.93851692994E+01  0.24815555785E+02  0.00000000000E+00 0. -1.
<scales pt_clust_5="13000.00000" pt_clust_6="13000.00000" pt_clust_7="13000.00000" pt_clust_8="13000.00000" pt_clust_9="22.97238"></scales>
<clustering>
<clus scale="   22.972">  2  9  1 -1</clus>
<clus scale="   80.499">  5  6 -1 -1</clus>
<clus scale="   90.242">  7  8 -1 -1</clus>
<clus scale="   90.275">  2  5  1 -1</clus>
<clus scale="   22.972">  2  5  1 -1</clus>
</clustering>
</event>
<event>
 9    2  0.2869112E-005  0.1173372E+03  0.7546771E-02  0.1249867E+00
          2   -1    0    0  502    0  0.00000000000E+00  0.00000000000E+00  0.74955852197E+03  0.74955852197E+03  0.00000000000E+00 0. -1.
         -1   -1    0    0    0  501 -0.00000000000E+00 -0.00000000000E+00 -0.91256629345E+02  0.91256629345E+02  0.00000000000E+00 0.  1.
         23    2    1    2    0    0  0.52317949343E+02  0.20391409991E+02  0.39377134036E+02  0.11101003178E+03  0.87290841709E+02 0.  0.
         24    2    1    2    0    0 -0.70567344453E+02 -0.40803910369E+02  0.66579541736E+03  0.67552280890E+03  0.80017612847E+02 0.  0.
        -13    1    4    4    0    0 -0.58474138137E+01 -0.39676627976E+02  0.13607003661E+03  0.14185725896E+03  0.00000000000E+00 0.  1.
         14    1    4    4    0    0 -0.64719930639E+02 -0.11272823922E+01  0.52972538075E+03  0.53366554994E+03  0.00000000000E+00 0. -1.
        -13    1    3    3    0    0 -0.71956420148E+01  0.38719069258E+02  0.26367092317E+02  0.47393745847E+02  0.00000000000E+00 0. -1.
         13    1    3    3    0    0  0.59513591358E+02 -0.18327659266E+02  0.13010041719E+02  0.63616285934E+02  0.00000000000E+00 0.  1.
         21    1    1    2  502  501  0.18249395109E+02  0.20412500377E+02 -0.46870658772E+02  0.54282310629E+02  0.00000000000E+00 0.  1.
<scales pt_clust_5="13000.00000" pt_clust_6="13000.00000" pt_clust_7="13000.00000" pt_clust_8="13000.00000" pt_clust_9="27.38084"></scales>
<clustering>
<clus scale="   27.381">  2  9  1 -1</clus>
<clus scale="   80.018">  5  6 -1 -1</clus>
<clus scale="   87.291">  7  8 -1 -1</clus>
<clus scale="  112.032">  1  5  2 -1</clus>
<clus scale="  112.032">  1  5  2 -1</clus>
</clustering>
</event>
<event>
 9    2  0.2869112E-005  0.1447090E+03  0.7546771E-02  0.1212187E+00
         -3   -1    0    0    0  501 -0.00000000000E+00  0.00000000000E+00  0.12290655672E+03  0.12290655672E+03  0.00000000000E+00 0.  1.
          4   -1    0    0  502    0  0.00000000000E+00 -0.00000000000E+00 -0.27012990492E+03  0.27012990492E+03  0.00000000000E+00 0. -1.
         23    2    1    2    0    0 -0.86733028432E+02  0.38392598600E+02  0.26076197429E+02  0.14219371418E+03  0.10267655249E+03 0.  0.
         24    2    1    2    0    0  0.81979909057E+02 -0.64664099129E+02 -0.18020395773E+03  0.22326640271E+03  0.80450413269E+02 0.  0.
        -11    1    4    4    0    0  0.59795183240E+02 -0.40219625974E+01 -0.50470316096E+02  0.78351087603E+02  0.00000000000E+00 0.  1.
         12    1    4    4    0    0  0.22184725817E+02 -0.60642136531E+02 -0.12973364163E+03  0.14491531511E+03  0.00000000000E+00 0. -1.
        -13    1    3    3    0    0 -0.47820458512E+01  0.30782140347E+02  0.47815214075E+02  0.57067528630E+02  0.00000000000E+00 0.  1.
         13    1    3    3    0    0 -0.81950982581E+02  0.76104582530E+01 -0.21739016647E+02  0.85126185546E+02  0.00000000000E+00 0. -1.
         21    1    1    2  502  501  0.47531193756E+01  0.26271500529E+02  0.69044120975E+01  0.27576344759E+02  0.00000000000E+00 0.  1.
<scales pt_clust_5="13000.00000" pt_clust_6="13000.00000" pt_clust_7="13000.00000" pt_clust_8="13000.00000" pt_clust_9="26.69801"></scales>
<clustering>
<clus scale="   26.698">  1  9  2 -1</clus>
<clus scale="   80.450">  5  6 -1 -1</clus>
<clus scale="  102.677">  7  8 -1 -1</clus>
<clus scale="  129.886">  2  5  1 -1</clus>
<clus scale="  129.886">  2  5  1 -1</clus>
</clustering>
</event>
<event>
 9    2  0.2869112E-005  0.9280751E+02  0.7546771E-02  0.1303710E+00
         -1   -1    0    0    0  501 -0.00000000000E+00  0.00000000000E+00  0.10324459433E+03  0.10324459433E+03  0.00000000000E+00 0.  1.
          2   -1    0    0  502    0  0.00000000000E+00 -0.00000000000E+00 -0.15048504038E+03  0.15048504038E+03  0.00000000000E+00 0. -1.
         23    2    1    2    0    0 -0.19801780896E+02 -0.78514026702E-01  0.25349933892E+01  0.94481251877E+02  0.92348059393E+02 0.  0.
         24    2    1    2    0    0  0.17146306240E+01  0.90520518788E+01 -0.85861428760E+02  0.11789783251E+03  0.80267268305E+02 0.  0.
        -11    1    4    4    0    0 -0.22720516869E+02 -0.26929240151E+02 -0.25475481034E+02  0.43478799383E+02  0.00000000000E+00 0.  1.
         12    1    4    4    0    0  0.24435147493E+02  0.35981292030E+02 -0.60385947726E+02  0.74419033129E+02  0.00000000000E+00 0. -1.
        -13    1    3    3    0    0 -0.43108218509E+02 -0.26577205182E+02  0.20796659668E+02  0.54746391585E+02  0.00000000000E+00 0.  1.
         13    1    3    3    0    0  0.23306437613E+02  0.26498691155E+02 -0.18261666279E+02  0.39734860292E+02  0.00000000000E+00 0. -1.
         21    1    1    2  502  501  0.18087150272E+02 -0.89735378521E+01  0.36085989320E+02  0.41350550320E+02  0.00000000000E+00 0.  1.
<scales pt_clust_5="13000.00000" pt_clust_6="13000.00000" pt_clust_7="13000.00000" pt_clust_8="13000.00000" pt_clust_9="20.19082"></scales>
<clustering>
<clus scale="   20.191">  1  9  2 -1</clus>
<clus scale="   80.267">  5  6 -1 -1</clus>
<clus scale="   80.795">  2  5  1 -1</clus>
<clus scale="   92.348">  7  8 -1 -1</clus>
<clus scale="   80.795">  2  5  1 -1</clus>
</clustering>
</event>
<event>
 9    2  0.2869112E-005  0.1292371E+03  0.7546771E-02  0.1234000E+00
          2   -1    0    0  502    0  0.00000000000E+00  0.00000000000E+00  0.32176531415E+02  0.32176531415E+02  0.00000000000E+00 0. -1.
         -1   -1    0    0    0  501 -0.00000000000E+00 -0.00000000000E+00 -0.87704856385E+03  0.87704856385E+03  0.00000000000E+00 0.  1.
         23    2    1    2    0    0 -0.34236987024E+02  0.78832133196E+02 -0.56894258077E+03  0.58258463551E+03  0.91227851131E+02 0.  0.
         24    2    1    2    0    0  0.31798933211E+02 -0.19556689919E+02 -0.16262981694E+03  0.19874859327E+03  0.10797643120E+03 0.  0.
        -13    1    4    4    0    0 -0.35840580292E+02  0.20512474505E+01 -0.91285073828E+02  0.98090364030E+02  0.00000000000E+00 0.  1.
         14    1    4    4    0    0  0.67639513503E+02 -0.21607937370E+02 -0.71344743110E+02  0.10065822924E+03  0.00000000000E+00 0. -1.
        -11    1    3    3    0    0 -0.10651111382E+02  0.93155157178E+02 -0.49172963515E+03  0.50058901663E+03  0.00000000000E+00 0.  1.
         11    1    3    3    0    0 -0.23585875643E+02 -0.14323023981E+02 -0.77212945615E+02  0.81995618885E+02  0.00000000000E+00 0. -1.
         21    1    1    2  502  501  0.24380538139E+01 -0.59275443277E+02 -0.11329963473E+03  0.12789186648E+03  0.00000000000E+00 0. -1.
<scales pt_clust_5="13000.00000" pt_clust_6="13000.00000" pt_clust_7="13000.00000" pt_clust_8="13000.00000" pt_clust_9="59.32556"></scales>
<clustering>
<clus scale="   59.326">  1  9  2 -1</clus>
<clus scale="   91.228">  7  8 -1 -1</clus>
<clus scale="  107.976">  5  6 -1 -1</clus>
<clus scale="  115.611">  2  7  1 -1</clus>
<clus scale="   59.326">  1  5  2 -1</clus>
</clustering>
</event>
<event>
 9    2  0.2869112E-005  0.1168433E+03  0.7546771E-02  0.1252483E+00
          2   -1    0    0  502    0  0.00000000000E+00  0.00000000000E+00  0.52743118344E+03  0.52743118344E+03  0.00000000000E+00 0. -1.
         -1   -1    0    0    0  501 -0.00000000000E+00 -0.00000000000E+00 -0.43116820294E+02  0.43116820294E+02  0.00000000000E+00 0.  1.
         23    2    1    2    0    0  0.14805681457E+02  0.52704058517E+02  0.16129596128E+03  0.19469744810E+03  0.94306856505E+02 0.  0.
         24    2    1    2    0    0 -0.10746545087E+02 -0.76427782051E+02  0.33154937045E+03  0.35031491249E+03  0.82697392738E+02 0.  0.
        -11    1    4    4    0    0 -0.38236013987E+02 -0.62587009814E+02  0.15976526526E+03  0.17579552482E+03  0.00000000000E+00 0.  1.
         12    1    4    4    0    0  0.27489468900E+02 -0.13840772238E+02  0.17178410519E+03  0.17451938767E+03  0.00000000000E+00 0. -1.
        -13    1    3    3    0    0  0.36665696217E+02  0.65318054519E+02  0.80088613486E+02  0.10965859536E+03  0.00000000000E+00 0.  1.
         13    1    3    3    0    0 -0.21860014759E+02 -0.12613996002E+02  0.81207347790E+02  0.85038852741E+02  0.00000000000E+00 0. -1.
         21    1    1    2  502  501 -0.40591363706E+01  0.23723723534E+02 -0.85309685750E+01  0.25535643153E+02  0.00000000000E+00 0.  1.
<scales pt_clust_5="13000.00000" pt_clust_6="13000.00000" pt_clust_7="13000.00000" pt_clust_8="13000.00000" pt_clust_9="24.06848"></scales>
<clustering>
<clus scale="   24.068">  2  9  1 -1</clus>
<clus scale="   82.697">  5  6 -1 -1</clus>
<clus scale="   94.307">  7  8 -1 -1</clus>
<clus scale="  107.691">  1  5  2 -1</clus>
<clus scale="  107.691">  1  5  2 -1</clus>
</clustering>
</event>
<event>
 9    2  0.2869112E-005  0.1037880E+03  0.7546771E-02  0.1278808E+00
          2   -1    0    0  502    0  0.00000000000E+00  0.00000000000E+00  0.32908221741E+03  0.32908221741E+03  0.00000000000E+00 0. -1.
         -1   -1    0    0    0  501 -0.00000000000E+00 -0.00000000000E+00 -0.12258890202E+03  0.12258890202E+03  0.00000000000E+00 0.  1.
         24    2    1    2    0    0  0.62246991784E+02  0.12812135179E+02  0.23319467567E+02  0.10558967718E+03  0.81034212318E+02 0.  0.
         23    2    1    2    0    0 -0.35804430093E+02 -0.15505406940E+02  0.25224715277E+03  0.27207073872E+03  0.94188565810E+02 0.  0.
        -11    1    3    3    0    0  0.76195077814E+02  0.27977571660E+02  0.24959833859E+02  0.84920125443E+02  0.00000000000E+00 0.  1.
         12    1    3    3    0    0 -0.13948086030E+02 -0.15165436481E+02 -0.16403662922E+01  0.20669551740E+02  0.00000000000E+00 0. -1.
        -11    1    4    4    0    0  0.32056006132E+02 -0.30529102297E+01  0.65525951702E+02  0.73010671387E+02  0.00000000000E+00 0.  1.
         11    1    4    4    0    0 -0.67860436225E+02 -0.12452496710E+02  0.18672120107E+03  0.19906006733E+03  0.00000000000E+00 0. -1.
         21    1    1    2  502  501 -0.26442561691E+02  0.26932717605E+01 -0.69073304938E+02  0.74010703528E+02  0.00000000000E+00 0. -1.
<scales pt_clust_5="13000.00000" pt_clust_6="13000.00000" pt_clust_7="13000.00000" pt_clust_8="13000.00000" pt_clust_9="26.57937"></scales>
<clustering>
<clus scale="   26.579">  2  9  1 -1</clus>
<clus scale="   81.034">  5  6 -1 -1</clus>
<clus scale="   92.016">  2  5  1 -1</clus>
<clus scale="   94.189">  7  8 -1 -1</clus>
<clus scale="  103.788">  1  5  2 -1</clus>
</clustering>
</event>
<event>
 9    2  0.2869112E-005  0.1368792E+03  0.7546771E-02  0.1220399E+00
          2   -1    0    0  502    0  0.00000000000E+00  0.00000000000E+00  0.13285022326E+04  0.13285022326E+04  0.00000000000E+00 0. -1.
         -1   -1    0    0    0  501 -0.00000000000E+00 -0.00000000000E+00 -0.38419614928E+02  0.38419614928E+02  0.00000000000E+00 0.  1.
         23    2    1    2    0    0  0.79208820298E+02 -0.64837086248E+02  0.16050215230E+03  0.21125332401E+03  0.91592254291E+02 0.  0.
         24    2    1    2    0    0 -0.63063916365E+02  0.80082993201E+02  0.11257443386E+04  0.11331338509E+04  0.79383025943E+02 0.  0.
        -13    1    4    4    0    0 -0.96784602002E+01  0.60168267130E+02  0.34724257496E+03  0.35254971114E+03  0.00000000000E+00 0.  1.
         14    1    4    4    0    0 -0.53385456165E+02  0.19914726071E+02  0.77850176364E+03  0.78058413975E+03  0.00000000000E+00 0. -1.
        -13    1    3    3    0    0  0.81117671105E+02 -0.84756208676E+02  0.13558250564E+03  0.17929391320E+03  0.00000000000E+00 0.  1.
         13    1    3    3    0    0 -0.19088508067E+01  0.19919122428E+02  0.24919646657E+02  0.31959410808E+02  0.00000000000E+00 0. -1.
         21    1    1    2  502  501 -0.16144903933E+02 -0.15245906953E+02  0.38361267779E+01  0.22534672629E+02  0.00000000000E+00 0. -1.
<scales pt_clust_5="13000.00000" pt_clust_6="13000.00000" pt_clust_7="13000.00000" pt_clust_8="13000.00000" pt_clust_9="22.20576"></scales>
<clustering>
<clus scale="   22.206">  2  9  1 -1</clus>
<clus scale="   79.383">  5  6 -1 -1</clus>
<clus scale="   91.592">  7  8 -1 -1</clus>
<clus scale="  129.029">  1  5  2 -1</clus>
<clus scale="  129.029">  1  5  2 -1</clus>
</clustering>
</event>
<event>
 9    2  0.2869112E-005  0.1400841E+03  0.7546771E-02  0.1214696E+00
         -1   -1    0    0    0  501 -0.00000000000E+00  0.00000000000E+00  0.21288695087E+02  0.21288695087E+02  0.00000000000E+00 0.  1.
          2   -1    0    0  502    0  0.00000000000E+00 -0.00000000000E+00 -0.18605267880E+04  0.18605267880E+04  0.00000000000E+00 0. -1.
         23    2    1    2    0    0 -0.80730578432E+02 -0.19379663399E+02 -0.27266980583E+03  0.29915998268E+03  0.90856340348E+02 0.  0.
         24    2    1    2    0    0  0.11165653580E+03  0.13747755504E+02 -0.15199924319E+04  0.15264643666E+04  0.84025513280E+02 0.  0.
        -11    1    4    4    0    0  0.60484778187E+02 -0.10878330538E+02 -0.36986835620E+03  0.37493912490E+03  0.00000000000E+00 0.  1.
         12    1    4    4    0    0  0.51171757611E+02  0.24626086042E+02 -0.11501240757E+04  0.11515252417E+04  0.00000000000E+00 0. -1.
        -11    1    3    3    0    0 -0.20582770098E+02  0.31452777323E+02 -0.13923368737E+03  0.14421840148E+03  0.00000000000E+00 0. -1.
         11    1    3    3    0    0 -0.60147808334E+02 -0.50832440722E+02 -0.13343611846E+03  0.15494158120E+03  0.00000000000E+00 0.  1.
         21    1    1    2  502  501 -0.30925957365E+02  0.56319078949E+01 -0.46575855199E+02  0.56191133758E+02  0.00000000000E+00 0.  1.
<scales pt_clust_5="13000.00000" pt_clust_6="13000.00000" pt_clust_7="13000.00000" pt_clust_8="13000.00000" pt_clust_9="31.43459"></scales>
<clustering>
<clus scale="   31.435">  1  9  2 -1</clus>
<clus scale="   84.026">  5  6 -1 -1</clus>
<clus scale="   90.856">  7  8 -1 -1</clus>
<clus scale="  135.753">  2  5  1 -1</clus>
<clus scale="  135.753">  2  5  1 -1</clus>
</clustering>
</event>
<event>
 9    2  0.2869112E-005  0.1022387E+03  0.7546771E-02  0.1281138E+00
         -1   -1    0    0    0  501 -0.00000000000E+00  0.00000000000E+00  0.24091091233E+03  0.24091091233E+03  0.00000000000E+00 0.  1.
          2   -1    0    0  502    0  0.00000000000E+00 -0.00000000000E+00 -0.12546885577E+03  0.12546885577E+03  0.00000000000E+00 0. -1.
         23    2    1    2    0    0 -0.17904772487E+01  0.26189401563E+02  0.14668258640E+03  0.17504013192E+03  0.91837770366E+02 0.  0.
         24    2    1    2    0    0 -0.24834538201E+02 -0.40917575509E+02 -0.87040182402E+02  0.12778326923E+03  0.80383880652E+02 0.  0.
        -11    1    4    4    0    0 -0.15462792006E+02  0.20571917218E+02 -0.74900767404E+01  0.26803040205E+02  0.00000000000E+00 0.  1.
         12    1    4    4    0    0 -0.93717461947E+01 -0.61489492727E+02 -0.79550105661E+02  0.10098022902E+03  0.00000000000E+00 0. -1.
        -13    1    3    3    0    0 -0.17025351977E+01  0.51914054427E+02  0.40722934453E+02  0.66002462557E+02  0.00000000000E+00 0. -1.
         13    1    3    3    0    0 -0.87942051031E-01 -0.25724652864E+02  0.10595965195E+03  0.10903766936E+03  0.00000000000E+00 0.  1.
         21    1    1    2  502  501  0.26625015450E+02  0.14728173946E+02  0.55799652556E+02  0.63556366958E+02  0.00000000000E+00 0. -1.
<scales pt_clust_5="13000.00000" pt_clust_6="13000.00000" pt_clust_7="13000.00000" pt_clust_8="13000.00000" pt_clust_9="30.42714"></scales>
<clustering>
<clus scale="   30.427">  1  9  2 -1</clus>
<clus scale="   80.384">  5  6 -1 -1</clus>
<clus scale="   91.838">  7  8 -1 -1</clus>
<clus scale="   92.088">  2  5  1 -1</clus>
<clus scale="   92.088">  2  5  1 -1</clus>
</clustering>
</event>
<event>
 9    2  0.2869112E-005  0.1207014E+03  0.7546771E-02  0.1245562E+00
          2   -1    0    0  502    0  0.00000000000E+00  0.00000000000E+00  0.16893949034E+04  0.16893949034E+04  0.00000000000E+00 0. -1.
         -1   -1    0    0    0  501 -0.00000000000E+00 -0.00000000000E+00 -0.59650004656E+02  0.59650004656E+02  0.00000000000E+00 0.  1.
         23    2    1    2    0    0 -0.43241076444E+02 -0.22368459973E+02  0.37946800519E+03  0.39356811245E+03  0.92356664505E+02 0.  0.
         24    2    1    2    0    0  0.92109189478E+02 -0.14328110750E+02  0.12810980041E+04  0.12870321345E+04  0.80933438742E+02 0.  0.
        -13    1    4    4    0    0  0.44110212989E+02  0.14568691699E+02  0.24160266660E+03  0.24602805974E+03  0.00000000000E+00 0.  1.
         14    1    4    4    0    0  0.47998976489E+02 -0.28896802450E+02  0.10394953375E+04  0.10410040747E+04  0.00000000000E+00 0. -1.
        -13    1    3    3    0    0 -0.34768340861E+02  0.30077396917E+02  0.23917410002E+03  0.24355233001E+03  0.00000000000E+00 0.  1.
         13    1    3    3    0    0 -0.84727355832E+01 -0.52445856890E+02  0.14029390517E+03  0.15001578244E+03  0.00000000000E+00 0. -1.
         21    1    1    2  502  501 -0.48868113034E+02  0.36696570723E+02 -0.30821110591E+02  0.68444661095E+02  0.00000000000E+00 0.  1.
<scales pt_clust_5="13000.00000" pt_clust_6="13000.00000" pt_clust_7="13000.00000" pt_clust_8="13000.00000" pt_clust_9="61.11244"></scales>
<clustering>
<clus scale="   61.112">  2  9  1 -1</clus>
<clus scale="   80.933">  5  6 -1 -1</clus>
<clus scale="   92.357">  7  8 -1 -1</clus>
<clus scale="  112.202">  1  5  2 -1</clus>
<clus scale="  112.202">  1  5  2 -1</clus>
</clustering>
</event>
<event>
 9    2  0.2869112E-005  0.1031314E+03  0.7546771E-02  0.1278629E+00
         -1   -1    0    0    0  501 -0.00000000000E+00  0.00000000000E+00  0.67459227156E+02  0.67459227156E+02  0.00000000000E+00 0.  1.
          2   -1    0    0  502    0  0.00000000000E+00 -0.00000000000E+00 -0.24147935044E+03  0.24147935044E+03  0.00000000000E+00 0. -1.
         23    2    1    2    0    0  0.57892602277E+02 -0.34789335676E+02 -0.60583146398E+02  0.13035616370E+03  0.93597865955E+02 0.  0.
         24    2    1    2    0    0 -0.16590387034E+02  0.29140121556E+02 -0.10051959781E+03  0.13494017190E+03  0.83548027044E+02 0.  0.
        -13    1    4    4    0    0  0.26231584462E+02  0.33325748212E+02 -0.28668600890E+02  0.51191700444E+02  0.00000000000E+00 0.  1.
         14    1    4    4    0    0 -0.42821971497E+02 -0.41856266561E+01 -0.71850996919E+02  0.83748471458E+02  0.00000000000E+00 0. -1.
        -11    1    3    3    0    0  0.62975140749E+02 -0.15386572021E+02  0.17747981092E+01  0.64851868587E+02  0.00000000000E+00 0.  1.
         11    1    3    3    0    0 -0.50825384723E+01 -0.19402763655E+02 -0.62357944507E+02  0.65504295110E+02  0.00000000000E+00 0. -1.
         21    1    1    2  502  501 -0.41302215242E+02  0.56492141202E+01 -0.12917379075E+02  0.43642241994E+02  0.00000000000E+00 0. -1.
<scales pt_clust_5="13000.00000" pt_clust_6="13000.00000" pt_clust_7="13000.00000" pt_clust_8="13000.00000" pt_clust_9="41.68677"></scales>
<clustering>
<clus scale="   41.687">  1  9  2 -1</clus>
<clus scale="   83.548">  5  6 -1 -1</clus>
<clus scale="   93.598">  7  8 -1 -1</clus>
<clus scale="   94.105">  2  5  1 -1</clus>
<clus scale="   94.105">  2  5  1 -1</clus>
</clustering>
</event>
<event>
 9    2  0.2869112E-005  0.1454944E+03  0.7546771E-02  0.1208399E+00
         -1   -1    0    0    0  501 -0.00000000000E+00  0.00000000000E+00  0.61757641441E+02  0.61757641441E+02  0.00000000000E+00 0.  1.
          2   -1    0    0  502    0  0.00000000000E+00 -0.00000000000E+00 -0.81546979552E+03  0.81546979552E+03  0.00000000000E+00 0. -1.
         23    2    1    2    0    0 -0.33009506691E+02  0.98213761696E+02 -0.33106768407E+03  0.35870456912E+03  0.91255607792E+02 0.  0.
         24    2    1    2    0    0 -0.23269624935E+02 -0.12749642272E+03 -0.42859345786E+03  0.45480312718E+03  0.79729035637E+02 0.  0.
        -11    1    4    4    0    0 -0.19095139386E+02 -0.12447881844E+03 -0.43106909093E+03  0.44908814474E+03  0.00000000000E+00 0.  1.
         12    1    4    4    0    0 -0.41744855492E+01 -0.30176042871E+01  0.24756330726E+01  0.57149824448E+01  0.00000000000E+00 0. -1.
        -13    1    3    3    0    0 -0.63364561609E+02  0.75052704698E+02 -0.26164568184E+03  0.27947529225E+03  0.00000000000E+00 0. -1.
         13    1    3    3    0    0  0.30355054918E+02  0.23161056998E+02 -0.69422002231E+02  0.79229276875E+02  0.00000000000E+00 0.  1.
         21    1    1    2  502  501  0.56279131626E+02  0.29282661026E+02  0.59489878493E+01  0.63719740660E+02  0.00000000000E+00 0.  1.
<scales pt_clust_5="13000.00000" pt_clust_6="13000.00000" pt_clust_7="13000.00000" pt_clust_8="13000.00000" pt_clust_9="63.44143"></scales>
<clustering>
<clus scale="   63.441">  1  9  2 -1</clus>
<clus scale="   79.729">  5  6 -1 -1</clus>
<clus scale="   91.256">  7  8 -1 -1</clus>
<clus scale="  138.556">  2  5  1 -1</clus>
<clus scale="  138.556">  2  5  1 -1</clus>
</clustering>
</event>
<event>
 9    2  0.2869112E-005  0.1160501E+03  0.7546771E-02  0.1253224E+00
          2   -1    0    0  502    0  0.00000000000E+00  0.00000000000E+00  0.12537162585E+03  0.12537162585E+03  0.00000000000E+00 0. -1.
         -1   -1    0    0    0  501 -0.00000000000E+00 -0.00000000000E+00 -0.26624370631E+03  0.26624370631E+03  0.00000000000E+00 0.  1.
         24    2    1    2    0    0 -0.45899017703E+02 -0.28587701357E+02 -0.18337240679E+03  0.20683138733E+03  0.78929124646E+02 0.  0.
         23    2    1    2    0    0  0.53075836568E+02  0.56857580066E+02  0.75752281091E+02  0.14055290068E+03  0.89257386024E+02 0.  0.
        -11    1    3    3    0    0 -0.50138876243E+02  0.11047942138E+02 -0.13319507329E+03  0.14274764967E+03  0.00000000000E+00 0.  1.
         12    1    3    3    0    0  0.42398585400E+01 -0.39635643495E+02 -0.50177333504E+02  0.64083737666E+02  0.00000000000E+00 0. -1.
        -13    1    4    4    0    0  0.26731840964E+02 -0.18865003318E+02  0.40039081263E+01  0.32962265575E+02  0.00000000000E+00 0.  1.
         13    1    4    4    0    0  0.26343995604E+02  0.75722583384E+02  0.71748372965E+02  0.10759063510E+03  0.00000000000E+00 0. -1.
         21    1    1    2  502  501 -0.71768188654E+01 -0.28269878709E+02 -0.33251954754E+02  0.44231044146E+02  0.00000000000E+00 0.  1.
<scales pt_clust_5="13000.00000" pt_clust_6="13000.00000" pt_clust_7="13000.00000" pt_clust_8="13000.00000" pt_clust_9="29.16664"></scales>
<clustering>
<clus scale="   29.167">  2  9  1 -1</clus>
<clus scale="   78.929">  5  6 -1 -1</clus>
<clus scale="   89.257">  7  8 -1 -1</clus>
<clus scale="  108.308">  2  5  1 -1</clus>
<clus scale="  116.050">  1  5  2 -1</clus>
</clustering>
</event>
<event>
 9    2  0.2869112E-005  0.1007402E+03  0.7546771E-02  0.1283130E+00
         -1   -1    0    0    0  501 -0.00000000000E+00  0.00000000000E+00  0.75212209046E+02  0.75212209046E+02  0.00000000000E+00 0.  1.
          2   -1    0    0  502    0  0.00000000000E+00 -0.00000000000E+00 -0.77608327117E+03  0.77608327117E+03  0.00000000000E+00 0. -1.
         23    2    1    2    0    0  0.65048641592E+02  0.50861674523E+02 -0.23189743177E+02  0.12523988015E+03  0.91263506848E+02 0.  0.
         24    2    1    2    0    0 -0.33269560788E+02 -0.22660852315E+02 -0.67740067599E+03  0.68356707091E+03  0.82291473995E+02 0.  0.
        -13    1    4    4    0    0  0.10693888837E+02 -0.39439300447E+02 -0.22092465391E+03  0.22467202849E+03  0.00000000000E+00 0.  1.
         14    1    4    4    0    0 -0.43963449625E+02  0.16778448131E+02 -0.45647602208E+03  0.45889504242E+03  0.00000000000E+00 0. -1.
        -13    1    3    3    0    0  0.81239268795E+02  0.13629225720E+02 -0.17892087196E+02  0.84295322363E+02  0.00000000000E+00 0.  1.
         13    1    3    3    0    0 -0.16190627204E+02  0.37232448803E+02 -0.52976559813E+01  0.40944557782E+02  0.00000000000E+00 0. -1.
         21    1    1    2  502  501 -0.31779080804E+02 -0.28200822207E+02 -0.28064295395E+00  0.42488529162E+02  0.00000000000E+00 0. -1.
<scales pt_clust_5="13000.00000" pt_clust_6="13000.00000" pt_clust_7="13000.00000" pt_clust_8="13000.00000" pt_clust_9="42.48760"></scales>
<clustering>
<clus scale="   42.488">  1  9  2 -1</clus>
<clus scale="   82.291">  5  6 -1 -1</clus>
<clus scale="   91.264">  7  8 -1 -1</clus>
<clus scale="   92.690">  2  5  1 -1</clus>
<clus scale="   92.690">  2  5  1 -1</clus>
</clustering>
</event>
<event>
 9    2  0.2869112E-005  0.1880602E+03  0.7546771E-02  0.1161461E+00
         -1   -1    0    0    0  501 -0.00000000000E+00  0.00000000000E+00  0.16296956128E+03  0.16296956128E+03  0.00000000000E+00 0.  1.
          2   -1    0    0  502    0  0.00000000000E+00 -0.00000000000E+00 -0.65428151059E+03  0.65428151059E+03  0.00000000000E+00 0. -1.
         23    2    1    2    0    0  0.78902754615E+02 -0.22521787110E+03 -0.44501066558E+02  0.25944584057E+03  0.91559079916E+02 0.  0.
         24    2    1    2    0    0 -0.45646018570E+02  0.14598615875E+03 -0.43876249736E+03  0.47150082098E+03  0.80031103587E+02 0.  0.
        -11    1    4    4    0    0 -0.64468903316E+02  0.73825127203E+02 -0.24410272285E+03  0.26304472662E+03  0.00000000000E+00 0.  1.
         12    1    4    4    0    0  0.18822884746E+02  0.72161031550E+02 -0.19465977451E+03  0.20845609436E+03  0.00000000000E+00 0. -1.
        -11    1    3    3    0    0  0.92374253055E+02 -0.13779473258E+03 -0.41185404233E+02  0.17092872338E+03  0.00000000000E+00 0.  1.
         11    1    3    3    0    0 -0.13471498440E+02 -0.87423138521E+02 -0.33156623255E+01  0.88517117191E+02  0.00000000000E+00 0. -1.
         21    1    1    2  502  501 -0.33256736045E+02  0.79231712346E+02 -0.80483853944E+01  0.86304410322E+02  0.00000000000E+00 0. -1.
<scales pt_clust_5="13000.00000" pt_clust_6="13000.00000" pt_clust_7="13000.00000" pt_clust_8="13000.00000" pt_clust_9="85.92831"></scales>
<clustering>
<clus scale="   80.031">  5  6 -1 -1</clus>
<clus scale="   85.928">  1  9  2 -1</clus>
<clus scale="   91.559">  7  8 -1 -1</clus>
<clus scale="  182.725">  2  5  1 -1</clus>
<clus scale="  182.725">  2  5  1 -1</clus>
</clustering>
</event>
<event>
 9    2  0.2869112E-005  0.2532808E+03  0.7546771E-02  0.1111249E+00
          2   -1    0    0  502    0  0.00000000000E+00  0.00000000000E+00  0.13067750381E+04  0.13067750381E+04  0.00000000000E+00 0. -1.
         -1   -1    0    0    0  501 -0.00000000000E+00 -0.00000000000E+00 -0.35453288456E+02  0.35453288456E+02  0.00000000000E+00 0.  1.
         24    2    1    2    0    0 -0.98511193176E+02  0.22553494396E+02  0.44962416435E+03  0.46772169481E+03  0.79928589013E+02 0.  0.
         23    2    1    2    0    0 -0.74932601172E+02  0.10065591964E+02  0.26105821620E+03  0.28674540746E+03  0.91407470119E+02 0.  0.
        -13    1    3    3    0    0 -0.89617100202E+02 -0.13352257823E+01  0.41589923540E+03  0.42544703723E+03  0.00000000000E+00 0.  1.
         14    1    3    3    0    0 -0.88940929739E+01  0.23888720178E+02  0.33724928946E+02  0.42274657586E+02  0.00000000000E+00 0. -1.
        -11    1    4    4    0    0 -0.15227336861E+02 -0.38665071253E+02  0.91044182995E+02  0.10007948231E+03  0.00000000000E+00 0. -1.
         11    1    4    4    0    0 -0.59705264310E+02  0.48730663217E+02  0.17001403321E+03  0.18666592515E+03  0.00000000000E+00 0.  1.
         21    1    1    2  502  501  0.17344379435E+03 -0.32619086360E+02  0.56063936911E+03  0.58776122430E+03  0.00000000000E+00 0. -1.
<scales pt_clust_5="13000.00000" pt_clust_6="13000.00000" pt_clust_7="13000.00000" pt_clust_8="13000.00000" pt_clust_9="176.48443"></scales>
<clustering>
<clus scale="   79.929">  5  6 -1 -1</clus>
<clus scale="   91.407">  7  8 -1 -1</clus>
<clus scale="  103.472">  5  7 -1 -1</clus>
<clus scale="  176.484">  1  9  2 -1</clus>
<clus scale="  176.484">  1  5  2 -1</clus>
</clustering>
</event>
<event>
 9    2  0.2869112E-005  0.1742018E+03  0.7546771E-02  0.1174498E+00
          2   -1    0    0  502    0  0.00000000000E+00  0.00000000000E+00  0.75611255817E+03  0.75611255817E+03  0.00000000000E+00 0. -1.
         -1   -1    0    0    0  501 -0.00000000000E+00 -0.00000000000E+00 -0.26775434475E+03  0.26775434475E+03  0.00000000000E+00 0.  1.
         24    2    1    2    0    0 -0.88532023914E+02 -0.10481530740E+03 -0.11032799812E+03  0.19396757565E+03  0.81406297738E+02 0.  0.
         23    2    1    2    0    0  0.84514306594E+02  0.12473776926E+03  0.70257389712E+03  0.72404235889E+03  0.89022904065E+02 0.  0.
        -13    1    3    3    0    0 -0.42379251845E+02 -0.10374985300E+03 -0.89009542077E+02  0.14311789394E+03  0.00000000000E+00 0.  1.
         14    1    3    3    0    0 -0.46152772069E+02 -0.10654544067E+01 -0.21318456039E+02  0.50849681716E+02  0.00000000000E+00 0. -1.
        -13    1    4    4    0    0  0.71754962600E+02  0.10582870370E+03  0.68011855738E+03  0.69203304927E+03  0.00000000000E+00 0. -1.
         13    1    4    4    0    0  0.12759343994E+02  0.18909065559E+02  0.22455339740E+02  0.32009309620E+02  0.00000000000E+00 0.  1.
         21    1    1    2  502  501  0.40177173193E+01 -0.19922461858E+02 -0.10388768558E+03  0.10585696838E+03  0.00000000000E+00 0.  1.
<scales pt_clust_5="13000.00000" pt_clust_6="13000.00000" pt_clust_7="13000.00000" pt_clust_8="13000.00000" pt_clust_9="20.32355"></scales>
<clustering>
<clus scale="   20.324">  2  9  1 -1</clus>
<clus scale="   81.406">  5  6 -1 -1</clus>
<clus scale="   89.023">  7  8 -1 -1</clus>
<clus scale="  170.435">  2  5  1 -1</clus>
<clus scale="  174.202">  1  5  2 -1</clus>
</clustering>
</event>
<event>
 9    2  0.2869112E-005  0.9013798E+02  0.7546771E-02  0.1308573E+00
          2   -1    0    0  502    0  0.00000000000E+00  0.00000000000E+00  0.27147565605E+03  0.27147565605E+03  0.00000000000E+00 0. -1.
         -1   -1    0    0    0  501 -0.00000000000E+00 -0.00000000000E+00 -0.70365782137E+02  0.70365782137E+02  0.00000000000E+00 0.  1.
         23    2    1    2    0    0  0.14173361933E+02  0.10919013611E+02  0.64777291549E+02  0.11223689809E+03  0.89893908283E+02 0.  0.
         24    2    1    2    0    0  0.69085407681E+01  0.13588752679E+02  0.16640792864E+03  0.18545022339E+03  0.80422661646E+02 0.  0.
        -13    1    4    4    0    0  0.37909008595E+02  0.12302547041E+01  0.13270832918E+03  0.13802212537E+03  0.00000000000E+00 0.  1.
         14    1    4    4    0    0 -0.31000467826E+02  0.12358497975E+02  0.33699599465E+02  0.47428098019E+02  0.00000000000E+00 0. -1.
        -11    1    3    3    0    0  0.37662047679E+01  0.43219317394E+02  0.65181571483E+02  0.78298984383E+02  0.00000000000E+00 0. -1.
         11    1    3    3    0    0  0.10407157165E+02 -0.32300303783E+02 -0.40427993412E+00  0.33937913710E+02  0.00000000000E+00 0.  1.
         21    1    1    2  502  501 -0.21081902701E+02 -0.24507766290E+02 -0.30075346275E+02  0.44154316704E+02  0.00000000000E+00 0. -1.
<scales pt_clust_5="13000.00000" pt_clust_6="13000.00000" pt_clust_7="13000.00000" pt_clust_8="13000.00000" pt_clust_9="32.32765"></scales>
<clustering>
<clus scale="   32.328">  2  9  1 -1</clus>
<clus scale="   80.423">  5  6 -1 -1</clus>
<clus scale="   80.695">  1  5  2 -1</clus>
<clus scale="   89.894">  7  8 -1 -1</clus>
<clus scale="   80.695">  1  5  2 -1</clus>
</clustering>
</event>
<event>
 9    2  0.2869112E-005  0.1028832E+03  0.7546771E-02  0.1277500E+00
         -1   -1    0    0    0  501 -0.00000000000E+00  0.00000000000E+00  0.33565328111E+02  0.33565328111E+02  0.00000000000E+00 0.  1.
          2   -1    0    0  502    0  0.00000000000E+00 -0.00000000000E+00 -0.53939220008E+03  0.53939220008E+03  0.00000000000E+00 0. -1.
         23    2    1    2    0    0  0.19434789747E+02  0.47970577377E+02 -0.84703179146E+02  0.13428075625E+03  0.90431220239E+02 0.  0.
         24    2    1    2    0    0  0.18594296649E+01 -0.49261091427E+02 -0.38198242727E+03  0.39409933510E+03  0.83508074903E+02 0.  0.
        -11    1    4    4    0    0 -0.22208628116E+02  0.12089880573E+02 -0.54896046235E+02  0.60439757340E+02  0.00000000000E+00 0.  1.
         12    1    4    4    0    0  0.24068057781E+02 -0.61350972000E+02 -0.32708638104E+03  0.33365957776E+03  0.00000000000E+00 0. -1.
        -11    1    3    3    0    0 -0.27940211483E+02  0.11524093093E+02  0.46967765053E+00  0.30227152304E+02  0.00000000000E+00 0. -1.
         11    1    3    3    0    0  0.47375001230E+02  0.36446484284E+02 -0.85172856797E+02  0.10405360394E+03  0.00000000000E+00 0.  1.
         21    1    1    2  502  501 -0.21294219412E+02  0.12905140504E+01 -0.39141265550E+02  0.44577436846E+02  0.00000000000E+00 0. -1.
<scales pt_clust_5="13000.00000" pt_clust_6="13000.00000" pt_clust_7="13000.00000" pt_clust_8="13000.00000" pt_clust_9="21.33329"></scales>
<clustering>
<clus scale="   21.333">  1  9  2 -1</clus>
<clus scale="   83.508">  5  6 -1 -1</clus>
<clus scale="   90.431">  7  8 -1 -1</clus>
<clus scale="   96.854">  2  5  1 -1</clus>
<clus scale="   96.854">  2  5  1 -1</clus>
</clustering>
</event>
<event>
 9    2  0.2869112E-005  0.1082498E+03  0.7546771E-02  0.1272793E+00
          2   -1    0    0  502    0  0.00000000000E+00  0.00000000000E+00  0.33158031243E+03  0.33158031243E+03  0.00000000000E+00 0. -1.
         -1   -1    0    0    0  501 -0.00000000000E+00 -0.00000000000E+00 -0.79450200756E+02  0.79450200756E+02  0.00000000000E+00 0.  1.
         23    2    1    2    0    0  0.13993001487E+02  0.13317929736E+01  0.55761869933E+02  0.11518778939E+03  0.99806126682E+02 0.  0.
         24    2    1    2    0    0 -0.40799357118E+02 -0.31797481703E+02  0.22605369722E+03  0.24556384991E+03  0.80781575708E+02 0.  0.
        -11    1    4    4    0    0 -0.43435325758E+02 -0.93101754544E+00  0.47618380121E+02  0.64459323939E+02  0.00000000000E+00 0.  1.
         12    1    4    4    0    0  0.26359686399E+01 -0.30866464157E+02  0.17843531710E+03  0.18110452597E+03  0.00000000000E+00 0. -1.
        -11    1    3    3    0    0  0.46958512420E+02  0.29356917161E+02  0.42887885364E+02  0.70044994003E+02  0.00000000000E+00 0.  1.
         11    1    3    3    0    0 -0.32965510933E+02 -0.28025124187E+02  0.12873984569E+02  0.45142795388E+02  0.00000000000E+00 0. -1.
         21    1    1    2  502  501  0.26806355632E+02  0.30465688729E+02 -0.29685455477E+02  0.50278873882E+02  0.00000000000E+00 0.  1.
<scales pt_clust_5="13000.00000" pt_clust_6="13000.00000" pt_clust_7="13000.00000" pt_clust_8="13000.00000" pt_clust_9="40.58003"></scales>
<clustering>
<clus scale="   40.580">  2  9  1 -1</clus>
<clus scale="   80.782">  5  6 -1 -1</clus>
<clus scale="   91.008">  1  5  2 -1</clus>
<clus scale="   99.806">  7  8 -1 -1</clus>
<clus scale="   91.008">  1  5  2 -1</clus>
</clustering>
</event>
<event>
 9    2  0.2869112E-005  0.1066816E+03  0.7546771E-02  0.1271311E+00
         -1   -1    0    0    0  501 -0.00000000000E+00  0.00000000000E+00  0.53285881273E+03  0.53285881273E+03  0.00000000000E+00 0.  1.
          2   -1    0    0  502    0  0.00000000000E+00 -0.00000000000E+00 -0.80518605452E+02  0.80518605452E+02  0.00000000000E+00 0. -1.
         23    2    1    2    0    0 -0.96780213066E+01  0.20864189394E+02  0.30521850694E+03  0.31910896580E+03  0.90239772707E+02 0.  0.
         24    2    1    2    0    0  0.62241051644E+02  0.90240206877E+01 -0.31077358171E+02  0.10609012814E+03  0.79586001529E+02 0.  0.
        -13    1    4    4    0    0  0.30116137556E+02  0.40951965000E+02  0.56972566719E+00  0.50836697041E+02  0.00000000000E+00 0.  1.
         14    1    4    4    0    0  0.32124914087E+02 -0.31927944312E+02 -0.31647083839E+02  0.55253431103E+02  0.00000000000E+00 0. -1.
        -11    1    3    3    0    0  0.35440556088E+02  0.28598562667E+02  0.12094419722E+03  0.12923393379E+03  0.00000000000E+00 0. -1.
         11    1    3    3    0    0 -0.45118577394E+02 -0.77343732731E+01  0.18427430972E+03  0.18987503200E+03  0.00000000000E+00 0.  1.
         21    1    1    2  502  501 -0.52563030337E+02 -0.29888210082E+02  0.17819905851E+03  0.18817832424E+03  0.00000000000E+00 0.  1.
<scales pt_clust_5="13000.00000" pt_clust_6="13000.00000" pt_clust_7="13000.00000" pt_clust_8="13000.00000" pt_clust_9="60.46633"></scales>
<clustering>
<clus scale="   60.466">  1  9  2 -1</clus>
<clus scale="   79.586">  5  6 -1 -1</clus>
<clus scale="   90.240">  7  8 -1 -1</clus>
<clus scale="   97.835">  2  5  1 -1</clus>
<clus scale="   97.835">  2  5  1 -1</clus>
</clustering>
</event>
<event>
 9    2  0.2869112E-005  0.9068340E+02  0.7546771E-02  0.1304851E+00
          2   -1    0    0  502    0  0.00000000000E+00  0.00000000000E+00  0.34498951981E+03  0.34498951981E+03  0.00000000000E+00 0. -1.
         -1   -1    0    0    0  501 -0.00000000000E+00 -0.00000000000E+00 -0.28052539867E+03  0.28052539867E+03  0.00000000000E+00 0.  1.
         23    2    1    2    0    0  0.16932633389E+02 -0.40551419747E+02 -0.16698321826E+03  0.19342510125E+03  0.87170768581E+02 0.  0.
         24    2    1    2    0    0 -0.23111144305E+02  0.90216399687E+01  0.32358947927E+03  0.33450664783E+03  0.81049561178E+02 0.  0.
        -13    1    4    4    0    0 -0.87204579721E+01 -0.20521534833E+02  0.22669173398E+02  0.31797345828E+02  0.00000000000E+00 0.  1.
         14    1    4    4    0    0 -0.14390686333E+02  0.29543174802E+02  0.30092030587E+03  0.30270930200E+03  0.00000000000E+00 0. -1.
        -11    1    3    3    0    0  0.23000703825E+01  0.24425959891E+02 -0.18627984595E+02  0.30804539446E+02  0.00000000000E+00 0. -1.
         11    1    3    3    0    0  0.14632563007E+02 -0.64977379638E+02 -0.14835523367E+03  0.16262056181E+03  0.00000000000E+00 0.  1.
         21    1    1    2  502  501  0.61785109160E+01  0.31529779778E+02 -0.92142139871E+02  0.97583169399E+02  0.00000000000E+00 0.  1.
<scales pt_clust_5="13000.00000" pt_clust_6="13000.00000" pt_clust_7="13000.00000" pt_clust_8="13000.00000" pt_clust_9="32.12944"></scales>
<clustering>
<clus scale="   32.129">  2  9  1 -1</clus>
<clus scale="   81.050">  5  6 -1 -1</clus>
<clus scale="   84.816">  1  5  2 -1</clus>
<clus scale="   87.171">  7  8 -1 -1</clus>
<clus scale="   84.816">  1  5  2 -1</clus>
</clustering>
</event>
<event>
 9    2  0.2869112E-005  0.3560754E+03  0.7546771E-02  0.1060401E+00
          2   -1    0    0  502    0  0.00000000000E+00  0.00000000000E+00  0.18219520258E+04  0.18219520258E+04  0.00000000000E+00 0. -1.
         -1   -1    0    0    0  501 -0.00000000000E+00 -0.00000000000E+00 -0.12250068848E+03  0.12250068848E+03  0.00000000000E+00 0.  1.
         23    2    1    2    0    0 -0.35600238731E+03 -0.53946701420E+02  0.52815001797E+03  0.64582305355E+03  0.92179328780E+02 0.  0.
         24    2    1    2    0    0  0.33505651652E+03  0.38765702627E+02  0.12062214525E+04  0.12551715438E+04  0.81974160555E+02 0.  0.
        -13    1    4    4    0    0  0.64570932385E+02 -0.22861781656E+02  0.19982395084E+03  0.21123843803E+03  0.00000000000E+00 0.  1.
         14    1    4    4    0    0  0.27048558414E+03  0.61627484283E+02  0.10063975016E+04  0.10439331058E+04  0.00000000000E+00 0. -1.
        -13    1    3    3    0    0 -0.64955732514E+02 -0.38150055489E+02  0.70119915259E+02  0.10291489900E+03  0.00000000000E+00 0. -1.
         13    1    3    3    0    0 -0.29104665479E+03 -0.15796645931E+02  0.45803010271E+03  0.54290815455E+03  0.00000000000E+00 0.  1.
         21    1    1    2  502  501  0.20945870781E+02  0.15180998793E+02 -0.34920133142E+02  0.43458116915E+02  0.00000000000E+00 0. -1.
<scales pt_clust_5="13000.00000" pt_clust_6="13000.00000" pt_clust_7="13000.00000" pt_clust_8="13000.00000" pt_clust_9="25.86875"></scales>
<clustering>
<clus scale="   25.869">  2  9  1 -1</clus>
<clus scale="   81.974">  5  6 -1 -1</clus>
<clus scale="   92.179">  7  8 -1 -1</clus>
<clus scale="  353.571">  1  5  2 -1</clus>
<clus scale="  353.571">  1  5  2 -1</clus>
</clustering>
</event>
<event>
 9    2  0.2869112E-005  0.1913302E+03  0.7546771E-02  0.1189637E+00
          2   -1    0    0  502    0  0.00000000000E+00  0.00000000000E+00  0.97016915509E+02  0.97016915509E+02  0.00000000000E+00 0. -1.
         -1   -1    0    0    0  501 -0.00000000000E+00 -0.00000000000E+00 -0.20912017505E+04  0.20912017505E+04  0.00000000000E+00 0.  1.
         23    2    1    2    0    0 -0.13219468664E+03 -0.15087818067E+03 -0.83645078986E+03  0.86505161835E+03  0.91786262451E+02 0.  0.
         24    2    1    2    0    0  0.37882175642E+02  0.26034275770E+02  0.50642093116E+02  0.10470336670E+03  0.79280077307E+02 0.  0.
        -13    1    4    4    0    0  0.26973398048E+02  0.54362934797E+02  0.28011206806E+02  0.66839513678E+02  0.00000000000E+00 0.  1.
         14    1    4    4    0    0  0.10908777594E+02 -0.28328659027E+02  0.22630886311E+02  0.37863853027E+02  0.00000000000E+00 0. -1.
        -11    1    3    3    0    0 -0.10508343140E+03 -0.88389555027E+02 -0.69005732254E+03  0.70358677459E+03  0.00000000000E+00 0.  1.
         11    1    3    3    0    0 -0.27111255234E+02 -0.62488625641E+02 -0.14639346732E+03  0.16146484376E+03  0.00000000000E+00 0. -1.
         21    1    1    2  502  501  0.94312510995E+02  0.12484390490E+03 -0.12083761383E+04  0.12184636810E+04  0.00000000000E+00 0.  1.
<scales pt_clust_5="13000.00000" pt_clust_6="13000.00000" pt_clust_7="13000.00000" pt_clust_8="13000.00000" pt_clust_9="167.87650"></scales>
<clustering>
<clus scale="   79.280">  5  6 -1 -1</clus>
<clus scale="   91.642">  1  5  2 -1</clus>
<clus scale="   91.786">  7  8 -1 -1</clus>
<clus scale="  167.876">  2  9  1 -1</clus>
<clus scale="   91.642">  1  5  2 -1</clus>
</clustering>
</event>
<event>
 9    2  0.2869112E-005  0.9386599E+02  0.7546771E-02  0.1295171E+00
          2   -1    0    0  502    0  0.00000000000E+00  0.00000000000E+00  0.65402487343E+03  0.65402487343E+03  0.00000000000E+00 0. -1.
         -1   -1    0    0    0  501 -0.00000000000E+00 -0.00000000000E+00 -0.22967539398E+02  0.22967539398E+02  0.00000000000E+00 0.  1.
         23    2    1    2    0    0  0.30132963978E+02 -0.29671956589E+02  0.16954060237E+03  0.19721709723E+03  0.91444776026E+02 0.  0.
         24    2    1    2    0    0 -0.16862229062E+02 -0.47414271441E+01  0.37354270274E+03  0.38438232241E+03  0.88931451730E+02 0.  0.
        -13    1    4    4    0    0  0.27906267580E+02 -0.28468632155E+02  0.17382773601E+03  0.17834041773E+03  0.00000000000E+00 0.  1.
         14    1    4    4    0    0 -0.44768496642E+02  0.23727205011E+02  0.19971496673E+03  0.20604190468E+03  0.00000000000E+00 0. -1.
        -13    1    3    3    0    0 -0.26642435615E+02 -0.34237929729E+02  0.82185454560E+02  0.92932793722E+02  0.00000000000E+00 0.  1.
         13    1    3    3    0    0  0.56775399593E+02  0.45659731399E+01  0.87355147810E+02  0.10428430351E+03  0.00000000000E+00 0. -1.
         21    1    1    2  502  501 -0.13270734916E+02  0.34413383734E+02  0.87974028914E+02  0.95392993184E+02  0.00000000000E+00 0. -1.
<scales pt_clust_5="13000.00000" pt_clust_6="13000.00000" pt_clust_7="13000.00000" pt_clust_8="13000.00000" pt_clust_9="36.88351"></scales>
<clustering>
<clus scale="   36.884">  2  9  1 -1</clus>
<clus scale="   88.931">  5  6 -1 -1</clus>
<clus scale="   91.419">  1  5  2 -1</clus>
<clus scale="   91.445">  7  8 -1 -1</clus>
<clus scale="   91.419">  1  5  2 -1</clus>
</clustering>
</event>
<event>
 9    2  0.2869112E-005  0.1140590E+03  0.7546771E-02  0.1256347E+00
          2   -1    0    0  502    0  0.00000000000E+00  0.00000000000E+00  0.27367719058E+03  0.27367719058E+03  0.00000000000E+00 0. -1.
         -1   -1    0    0    0  501 -0.00000000000E+00 -0.00000000000E+00 -0.94993555026E+02  0.94993555026E+02  0.00000000000E+00 0.  1.
         23    2    1    2    0    0 -0.39214252479E+02  0.50990846058E+02 -0.30017839238E+02  0.11730590211E+03  0.93390470701E+02 0.  0.
         24    2    1    2    0    0  0.61414781711E+02 -0.41277689927E+02  0.18950479097E+03  0.22045009669E+03  0.84914994164E+02 0.  0.
        -11    1    4    4    0    0  0.52057691140E+01  0.24289277143E+02  0.58317972583E+02  0.63388129350E+02  0.00000000000E+00 0.  1.
         12    1    4    4    0    0  0.56209012597E+02 -0.65566967070E+02  0.13118681838E+03  0.15706196734E+03  0.00000000000E+00 0. -1.
        -13    1    3    3    0    0 -0.12277741141E+02  0.24817973763E+02 -0.62047322648E+02  0.67945161689E+02  0.00000000000E+00 0.  1.
         13    1    3    3    0    0 -0.26936511337E+02  0.26172872295E+02  0.32029483410E+02  0.49360740419E+02  0.00000000000E+00 0. -1.
         21    1    1    2  502  501 -0.22200529232E+02 -0.97131561315E+01  0.19196683827E+02  0.30914746808E+02  0.00000000000E+00 0.  1.
<scales pt_clust_5="13000.00000" pt_clust_6="13000.00000" pt_clust_7="13000.00000" pt_clust_8="13000.00000" pt_clust_9="24.23239"></scales>
<clustering>
<clus scale="   24.232">  1  9  2 -1</clus>
<clus scale="   84.915">  5  6 -1 -1</clus>
<clus scale="   93.390">  7  8 -1 -1</clus>
<clus scale="  107.230">  1  5  2 -1</clus>
<clus scale="   24.232">  1  5  2 -1</clus>
</clustering>
</event>
<event>
 9    2  0.2869112E-005  0.1115041E+03  0.7546771E-02  0.1262514E+00
          2   -1    0    0  502    0  0.00000000000E+00  0.00000000000E+00  0.10832910237E+03  0.10832910237E+03  0.00000000000E+00 0. -1.
         -1   -1    0    0    0  501 -0.00000000000E+00 -0.00000000000E+00 -0.17986052401E+03  0.17986052401E+03  0.00000000000E+00 0.  1.
         23    2    1    2    0    0  0.37145638768E+02 -0.11173474785E+02 -0.94251997723E+02  0.13759967282E+03  0.92442338069E+02 0.  0.
         24    2    1    2    0    0 -0.70236784239E+02  0.33691308072E+01  0.38028462756E+02  0.11330372168E+03  0.80293290280E+02 0.  0.
        -11    1    4    4    0    0  0.76268423433E+01  0.23946918297E+02  0.24274904260E+01  0.25249085723E+02  0.00000000000E+00 0.  1.
         12    1    4    4    0    0 -0.77863626582E+02 -0.20577787490E+02  0.35600972330E+02  0.88054635956E+02  0.00000000000E+00 0. -1.
        -13    1    3    3    0    0  0.30658339644E+02  0.11344345129E+02 -0.10632640243E+03  0.11123817604E+03  0.00000000000E+00 0.  1.
         13    1    3    3    0    0  0.64872991238E+01 -0.22517819914E+02  0.12074404702E+02  0.26361496781E+02  0.00000000000E+00 0. -1.
         21    1    1    2  502  501  0.33091145471E+02  0.78043439778E+01 -0.15307886672E+02  0.37286231881E+02  0.00000000000E+00 0.  1.
<scales pt_clust_5="13000.00000" pt_clust_6="13000.00000" pt_clust_7="13000.00000" pt_clust_8="13000.00000" pt_clust_9="33.99900"></scales>
<clustering>
<clus scale="   33.999">  2  9  1 -1</clus>
<clus scale="   80.293">  5  6 -1 -1</clus>
<clus scale="   92.442">  7  8 -1 -1</clus>
<clus scale="  101.659">  1  5  2 -1</clus>
<clus scale="  101.659">  1  5  2 -1</clus>
</clustering>
</event>
<event>
 9    2  0.2869112E-005  0.2493356E+03  0.7546771E-02  0.1135708E+00
          2   -1    0    0  502    0  0.00000000000E+00  0.00000000000E+00  0.14654876494E+04  0.14654876494E+04  0.00000000000E+00 0. -1.
         -1   -1    0    0    0  501 -0.00000000000E+00 -0.00000000000E+00 -0.17028209607E+03  0.17028209607E+03  0.00000000000E+00 0.  1.
         23    2    1    2    0    0  0.27851446827E+03  0.11000108750E+03  0.92720788429E+02  0.32632353332E+03  0.90660661292E+02 0.  0.
         24    2    1    2    0    0 -0.10999688270E+03 -0.48614599876E+02  0.10860210953E+04  0.10955998564E+04  0.80215538164E+02 0.  0.
        -11    1    4    4    0    0 -0.25134825548E+02  0.10532594864E+02  0.85319654258E+02  0.89566391089E+02  0.00000000000E+00 0.  1.
         12    1    4    4    0    0 -0.84862057156E+02 -0.59147194740E+02  0.10007014410E+04  0.10060334653E+04  0.00000000000E+00 0. -1.
        -11    1    3    3    0    0  0.23763552005E+03  0.75619301309E+02  0.42433753234E+02  0.25296154358E+03  0.00000000000E+00 0.  1.
         11    1    3    3    0    0  0.40878948221E+02  0.34381786195E+02  0.50287035195E+02  0.73361989738E+02  0.00000000000E+00 0. -1.
         21    1    1    2  502  501 -0.16851758556E+03 -0.61386487628E+02  0.11646366967E+03  0.21384635573E+03  0.00000000000E+00 0.  1.
<scales pt_clust_5="13000.00000" pt_clust_6="13000.00000" pt_clust_7="13000.00000" pt_clust_8="13000.00000" pt_clust_9="232.26899"></scales>
<clustering>
<clus scale="   80.216">  5  6 -1 -1</clus>
<clus scale="   90.661">  7  8 -1 -1</clus>
<clus scale="  144.559">  1  5  2 -1</clus>
<clus scale="  232.269">  2  9  1 -1</clus>
<clus scale="  144.559">  1  5  2 -1</clus>
</clustering>
</event>
<event>
 9    2  0.2869112E-005  0.1225611E+03  0.7546771E-02  0.1242404E+00
         -1   -1    0    0    0  501 -0.00000000000E+00  0.00000000000E+00  0.31515672332E+03  0.31515672332E+03  0.00000000000E+00 0.  1.
          2   -1    0    0  502    0  0.00000000000E+00 -0.00000000000E+00 -0.33447170378E+03  0.33447170378E+03  0.00000000000E+00 0. -1.
         23    2    1    2    0    0 -0.48893547942E+01  0.46182121530E+02  0.12921773555E+02  0.10386157673E+03  0.91997612739E+02 0.  0.
         24    2    1    2    0    0  0.28012356589E+02 -0.84027811980E+02 -0.27450155622E+03  0.29947595754E+03  0.80556684811E+02 0.  0.
        -13    1    4    4    0    0 -0.83856780949E+01 -0.25791457898E+02 -0.14899333141E+02  0.30943642734E+02  0.00000000000E+00 0.  1.
         14    1    4    4    0    0  0.36398034683E+02 -0.58236354082E+02 -0.25960222308E+03  0.26853231480E+03  0.00000000000E+00 0. -1.
        -13    1    3    3    0    0  0.18491930579E+01 -0.20613660609E+02 -0.20270510968E+02  0.28969572547E+02  0.00000000000E+00 0. -1.
         13    1    3    3    0    0 -0.67385478521E+01  0.66795782139E+02  0.33192284523E+02  0.74892004183E+02  0.00000000000E+00 0.  1.
         21    1    1    2  502  501 -0.23123001794E+02  0.37845690450E+02  0.24226480221E+03  0.24629089283E+03  0.00000000000E+00 0.  1.
<scales pt_clust_5="13000.00000" pt_clust_6="13000.00000" pt_clust_7="13000.00000" pt_clust_8="13000.00000" pt_clust_9="44.35053"></scales>
<clustering>
<clus scale="   44.351">  1  9  2 -1</clus>
<clus scale="   80.557">  5  6 -1 -1</clus>
<clus scale="   91.998">  7  8 -1 -1</clus>
<clus scale="  114.224">  2  5  1 -1</clus>
<clus scale="  114.224">  2  5  1 -1</clus>
</clustering>
</event>
<event>
 9    2  0.2869112E-005  0.4111147E+03  0.7546771E-02  0.1040307E+00
         -1   -1    0    0    0  501 -0.00000000000E+00  0.00000000000E+00  0.37790947465E+03  0.37790947465E+03  0.00000000000E+00 0.  1.
          2   -1    0    0  502    0  0.00000000000E+00 -0.00000000000E+00 -0.26074683402E+04  0.26074683402E+04  0.00000000000E+00 0. -1.
         23    2    1    2    0    0  0.88526850792E+02  0.39005903869E+03  0.61822502783E+02  0.41508865448E+03  0.92160253090E+02 0.  0.
         24    2    1    2    0    0 -0.12314131986E+03 -0.38142084667E+03 -0.24111306931E+04  0.24453384477E+04  0.74049021558E+02 0.  0.
        -13    1    4    4    0    0  0.56150080167E+01 -0.74858052637E+02 -0.45274796313E+03  0.45892916063E+03  0.00000000000E+00 0.  1.
         14    1    4    4    0    0 -0.12875632787E+03 -0.30656279404E+03 -0.19583827299E+04  0.19864092870E+04  0.00000000000E+00 0. -1.
        -11    1    3    3    0    0  0.29813331589E+02  0.30492261276E+03  0.56423064780E+02  0.31152880566E+03  0.00000000000E+00 0.  1.
         11    1    3    3    0    0  0.58713519203E+02  0.85136425927E+02  0.53994380034E+01  0.10355984882E+03  0.00000000000E+00 0. -1.
         21    1    1    2  502  501  0.34614469065E+02 -0.86381920169E+01  0.11974932475E+03  0.12495071271E+03  0.00000000000E+00 0. -1.
<scales pt_clust_5="13000.00000" pt_clust_6="13000.00000" pt_clust_7="13000.00000" pt_clust_8="13000.00000" pt_clust_9="35.67604"></scales>
<clustering>
<clus scale="   35.676">  1  9  2 -1</clus>
<clus scale="   74.049">  5  6 -1 -1</clus>
<clus scale="   92.160">  7  8 -1 -1</clus>
<clus scale="  407.437">  2  5  1 -1</clus>
<clus scale="  407.437">  2  5  1 -1</clus>
</clustering>
</event>
<event>
 9    2  0.2869112E-005  0.9435487E+02  0.7546771E-02  0.1295612E+00
          2   -1    0    0  502    0  0.00000000000E+00  0.00000000000E+00  0.49718425809E+03  0.49718425809E+03  0.00000000000E+00 0. -1.
         -1   -1    0    0    0  501 -0.00000000000E+00 -0.00000000000E+00 -0.40323792190E+02  0.40323792190E+02  0.00000000000E+00 0.  1.
         23    2    1    2    0    0 -0.40524672309E+02  0.20222618872E+02  0.12876890870E+03  0.15669604625E+03  0.76948136326E+02 0.  0.
         24    2    1    2    0    0  0.43793126341E+02  0.35833983636E+02  0.30326763602E+03  0.31941776538E+03  0.82792134175E+02 0.  0.
        -11    1    4    4    0    0  0.18697023063E-01  0.46236684771E+02  0.87040614887E+02  0.98559119355E+02  0.00000000000E+00 0.  1.
         12    1    4    4    0    0  0.43774429318E+02 -0.10402701135E+02  0.21622702114E+03  0.22085864602E+03  0.00000000000E+00 0. -1.
        -11    1    3    3    0    0  0.22810355517E+02  0.94041317685E+01  0.42277904304E+02  0.48950701787E+02  0.00000000000E+00 0. -1.
         11    1    3    3    0    0 -0.63335027826E+02  0.10818487104E+02  0.86491004396E+02  0.10774534447E+03  0.00000000000E+00 0.  1.
         21    1    1    2  502  501 -0.32684540315E+01 -0.56056602508E+02  0.24823921174E+02  0.61394238646E+02  0.00000000000E+00 0. -1.
<scales pt_clust_5="13000.00000" pt_clust_6="13000.00000" pt_clust_7="13000.00000" pt_clust_8="13000.00000" pt_clust_9="56.15181"></scales>
<clustering>
<clus scale="   56.152">  2  9  1 -1</clus>
<clus scale="   76.948">  7  8 -1 -1</clus>
<clus scale="   82.792">  5  6 -1 -1</clus>
<clus scale="   89.271">  2  7  1 -1</clus>
<clus scale="   94.355">  1  5  2 -1</clus>
</clustering>
</event>
<event>
 9    2  0.2869112E-005  0.1055294E+03  0.7546771E-02  0.1271616E+00
         -1   -1    0    0    0  501 -0.00000000000E+00  0.00000000000E+00  0.29115856974E+02  0.29115856974E+02  0.00000000000E+00 0.  1.
          2   -1    0    0  502    0  0.00000000000E+00 -0.00000000000E+00 -0.90652089385E+03  0.90652089385E+03  0.00000000000E+00 0. -1.
         23    2    1    2    0    0 -0.13543242660E+02 -0.22371666617E+02 -0.11104331266E+03  0.14818920769E+03  0.94580722666E+02 0.  0.
         24    2    1    2    0    0 -0.38928782501E+02  0.16876659336E+02 -0.65832989011E+03  0.66722114957E+03  0.99927706285E+02 0.  0.
        -11    1    4    4    0    0 -0.12560477065E+02 -0.34369371952E+02 -0.11123919035E+03  0.11710327401E+03  0.00000000000E+00 0.  1.
         12    1    4    4    0    0 -0.26368305436E+02  0.51246031288E+02 -0.54709069976E+03  0.55011787557E+03  0.00000000000E+00 0. -1.
        -11    1    3    3    0    0  0.30489018677E+02 -0.38979633515E+02 -0.43625375496E+02  0.65970944180E+02  0.00000000000E+00 0.  1.
         11    1    3    3    0    0 -0.44032261336E+02  0.16607966899E+02 -0.67417937168E+02  0.82218263512E+02  0.00000000000E+00 0. -1.
         21    1    1    2  502  501  0.52472025160E+02  0.54950072804E+01 -0.10803183410E+03  0.12022639356E+03  0.00000000000E+00 0.  1.
<scales pt_clust_5="13000.00000" pt_clust_6="13000.00000" pt_clust_7="13000.00000" pt_clust_8="13000.00000" pt_clust_9="52.75897"></scales>
<clustering>
<clus scale="   52.759">  1  9  2 -1</clus>
<clus scale="   94.581">  7  8 -1 -1</clus>
<clus scale="   99.928">  5  6 -1 -1</clus>
<clus scale="  100.481">  1  7  2 -1</clus>
<clus scale="  105.529">  2  5  1 -1</clus>
</clustering>
</event>
<event>
 9    2  0.2869112E-005  0.1066170E+03  0.7546771E-02  0.1270927E+00
         -1   -1    0    0    0  501 -0.00000000000E+00  0.00000000000E+00  0.39386989970E+02  0.39386989970E+02  0.00000000000E+00 0.  1.
          2   -1    0    0  502    0  0.00000000000E+00 -0.00000000000E+00 -0.10269393127E+04  0.10269393127E+04  0.00000000000E+00 0. -1.
         23    2    1    2    0    0 -0.60666184662E+02  0.52141116447E+02 -0.13541040007E+03  0.18198170860E+03  0.91554813271E+02 0.  0.
         24    2    1    2    0    0 -0.21590889949E+02 -0.53720035147E+02 -0.73111555902E+03  0.73800218734E+03  0.82251195617E+02 0.  0.
        -11    1    4    4    0    0 -0.46274305716E+02 -0.12154696491E+02 -0.25590005874E+03  0.26033418538E+03  0.00000000000E+00 0.  1.
         12    1    4    4    0    0  0.24683415768E+02 -0.41565338657E+02 -0.47521550028E+03  0.47766800196E+03  0.00000000000E+00 0. -1.
        -11    1    3    3    0    0 -0.20574688218E+02  0.59635344977E+02 -0.12480000314E+03  0.13983823851E+03  0.00000000000E+00 0. -1.
         11    1    3    3    0    0 -0.40091496445E+02 -0.74942285303E+01 -0.10610396929E+02  0.42143470092E+02  0.00000000000E+00 0.  1.
         21    1    1    2  502  501  0.82257074611E+02  0.15789187005E+01 -0.12102636362E+03  0.14634240670E+03  0.00000000000E+00 0. -1.
<scales pt_clust_5="13000.00000" pt_clust_6="13000.00000" pt_clust_7="13000.00000" pt_clust_8="13000.00000" pt_clust_9="82.27223"></scales>
<clustering>
<clus scale="   82.251">  5  6 -1 -1</clus>
<clus scale="   82.272">  1  9  2 -1</clus>
<clus scale="   91.555">  7  8 -1 -1</clus>
<clus scale="   98.743">  2  5  1 -1</clus>
<clus scale="   98.743">  2  5  1 -1</clus>
</clustering>
</event>
<event>
 9    2  0.2869112E-005  0.1083135E+03  0.7546771E-02  0.1268258E+00
         -1   -1    0    0    0  501 -0.00000000000E+00  0.00000000000E+00  0.19422198965E+03  0.19422198965E+03  0.00000000000E+00 0.  1.
          2   -1    0    0  502    0  0.00000000000E+00 -0.00000000000E+00 -0.19977031394E+03  0.19977031394E+03  0.00000000000E+00 0. -1.
         23    2    1    2    0    0 -0.21087324404E+02  0.57091482853E+02  0.14658208922E+03  0.18318047868E+03  0.91458549207E+02 0.  0.
         24    2    1    2    0    0  0.33813622041E+02 -0.22255523768E+02 -0.14835037460E+03  0.17353191892E+03  0.80416564631E+02 0.  0.
        -11    1    4    4    0    0 -0.14585790113E+02  0.15986575921E+02 -0.14211581480E+02  0.25889861550E+02  0.00000000000E+00 0.  1.
         12    1    4    4    0    0  0.48399412154E+02 -0.38242099689E+02 -0.13413879312E+03  0.14764205737E+03  0.00000000000E+00 0. -1.
        -11    1    3    3    0    0 -0.54047606269E+02  0.42392605390E+02  0.12032170284E+03  0.13854814653E+03  0.00000000000E+00 0.  1.
         11    1    3    3    0    0  0.32960281865E+02  0.14698877463E+02  0.26260386386E+02  0.44632332142E+02  0.00000000000E+00 0. -1.
         21    1    1    2  502  501 -0.12726297637E+02 -0.34835959085E+02 -0.37800389075E+01  0.37279905996E+02  0.00000000000E+00 0. -1.
<scales pt_clust_5="13000.00000" pt_clust_6="13000.00000" pt_clust_7="13000.00000" pt_clust_8="13000.00000" pt_clust_9="37.08777"></scales>
<clustering>
<clus scale="   37.088">  2  9  1 -1</clus>
<clus scale="   80.417">  5  6 -1 -1</clus>
<clus scale="   91.459">  7  8 -1 -1</clus>
<clus scale="   99.166">  2  5  1 -1</clus>
<clus scale="   37.088">  2  5  1 -1</clus>
</clustering>
</event>
<event>
 9    2  0.2869112E-005  0.9978820E+02  0.7546771E-02  0.1286169E+00
         -1   -1    0    0    0  501 -0.00000000000E+00  0.00000000000E+00  0.41072871103E+02  0.41072871103E+02  0.00000000000E+00 0.  1.
          2   -1    0    0  502    0  0.00000000000E+00 -0.00000000000E+00 -0.50746076295E+03  0.50746076295E+03  0.00000000000E+00 0. -1.
         23    2    1    2    0    0 -0.52980554217E+02  0.75440252077E+01 -0.12316676351E+03  0.16225227743E+03  0.91059861935E+02 0.  0.
         24    2    1    2    0    0  0.96343972726E+01  0.52588685954E+02 -0.24445755058E+03  0.26279420521E+03  0.80267731717E+02 0.  0.
        -13    1    4    4    0    0 -0.23984309717E+02  0.26301630806E+02 -0.38384922536E+02  0.52349070420E+02  0.00000000000E+00 0.  1.
         14    1    4    4    0    0  0.33618706990E+02  0.26287055149E+02 -0.20607262804E+03  0.21044513479E+03  0.00000000000E+00 0. -1.
        -13    1    3    3    0    0 -0.50104569408E+02 -0.13010097558E+02 -0.13037956872E+03  0.14028029959E+03  0.00000000000E+00 0. -1.
         13    1    3    3    0    0 -0.28759848085E+01  0.20554122766E+02  0.72128052050E+01  0.21971977840E+02  0.00000000000E+00 0.  1.
         21    1    1    2  502  501  0.43346156944E+02 -0.60132711162E+02 -0.98763577759E+02  0.12348715142E+03  0.00000000000E+00 0. -1.
<scales pt_clust_5="13000.00000" pt_clust_6="13000.00000" pt_clust_7="13000.00000" pt_clust_8="13000.00000" pt_clust_9="74.12714"></scales>
<clustering>
<clus scale="   74.127">  1  9  2 -1</clus>
<clus scale="   80.268">  5  6 -1 -1</clus>
<clus scale="   90.048">  2  5  1 -1</clus>
<clus scale="   91.060">  7  8 -1 -1</clus>
<clus scale="   90.048">  2  5  1 -1</clus>
</clustering>
</event>
<event>
 9    2  0.2869112E-005  0.9950542E+02  0.7546771E-02  0.1281776E+00
          2   -1    0    0  502    0  0.00000000000E+00  0.00000000000E+00  0.27790987887E+03  0.27790987887E+03  0.00000000000E+00 0. -1.
         -1   -1    0    0    0  501 -0.00000000000E+00 -0.00000000000E+00 -0.77520616566E+02  0.77520616566E+02  0.00000000000E+00 0.  1.
         23    2    1    2    0    0 -0.17693007911E+02  0.49714903923E+02  0.11584406302E+01  0.10493033084E+03  0.90688577808E+02 0.  0.
         24    2    1    2    0    0  0.28659174894E+02 -0.23573849996E+02  0.19896426694E+03  0.22215086884E+03  0.91581408035E+02 0.  0.
        -13    1    4    4    0    0  0.38857941310E+02  0.21426525485E+01  0.25574806263E+02  0.46568243237E+02  0.00000000000E+00 0.  1.
         14    1    4    4    0    0 -0.10198766416E+02 -0.25716502545E+02  0.17338946067E+03  0.17558262560E+03  0.00000000000E+00 0. -1.
        -11    1    3    3    0    0 -0.49894290044E+02  0.16730722812E+02  0.18350391361E+02  0.55732343642E+02  0.00000000000E+00 0. -1.
         11    1    3    3    0    0  0.32201282133E+02  0.32984181111E+02 -0.17191950730E+02  0.49197987200E+02  0.00000000000E+00 0.  1.
         21    1    1    2  502  501 -0.10966166983E+02 -0.26141053927E+02  0.26655473996E+00  0.28349295761E+02  0.00000000000E+00 0.  1.
<scales pt_clust_5="13000.00000" pt_clust_6="13000.00000" pt_clust_7="13000.00000" pt_clust_8="13000.00000" pt_clust_9="28.34804"></scales>
<clustering>
<clus scale="   28.348">  2  9  1 -1</clus>
<clus scale="   90.689">  7  8 -1 -1</clus>
<clus scale="   91.581">  5  6 -1 -1</clus>
<clus scale="   98.684">  2  7  1 -1</clus>
<clus scale="   99.505">  1  5  2 -1</clus>
</clustering>
</event>
<event>
 9    2  0.2869112E-005  0.1273899E+03  0.7546771E-02  0.1233949E+00
         -1   -1    0    0    0  501 -0.00000000000E+00  0.00000000000E+00  0.45456969406E+02  0.45456969406E+02  0.00000000000E+00 0.  1.
          2   -1    0    0  502    0  0.00000000000E+00 -0.00000000000E+00 -0.10646007188E+04  0.10646007188E+04  0.00000000000E+00 0. -1.
         23    2    1    2    0    0  0.75671728422E+02  0.16150259975E+01 -0.93010756644E+02  0.15015048862E+03  0.90362323957E+02 0.  0.
         24    2    1    2    0    0 -0.84011144892E+02  0.39650165728E+02 -0.90398613247E+03  0.91233782564E+03  0.80866385336E+02 0.  0.
        -11    1    4    4    0    0 -0.18662799780E+02 -0.16822075723E+02 -0.80376420362E+02  0.84211942606E+02  0.00000000000E+00 0.  1.
         12    1    4    4    0    0 -0.65348345112E+02  0.56472241451E+02 -0.82360971211E+03  0.82812588303E+03  0.00000000000E+00 0. -1.
        -11    1    3    3    0    0  0.38368255088E+01 -0.32758507909E+02 -0.85621267273E+01  0.34075667044E+02  0.00000000000E+00 0. -1.
         11    1    3    3    0    0  0.71834902913E+02  0.34373533906E+02 -0.84448629917E+02  0.11607482158E+03  0.00000000000E+00 0.  1.
         21    1    1    2  502  501  0.83394164701E+01 -0.41265191726E+02 -0.22146860233E+02  0.47569373902E+02  0.00000000000E+00 0.  1.
<scales pt_clust_5="13000.00000" pt_clust_6="13000.00000" pt_clust_7="13000.00000" pt_clust_8="13000.00000" pt_clust_9="42.09943"></scales>
<clustering>
<clus scale="   42.099">  1  9  2 -1</clus>
<clus scale="   80.866">  5  6 -1 -1</clus>
<clus scale="   90.362">  7  8 -1 -1</clus>
<clus scale="  120.840">  2  5  1 -1</clus>
<clus scale="  120.840">  2  5  1 -1</clus>
</clustering>
</event>
<event>
 9    2  0.2869112E-005  0.1190735E+03  0.7546771E-02  0.1247127E+00
         -1   -1    0    0    0  501 -0.00000000000E+00  0.00000000000E+00  0.54683854526E+02  0.54683854526E+02  0.00000000000E+00 0.  1.
          2   -1    0    0  502    0  0.00000000000E+00 -0.00000000000E+00 -0.16428026057E+04  0.16428026057E+04  0.00000000000E+00 0. -1.
         23    2    1    2    0    0 -0.53049549589E+02 -0.48741588790E+02 -0.13905883170E+03  0.18042641032E+03  0.89589807888E+02 0.  0.
         24    2    1    2    0    0  0.66015816278E+01  0.70636597605E+02 -0.14596924355E+04  0.14646209849E+04  0.96847887261E+02 0.  0.
        -13    1    4    4    0    0 -0.19666328556E+02 -0.12568172284E+02 -0.13070752887E+03  0.13277492811E+03  0.00000000000E+00 0.  1.
         14    1    4    4    0    0  0.26267910183E+02  0.83204769889E+02 -0.13289849067E+04  0.13318460568E+04  0.00000000000E+00 0. -1.
        -11    1    3    3    0    0  0.18418658056E+02 -0.37628086892E+02 -0.61103634725E+02  0.74086260969E+02  0.00000000000E+00 0.  1.
         11    1    3    3    0    0 -0.71468207645E+02 -0.11113501899E+02 -0.77955196977E+02  0.10634014935E+03  0.00000000000E+00 0. -1.
         21    1    1    2  502  501  0.46447967962E+02 -0.21895008815E+02  0.10632516075E+02  0.52439064988E+02  0.00000000000E+00 0.  1.
<scales pt_clust_5="13000.00000" pt_clust_6="13000.00000" pt_clust_7="13000.00000" pt_clust_8="13000.00000" pt_clust_9="51.34983"></scales>
<clustering>
<clus scale="   51.350">  1  9  2 -1</clus>
<clus scale="   89.590">  7  8 -1 -1</clus>
<clus scale="   96.848">  5  6 -1 -1</clus>
<clus scale="  113.249">  1  7  2 -1</clus>
<clus scale="  119.074">  2  5  1 -1</clus>
</clustering>
</event>
<event>
 9    2  0.2869112E-005  0.1007794E+03  0.7546771E-02  0.1288013E+00
          2   -1    0    0  502    0  0.00000000000E+00  0.00000000000E+00  0.30990719604E+03  0.30990719604E+03  0.00000000000E+00 0. -1.
         -1   -1    0    0    0  501 -0.00000000000E+00 -0.00000000000E+00 -0.63446271211E+02  0.63446271211E+02  0.00000000000E+00 0.  1.
         23    2    1    2    0    0 -0.42054914004E+02 -0.13502116016E+01  0.33793698613E+02  0.11124228833E+03  0.97274836332E+02 0.  0.
         24    2    1    2    0    0  0.21115924476E+02  0.11140893348E+02  0.22194648298E+03  0.23720328184E+03  0.80219410598E+02 0.  0.
        -13    1    4    4    0    0 -0.16299439606E+02 -0.20970661560E+02  0.35431510726E+02  0.44281286454E+02  0.00000000000E+00 0.  1.
         14    1    4    4    0    0  0.37415364082E+02  0.32111554908E+02  0.18651497225E+03  0.19292199538E+03  0.00000000000E+00 0. -1.
        -13    1    3    3    0    0 -0.15008594030E+02  0.22260899177E+02  0.60702721574E+02  0.66374889329E+02  0.00000000000E+00 0. -1.
         13    1    3    3    0    0 -0.27046319974E+02 -0.23611110778E+02 -0.26909022961E+02  0.44867399000E+02  0.00000000000E+00 0.  1.
         21    1    1    2  502  501  0.20938989528E+02 -0.97906817463E+01 -0.92792567564E+01  0.24907897090E+02  0.00000000000E+00 0.  1.
<scales pt_clust_5="13000.00000" pt_clust_6="13000.00000" pt_clust_7="13000.00000" pt_clust_8="13000.00000" pt_clust_9="23.11490"></scales>
<clustering>
<clus scale="   23.115">  2  9  1 -1</clus>
<clus scale="   80.219">  5  6 -1 -1</clus>
<clus scale="   84.435">  1  5  2 -1</clus>
<clus scale="   97.275">  7  8 -1 -1</clus>
<clus scale="   84.435">  1  5  2 -1</clus>
</clustering>
</event>
<event>
 9    2  0.2869112E-005  0.2919662E+03  0.7546771E-02  0.1089834E+00
          2   -1    0    0  502    0  0.00000000000E+00  0.00000000000E+00  0.88423705435E+02  0.88423705435E+02  0.00000000000E+00 0. -1.
         -1   -1    0    0    0  501 -0.00000000000E+00 -0.00000000000E+00 -0.18952565196E+04  0.18952565196E+04  0.00000000000E+00 0.  1.
         23    2    1    2    0    0  0.24473106143E+03  0.17574623049E+03 -0.13319039143E+04  0.13687577329E+04  0.93539641877E+02 0.  0.
         24    2    1    2    0    0 -0.23095908301E+03 -0.14247304829E+03 -0.22281700737E+03  0.36025176668E+03  0.80580699369E+02 0.  0.
        -11    1    4    4    0    0 -0.20397743035E+03 -0.13097384301E+03 -0.22513912572E+03  0.33083011588E+03  0.00000000000E+00 0.  1.
         12    1    4    4    0    0 -0.26981652657E+02 -0.11499205276E+02  0.23221183471E+01  0.29421650798E+02  0.00000000000E+00 0. -1.
        -13    1    3    3    0    0  0.14299756541E+03  0.87161767713E+02 -0.53758457938E+03  0.56306541134E+03  0.00000000000E+00 0.  1.
         13    1    3    3    0    0  0.10173349602E+03  0.88584462778E+02 -0.79431933488E+03  0.80569232156E+03  0.00000000000E+00 0. -1.
         21    1    1    2  502  501 -0.13771978419E+02 -0.33273182202E+02 -0.25211189253E+03  0.25467072544E+03  0.00000000000E+00 0.  1.
<scales pt_clust_5="13000.00000" pt_clust_6="13000.00000" pt_clust_7="13000.00000" pt_clust_8="13000.00000" pt_clust_9="36.01072"></scales>
<clustering>
<clus scale="   36.011">  2  9  1 -1</clus>
<clus scale="   80.581">  5  6 -1 -1</clus>
<clus scale="   93.540">  7  8 -1 -1</clus>
<clus scale="  288.076">  1  5  2 -1</clus>
<clus scale="  288.076">  1  5  2 -1</clus>
</clustering>
</event>
<event>
 9    2  0.2869112E-005  0.1791007E+03  0.7546771E-02  0.1169236E+00
         -1   -1    0    0    0  501 -0.00000000000E+00  0.00000000000E+00  0.14062590057E+03  0.14062590057E+03  0.00000000000E+00 0.  1.
          2   -1    0    0  502    0  0.00000000000E+00 -0.00000000000E+00 -0.81221043733E+03  0.81221043733E+03  0.00000000000E+00 0. -1.
         24    2    1    2    0    0  0.14163153160E+03  0.57611253937E+02  0.45510152161E+02  0.18042616159E+03  0.84284509331E+02 0.  0.
         23    2    1    2    0    0 -0.19602754137E+03 -0.69806583089E+02 -0.63717498159E+03  0.67496885268E+03  0.79317330445E+02 0.  0.
        -11    1    3    3    0    0  0.14092481941E+03  0.26832209847E+02  0.41762323159E+02  0.14941172593E+03  0.00000000000E+00 0.  1.
         12    1    3    3    0    0  0.70671219671E+00  0.30779044090E+02  0.37478290023E+01  0.31014435663E+02  0.00000000000E+00 0. -1.
        -13    1    4    4    0    0 -0.12345584852E+03 -0.46526297170E+02 -0.50924139102E+03  0.52605402497E+03  0.00000000000E+00 0. -1.
         13    1    4    4    0    0 -0.72571692849E+02 -0.23280285919E+02 -0.12793359057E+03  0.14891482771E+03  0.00000000000E+00 0.  1.
         21    1    1    2  502  501  0.54396009763E+02  0.12195329152E+02 -0.79919707336E+02  0.97441323636E+02  0.00000000000E+00 0.  1.
<scales pt_clust_5="13000.00000" pt_clust_6="13000.00000" pt_clust_7="13000.00000" pt_clust_8="13000.00000" pt_clust_9="55.74632"></scales>
<clustering>
<clus scale="   55.746">  2  9  1 -1</clus>
<clus scale="   79.317">  7  8 -1 -1</clus>
<clus scale="   84.285">  5  6 -1 -1</clus>
<clus scale="  176.817">  2  7  1 -1</clus>
<clus scale="   55.746">  2  5  1 -1</clus>
</clustering>
</event>
<event>
 9    2  0.2869112E-005  0.1073374E+03  0.7546771E-02  0.1272798E+00
          2   -1    0    0  502    0  0.00000000000E+00  0.00000000000E+00  0.60750898539E+03  0.60750898539E+03  0.00000000000E+00 0. -1.
         -1   -1    0    0    0  501 -0.00000000000E+00 -0.00000000000E+00 -0.17615559239E+03  0.17615559239E+03  0.00000000000E+00 0.  1.
         23    2    1    2    0    0 -0.42227501558E+02  0.33052338227E+02 -0.14635534742E+03  0.18317195713E+03  0.96210494286E+02 0.  0.
         24    2    1    2    0    0  0.46399409842E+02 -0.10475838960E+02  0.56791511074E+03  0.57553228572E+03  0.80294398656E+02 0.  0.
        -11    1    4    4    0    0  0.22907634500E+02 -0.84936384312E+01  0.38533591281E+02  0.45626081020E+02  0.00000000000E+00 0.  1.
         12    1    4    4    0    0  0.23491775342E+02 -0.19822005286E+01  0.52938151946E+03  0.52990620470E+03  0.00000000000E+00 0. -1.
        -13    1    3    3    0    0 -0.27355370437E+02 -0.14971551953E+02 -0.12451192838E+03  0.12835764087E+03  0.00000000000E+00 0.  1.
         13    1    3    3    0    0 -0.14872131122E+02  0.48023890180E+02 -0.21843419036E+02  0.54814316262E+02  0.00000000000E+00 0. -1.
         21    1    1    2  502  501 -0.41719082836E+01 -0.22576499267E+02  0.97936296676E+01  0.24960334933E+02  0.00000000000E+00 0. -1.
<scales pt_clust_5="13000.00000" pt_clust_6="13000.00000" pt_clust_7="13000.00000" pt_clust_8="13000.00000" pt_clust_9="22.95873"></scales>
<clustering>
<clus scale="   22.959">  2  9  1 -1</clus>
<clus scale="   80.294">  5  6 -1 -1</clus>
<clus scale="   93.338">  1  5  2 -1</clus>
<clus scale="   96.210">  7  8 -1 -1</clus>
<clus scale="   93.338">  1  5  2 -1</clus>
</clustering>
</event>
<event>
 9    2  0.2869112E-005  0.1034515E+03  0.7546771E-02  0.1276693E+00
          2   -1    0    0  502    0  0.00000000000E+00  0.00000000000E+00  0.55183680702E+03  0.55183680702E+03  0.00000000000E+00 0. -1.
         -1   -1    0    0    0  501 -0.00000000000E+00 -0.00000000000E+00 -0.35121042427E+02  0.35121042427E+02  0.00000000000E+00 0.  1.
         23    2    1    2    0    0 -0.16588219572E+02 -0.94013125158E+01  0.11453020585E+03  0.14610649251E+03  0.88692645666E+02 0.  0.
         24    2    1    2    0    0  0.56698292899E+02  0.41751748164E+02  0.35556905233E+03  0.37136418302E+03  0.80771904536E+02 0.  0.
        -13    1    4    4    0    0  0.44146608846E+02  0.11235780647E+02  0.67633787987E+02  0.81544436455E+02  0.00000000000E+00 0.  1.
         14    1    4    4    0    0  0.12551684053E+02  0.30515967517E+02  0.28793526434E+03  0.28981974656E+03  0.00000000000E+00 0. -1.
        -13    1    3    3    0    0 -0.17327556937E+02  0.23689271228E+02  0.10858027211E+03  0.11247711452E+03  0.00000000000E+00 0. -1.
         13    1    3    3    0    0  0.73933736447E+00 -0.33090583744E+02  0.59499337476E+01  0.33629377988E+02  0.00000000000E+00 0.  1.
         21    1    1    2  502  501 -0.40110073327E+02 -0.32350435648E+02  0.46616506405E+02  0.69487173912E+02  0.00000000000E+00 0.  1.
<scales pt_clust_5="13000.00000" pt_clust_6="13000.00000" pt_clust_7="13000.00000" pt_clust_8="13000.00000" pt_clust_9="51.53027"></scales>
<clustering>
<clus scale="   51.530">  2  9  1 -1</clus>
<clus scale="   80.772">  5  6 -1 -1</clus>
<clus scale="   88.693">  7  8 -1 -1</clus>
<clus scale="   96.747">  1  5  2 -1</clus>
<clus scale="   96.747">  1  5  2 -1</clus>
</clustering>
</event>
<event>
 9    2  0.2869112E-005  0.1105062E+03  0.7546771E-02  0.1265307E+00
         -1   -1    0    0    0  501 -0.00000000000E+00  0.00000000000E+00  0.19550793555E+03  0.19550793555E+03  0.00000000000E+00 0.  1.
          2   -1    0    0  502    0  0.00000000000E+00 -0.00000000000E+00 -0.53897674853E+03  0.53897674853E+03  0.00000000000E+00 0. -1.
         23    2    1    2    0    0 -0.32263016532E+01 -0.48316471356E+02 -0.16312599719E+03  0.19992157384E+03  0.10494595896E+03 0.  0.
         24    2    1    2    0    0 -0.49095656763E+02 -0.75562064623E+01 -0.34087543583E+03  0.35671467602E+03  0.92638099959E+02 0.  0.
        -11    1    4    4    0    0  0.26838396222E+02 -0.63240964189E+01 -0.12070843778E+03  0.12381769122E+03  0.00000000000E+00 0.  1.
         12    1    4    4    0    0 -0.75934052985E+02 -0.12321100435E+01 -0.22016699805E+03  0.23289698480E+03  0.00000000000E+00 0. -1.
        -11    1    3    3    0    0  0.18295240337E+02  0.29209994997E+02 -0.39545791065E+02  0.52457689786E+02  0.00000000000E+00 0.  1.
         11    1    3    3    0    0 -0.21521541990E+02 -0.77526466353E+02 -0.12358020612E+03  0.14746388405E+03  0.00000000000E+00 0. -1.
         21    1    1    2  502  501  0.52321958417E+02  0.55872677819E+02  0.16053262004E+03  0.17784843423E+03  0.00000000000E+00 0.  1.
<scales pt_clust_5="13000.00000" pt_clust_6="13000.00000" pt_clust_7="13000.00000" pt_clust_8="13000.00000" pt_clust_9="76.54635"></scales>
<clustering>
<clus scale="   76.546">  1  9  2 -1</clus>
<clus scale="   92.638">  5  6 -1 -1</clus>
<clus scale="   98.893">  2  5  1 -1</clus>
<clus scale="  104.946">  7  8 -1 -1</clus>
<clus scale="   98.893">  2  5  1 -1</clus>
</clustering>
</event>
<event>
 9    2  0.2869112E-005  0.8910725E+02  0.7546771E-02  0.1309566E+00
          2   -1    0    0  502    0  0.00000000000E+00  0.00000000000E+00  0.55471233898E+02  0.55471233898E+02  0.00000000000E+00 0. -1.
         -1   -1    0    0    0  501 -0.00000000000E+00 -0.00000000000E+00 -0.52551333729E+03  0.52551333729E+03  0.00000000000E+00 0.  1.
         23    2    1    2    0    0  0.50031543594E+02 -0.37846479291E+02 -0.37791721983E+03  0.39321572680E+03  0.88666066842E+02 0.  0.
         24    2    1    2    0    0 -0.36653065660E+01 -0.10242274404E+01 -0.51320444128E+01  0.81804162342E+02  0.81554273846E+02 0.  0.
        -11    1    4    4    0    0  0.30675136836E+02 -0.21392374169E+02 -0.15611140605E+02  0.40525367407E+02  0.00000000000E+00 0.  1.
         12    1    4    4    0    0 -0.34340443402E+02  0.20368146729E+02  0.10479096192E+02  0.41278794934E+02  0.00000000000E+00 0. -1.
        -11    1    3    3    0    0  0.57049860071E+02  0.74003606725E+01 -0.26869177756E+03  0.27478122789E+03  0.00000000000E+00 0.  1.
         11    1    3    3    0    0 -0.70183164775E+01 -0.45246839964E+02 -0.10922544227E+03  0.11843449891E+03  0.00000000000E+00 0. -1.
         21    1    1    2  502  501 -0.46366237028E+02  0.38870706732E+02 -0.86992839147E+02  0.10596468204E+03  0.00000000000E+00 0.  1.
<scales pt_clust_5="13000.00000" pt_clust_6="13000.00000" pt_clust_7="13000.00000" pt_clust_8="13000.00000" pt_clust_9="60.50421"></scales>
<clustering>
<clus scale="   60.504">  2  9  1 -1</clus>
<clus scale="   81.554">  5  6 -1 -1</clus>
<clus scale="   82.034">  1  5  2 -1</clus>
<clus scale="   88.666">  7  8 -1 -1</clus>
<clus scale="   82.034">  1  5  2 -1</clus>
</clustering>
</event>
<event>
 9    2  0.2869112E-005  0.1458036E+03  0.7546771E-02  0.1230597E+00
          2   -1    0    0  502    0  0.00000000000E+00  0.00000000000E+00  0.72947391665E+03  0.72947391665E+03  0.00000000000E+00 0. -1.
         -1   -1    0    0    0  501 -0.00000000000E+00 -0.00000000000E+00 -0.60662363639E+02  0.60662363639E+02  0.00000000000E+00 0.  1.
         23    2    1    2    0    0 -0.10086751451E+03  0.29323267072E+02  0.17447673709E+03  0.22398010698E+03  0.93224712702E+02 0.  0.
         24    2    1    2    0    0 -0.17701129515E+02 -0.49090925875E+02  0.41079610624E+03  0.41977311522E+03  0.68795191479E+02 0.  0.
        -13    1    4    4    0    0  0.19966676749E+01 -0.62492117794E+02  0.29730213415E+03  0.30380554708E+03  0.00000000000E+00 0.  1.
         14    1    4    4    0    0 -0.19697797190E+02  0.13401191919E+02  0.11349397209E+03  0.11596756814E+03  0.00000000000E+00 0. -1.
        -13    1    3    3    0    0 -0.63429079364E+02  0.18995701136E+02  0.27051651265E+02  0.71525356390E+02  0.00000000000E+00 0.  1.
         13    1    3    3    0    0 -0.37438435151E+02  0.10327565936E+02  0.14742508583E+03  0.15245475059E+03  0.00000000000E+00 0. -1.
         21    1    1    2  502  501  0.11856864403E+03  0.19767658803E+02  0.83538709673E+02  0.14638305809E+03  0.00000000000E+00 0. -1.
<scales pt_clust_5="13000.00000" pt_clust_6="13000.00000" pt_clust_7="13000.00000" pt_clust_8="13000.00000" pt_clust_9="112.10640"></scales>
<clustering>
<clus scale="   68.795">  5  6 -1 -1</clus>
<clus scale="   86.348">  1  5  2 -1</clus>
<clus scale="   93.225">  7  8 -1 -1</clus>
<clus scale="  112.106">  2  9  1 -1</clus>
<clus scale="   86.348">  1  5  2 -1</clus>
</clustering>
</event>
<event>
 9    2  0.2869112E-005  0.9711071E+02  0.7546771E-02  0.1302314E+00
         -1   -1    0    0    0  501 -0.00000000000E+00  0.00000000000E+00  0.60132490456E+02  0.60132490456E+02  0.00000000000E+00 0.  1.
          2   -1    0    0  502    0  0.00000000000E+00 -0.00000000000E+00 -0.30749386033E+03  0.30749386033E+03  0.00000000000E+00 0. -1.
         23    2    1    2    0    0 -0.11302705982E+01  0.16439008216E+02 -0.41411727689E+02  0.10666208749E+03  0.96903824559E+02 0.  0.
         24    2    1    2    0    0  0.26044997244E+01  0.98909035349E+01 -0.21954191301E+03  0.23129631038E+03  0.72074393786E+02 0.  0.
        -13    1    4    4    0    0 -0.31149676304E+02  0.20083402717E+02 -0.99296397664E+02  0.10598782943E+03  0.00000000000E+00 0.  1.
         14    1    4    4    0    0  0.33754176028E+02 -0.10192499182E+02 -0.12024551534E+03  0.12530848095E+03  0.00000000000E+00 0. -1.
        -11    1    3    3    0    0 -0.34123137226E+02  0.21882318234E+02  0.13195211012E+02  0.42630246763E+02  0.00000000000E+00 0.  1.
         11    1    3    3    0    0  0.32992866628E+02 -0.54433100184E+01 -0.54606938701E+02  0.64031840724E+02  0.00000000000E+00 0. -1.
         21    1    1    2  502  501 -0.14742291262E+01 -0.26329911750E+02  0.13592270818E+02  0.29667952917E+02  0.00000000000E+00 0.  1.
<scales pt_clust_5="13000.00000" pt_clust_6="13000.00000" pt_clust_7="13000.00000" pt_clust_8="13000.00000" pt_clust_9="26.37115"></scales>
<clustering>
<clus scale="   26.371">  1  9  2 -1</clus>
<clus scale="   72.074">  5  6 -1 -1</clus>
<clus scale="   72.352">  2  5  1 -1</clus>
<clus scale="   96.904">  7  8 -1 -1</clus>
<clus scale="   72.352">  2  5  1 -1</clus>
</clustering>
</event>
<event>
 9    2  0.2869112E-005  0.1943992E+03  0.7546771E-02  0.1155739E+00
          2   -1    0    0  502    0  0.00000000000E+00  0.00000000000E+00  0.10510631299E+04  0.10510631299E+04  0.00000000000E+00 0. -1.
         -1   -1    0    0    0  501 -0.00000000000E+00 -0.00000000000E+00 -0.53001421508E+02  0.53001421508E+02  0.00000000000E+00 0.  1.
         23    2    1    2    0    0  0.16704304870E+03  0.35277242611E+02  0.20861429200E+03  0.28528256929E+03  0.93372145494E+02 0.  0.
         24    2    1    2    0    0 -0.17080882646E+03 -0.11039369331E+02  0.73483400011E+03  0.75891311858E+03  0.81673685837E+02 0.  0.
        -13    1    4    4    0    0 -0.44415072436E+02  0.28274977571E+02  0.14110721944E+03  0.15061016033E+03  0.00000000000E+00 0.  1.
         14    1    4    4    0    0 -0.12639375403E+03 -0.39314346901E+02  0.59372678067E+03  0.60830295825E+03  0.00000000000E+00 0. -1.
        -11    1    3    3    0    0  0.80754453864E+02 -0.15415674727E+02  0.45634049566E+02  0.94028672892E+02  0.00000000000E+00 0.  1.
         11    1    3    3    0    0  0.86288594832E+02  0.50692917337E+02  0.16298024243E+03  0.19125389640E+03  0.00000000000E+00 0. -1.
         21    1    1    2  502  501  0.37657777665E+01 -0.24237873280E+02  0.54613416334E+02  0.59868863585E+02  0.00000000000E+00 0.  1.
<scales pt_clust_5="13000.00000" pt_clust_6="13000.00000" pt_clust_7="13000.00000" pt_clust_8="13000.00000" pt_clust_9="24.52867"></scales>
<clustering>
<clus scale="   24.529">  1  9  2 -1</clus>
<clus scale="   81.674">  5  6 -1 -1</clus>
<clus scale="   93.372">  7  8 -1 -1</clus>
<clus scale="  189.059">  1  5  2 -1</clus>
<clus scale="   24.529">  1  5  2 -1</clus>
</clustering>
</event>
<event>
 9    2  0.2869112E-005  0.1399110E+03  0.7546771E-02  0.1215043E+00
         -1   -1    0    0    0  501 -0.00000000000E+00  0.00000000000E+00  0.55635215584E+03  0.55635215584E+03  0.00000000000E+00 0.  1.
          2   -1    0    0  502    0  0.00000000000E+00 -0.00000000000E+00 -0.65874018639E+02  0.65874018639E+02  0.00000000000E+00 0. -1.
         24    2    1    2    0    0  0.25798245987E+02 -0.96663717042E+02  0.36636077428E+03  0.38879146953E+03  0.83241613183E+02 0.  0.
         23    2    1    2    0    0 -0.39432689371E+02  0.12836300972E+03  0.91992730502E+02  0.18628881211E+03  0.90602758211E+02 0.  0.
        -11    1    3    3    0    0  0.29884480670E+02 -0.56013518523E+02  0.32313915782E+03  0.32931673471E+03  0.00000000000E+00 0.  1.
         12    1    3    3    0    0 -0.40862346830E+01 -0.40650198519E+02  0.43221616459E+02  0.59474734827E+02  0.00000000000E+00 0. -1.
        -13    1    4    4    0    0 -0.22562574441E+01  0.68522681783E+02 -0.22845513669E+01  0.68597870167E+02  0.00000000000E+00 0. -1.
         13    1    4    4    0    0 -0.37176431927E+02  0.59840327942E+02  0.94277281869E+02  0.11769094194E+03  0.00000000000E+00 0.  1.
         21    1    1    2  502  501  0.13634443384E+02 -0.31699292683E+02  0.32124632422E+02  0.47145892835E+02  0.00000000000E+00 0. -1.
<scales pt_clust_5="13000.00000" pt_clust_6="13000.00000" pt_clust_7="13000.00000" pt_clust_8="13000.00000" pt_clust_9="34.50715"></scales>
<clustering>
<clus scale="   34.507">  2  9  1 -1</clus>
<clus scale="   83.242">  5  6 -1 -1</clus>
<clus scale="   90.603">  7  8 -1 -1</clus>
<clus scale="  135.260">  1  5  2 -1</clus>
<clus scale="   34.507">  2  5  1 -1</clus>
</clustering>
</event>
<event>
 9    2  0.2869112E-005  0.1214928E+03  0.7546771E-02  0.1243111E+00
         -1   -1    0    0    0  501 -0.00000000000E+00  0.00000000000E+00  0.27417206874E+02  0.27417206874E+02  0.00000000000E+00 0.  1.
          2   -1    0    0  502    0  0.00000000000E+00 -0.00000000000E+00 -0.96071965655E+03  0.96071965655E+03  0.00000000000E+00 0. -1.
         23    2    1    2    0    0  0.36209223131E+02  0.79456322393E+02 -0.18264028594E+03  0.22090413535E+03  0.88412374477E+02 0.  0.
         24    2    1    2    0    0 -0.56001945814E+02 -0.61491397258E+02 -0.70439603080E+03  0.71380010261E+03  0.80121210733E+02 0.  0.
        -13    1    4    4    0    0 -0.33576514217E+02  0.34994901585E+01 -0.10083298733E+03  0.10633400242E+03  0.00000000000E+00 0.  1.
         14    1    4    4    0    0 -0.22425431597E+02 -0.64990887417E+02 -0.60356304347E+03  0.60746610019E+03  0.00000000000E+00 0. -1.
        -13    1    3    3    0    0  0.56599347567E+02  0.85596345346E+02 -0.14464143317E+03  0.17734532605E+03  0.00000000000E+00 0.  1.
         13    1    3    3    0    0 -0.20390124436E+02 -0.61400229536E+01 -0.37998852769E+02  0.43558809306E+02  0.00000000000E+00 0. -1.
         21    1    1    2  502  501  0.19792722684E+02 -0.17964925134E+02 -0.46266132933E+02  0.53432625453E+02  0.00000000000E+00 0. -1.
<scales pt_clust_5="13000.00000" pt_clust_6="13000.00000" pt_clust_7="13000.00000" pt_clust_8="13000.00000" pt_clust_9="26.72995"></scales>
<clustering>
<clus scale="   26.730">  1  9  2 -1</clus>
<clus scale="   80.121">  5  6 -1 -1</clus>
<clus scale="   88.412">  7  8 -1 -1</clus>
<clus scale="  115.599">  2  5  1 -1</clus>
<clus scale="  115.599">  2  5  1 -1</clus>
</clustering>
</event>
<event>
 9    2  0.2869112E-005  0.1294871E+03  0.7546771E-02  0.1229206E+00
         -1   -1    0    0    0  501 -0.00000000000E+00  0.00000000000E+00  0.42800632430E+02  0.42800632430E+02  0.00000000000E+00 0.  1.
          2   -1    0    0  502    0  0.00000000000E+00 -0.00000000000E+00 -0.88723789572E+03  0.88723789572E+03  0.00000000000E+00 0. -1.
         23    2    1    2    0    0 -0.31582256368E+02 -0.75098442075E+02 -0.60310700326E+02  0.12343197998E+03  0.70433359918E+02 0.  0.
         24    2    1    2    0    0  0.41614020736E+02  0.10180195308E+03 -0.75177662865E+03  0.76347614072E+03  0.75049008645E+02 0.  0.
        -13    1    4    4    0    0 -0.12443797404E+02  0.16484319083E+02 -0.44929411122E+02  0.49449295781E+02  0.00000000000E+00 0.  1.
         14    1    4    4    0    0  0.54057818140E+02  0.85317633993E+02 -0.70684721753E+03  0.71402684494E+03  0.00000000000E+00 0. -1.
        -13    1    3    3    0    0 -0.61547315529E+01 -0.42955394166E+02 -0.69024086051E+02  0.81531411515E+02  0.00000000000E+00 0. -1.
         13    1    3    3    0    0 -0.25427524815E+02 -0.32143047909E+02  0.87133857254E+01  0.41900568468E+02  0.00000000000E+00 0.  1.
         21    1    1    2  502  501 -0.10031764367E+02 -0.26703511000E+02 -0.32349934314E+02  0.43130407443E+02  0.00000000000E+00 0.  1.
<scales pt_clust_5="13000.00000" pt_clust_6="13000.00000" pt_clust_7="13000.00000" pt_clust_8="13000.00000" pt_clust_9="28.52567"></scales>
<clustering>
<clus scale="   28.526">  1  9  2 -1</clus>
<clus scale="   70.433">  7  8 -1 -1</clus>
<clus scale="   75.049">  5  6 -1 -1</clus>
<clus scale="  126.868">  1  7  2 -1</clus>
<clus scale="  129.487">  2  5  1 -1</clus>
</clustering>
</event>
<event>
 9    2  0.2869112E-005  0.1080725E+03  0.7546771E-02  0.1265855E+00
          2   -1    0    0  502    0  0.00000000000E+00  0.00000000000E+00  0.22977093790E+03  0.22977093790E+03  0.00000000000E+00 0. -1.
         -1   -1    0    0    0  501 -0.00000000000E+00 -0.00000000000E+00 -0.10712437605E+03  0.10712437605E+03  0.00000000000E+00 0.  1.
         23    2    1    2    0    0  0.25829346878E+02 -0.15491428539E+02 -0.45609228952E+02  0.10410474700E+03  0.88602805058E+02 0.  0.
         24    2    1    2    0    0 -0.66487055112E+02  0.19918472786E+02  0.15535135605E+03  0.18990499367E+03  0.84336165066E+02 0.  0.
        -11    1    4    4    0    0 -0.59633487787E+02  0.12326607547E+02  0.37297035041E+02  0.71408451476E+02  0.00000000000E+00 0.  1.
         12    1    4    4    0    0 -0.68535673250E+01  0.75918652387E+01  0.11805432101E+03  0.11849654219E+03  0.00000000000E+00 0. -1.
        -13    1    3    3    0    0  0.49603473122E+02  0.17776087049E+02 -0.25558314046E+02  0.58563821882E+02  0.00000000000E+00 0.  1.
         13    1    3    3    0    0 -0.23774126244E+02 -0.33267515588E+02 -0.20050914905E+02  0.45540925118E+02  0.00000000000E+00 0. -1.
         21    1    1    2  502  501  0.40657708234E+02 -0.44270442463E+01  0.12904434744E+02  0.42885573281E+02  0.00000000000E+00 0. -1.
<scales pt_clust_5="13000.00000" pt_clust_6="13000.00000" pt_clust_7="13000.00000" pt_clust_8="13000.00000" pt_clust_9="40.89802"></scales>
<clustering>
<clus scale="   40.898">  2  9  1 -1</clus>
<clus scale="   84.336">  5  6 -1 -1</clus>
<clus scale="   88.603">  7  8 -1 -1</clus>
<clus scale="  104.603">  1  5  2 -1</clus>
<clus scale="  104.603">  1  5  2 -1</clus>
</clustering>
</event>
<event>
 9    2  0.2869112E-005  0.9786924E+02  0.7546771E-02  0.1290726E+00
          2   -1    0    0  502    0  0.00000000000E+00  0.00000000000E+00  0.57069555054E+03  0.57069555054E+03  0.00000000000E+00 0. -1.
         -1   -1    0    0    0  501 -0.00000000000E+00 -0.00000000000E+00 -0.11091479227E+03  0.11091479227E+03  0.00000000000E+00 0.  1.
         23    2    1    2    0    0  0.40668492713E+02  0.63694481761E+01 -0.37776532165E+02  0.10704289870E+03  0.91305090821E+02 0.  0.
         24    2    1    2    0    0 -0.25837952357E+02  0.24660572632E+02  0.52392342806E+03  0.53123177368E+03  0.80222785243E+02 0.  0.
        -11    1    4    4    0    0  0.14051630538E+02  0.35868238464E+02  0.14428706834E+03  0.14934100891E+03  0.00000000000E+00 0.  1.
         12    1    4    4    0    0 -0.39889582895E+02 -0.11207665832E+02  0.37963635972E+03  0.38189076477E+03  0.00000000000E+00 0. -1.
        -13    1    3    3    0    0  0.26955299351E+02 -0.41984558876E+02 -0.19132840469E+02  0.53435539967E+02  0.00000000000E+00 0.  1.
         13    1    3    3    0    0  0.13713193362E+02  0.48354007052E+02 -0.18643691696E+02  0.53607358732E+02  0.00000000000E+00 0. -1.
         21    1    1    2  502  501 -0.14830540355E+02 -0.31030020808E+02 -0.26366137624E+02  0.43335670432E+02  0.00000000000E+00 0.  1.
<scales pt_clust_5="13000.00000" pt_clust_6="13000.00000" pt_clust_7="13000.00000" pt_clust_8="13000.00000" pt_clust_9="34.39196"></scales>
<clustering>
<clus scale="   34.392">  2  9  1 -1</clus>
<clus scale="   80.223">  5  6 -1 -1</clus>
<clus scale="   87.621">  1  5  2 -1</clus>
<clus scale="   91.305">  7  8 -1 -1</clus>
<clus scale="   87.621">  1  5  2 -1</clus>
</clustering>
</event>
<event>
 9    2  0.2869112E-005  0.1033796E+03  0.7546771E-02  0.1277191E+00
          2   -1    0    0  502    0  0.00000000000E+00  0.00000000000E+00  0.33244300529E+03  0.33244300529E+03  0.00000000000E+00 0. -1.
         -1   -1    0    0    0  501 -0.00000000000E+00 -0.00000000000E+00 -0.32766791499E+03  0.32766791499E+03  0.00000000000E+00 0.  1.
         23    2    1    2    0    0  0.61403197925E+02 -0.12876174005E+02 -0.22975313667E+01  0.10948013534E+03  0.89690985123E+02 0.  0.
         24    2    1    2    0    0 -0.43265834486E+02 -0.29162281077E+02  0.26846319928E+03  0.28526079846E+03  0.81110188626E+02 0.  0.
        -11    1    4    4    0    0 -0.46210073719E+02  0.10513152372E+02  0.82983928041E+02  0.95562699831E+02  0.00000000000E+00 0.  1.
         12    1    4    4    0    0  0.29442392329E+01 -0.39675433449E+02  0.18547927124E+03  0.18969809863E+03  0.00000000000E+00 0. -1.
        -11    1    3    3    0    0  0.45310544672E+02  0.15516860888E+02 -0.37978603001E+02  0.61124403605E+02  0.00000000000E+00 0.  1.
         11    1    3    3    0    0  0.16092653253E+02 -0.28393034892E+02  0.35681071634E+02  0.48355731740E+02  0.00000000000E+00 0. -1.
         21    1    1    2  502  501 -0.18137363439E+02  0.42038455082E+02 -0.26139057761E+03  0.26536998647E+03  0.00000000000E+00 0.  1.
<scales pt_clust_5="13000.00000" pt_clust_6="13000.00000" pt_clust_7="13000.00000" pt_clust_8="13000.00000" pt_clust_9="45.78423"></scales>
<clustering>
<clus scale="   45.784">  2  9  1 -1</clus>
<clus scale="   81.110">  5  6 -1 -1</clus>
<clus scale="   89.691">  7  8 -1 -1</clus>
<clus scale="   96.030">  1  5  2 -1</clus>
<clus scale="   96.030">  1  5  2 -1</clus>
</clustering>
</event>
<event>
 9    2  0.2869112E-005  0.1308410E+03  0.7546771E-02  0.1228431E+00
         -1   -1    0    0    0  501 -0.00000000000E+00  0.00000000000E+00  0.13973065296E+03  0.13973065296E+03  0.00000000000E+00 0.  1.
          2   -1    0    0  502    0  0.00000000000E+00 -0.00000000000E+00 -0.82798798768E+03  0.82798798768E+03  0.00000000000E+00 0. -1.
         23    2    1    2    0    0 -0.91674575439E+02  0.26377472222E+02  0.84147904862E+02  0.15690463828E+03  0.91859658169E+02 0.  0.
         24    2    1    2    0    0  0.68603832059E+02  0.53509386233E+02 -0.66054724487E+03  0.67143545188E+03  0.83265618029E+02 0.  0.
        -11    1    4    4    0    0  0.18706893119E+02  0.37626727281E+02 -0.10030144698E+03  0.10874786766E+03  0.00000000000E+00 0.  1.
         12    1    4    4    0    0  0.49896938940E+02  0.15882658953E+02 -0.56024579790E+03  0.56268758422E+03  0.00000000000E+00 0. -1.
        -13    1    3    3    0    0 -0.95254114883E+02  0.64001626354E+01  0.94319341695E+02  0.13420300556E+03  0.00000000000E+00 0.  1.
         13    1    3    3    0    0  0.35795394436E+01  0.19977309587E+02 -0.10171436833E+02  0.22701632721E+02  0.00000000000E+00 0. -1.
         21    1    1    2  502  501  0.23070743380E+02 -0.79886858455E+02 -0.11185799471E+03  0.13937855048E+03  0.00000000000E+00 0.  1.
<scales pt_clust_5="13000.00000" pt_clust_6="13000.00000" pt_clust_7="13000.00000" pt_clust_8="13000.00000" pt_clust_9="83.15148"></scales>
<clustering>
<clus scale="   83.151">  2  9  1 -1</clus>
<clus scale="   83.266">  5  6 -1 -1</clus>
<clus scale="   91.860">  7  8 -1 -1</clus>
<clus scale="  124.957">  2  5  1 -1</clus>
<clus scale="   83.151">  2  5  1 -1</clus>
</clustering>
</event>
<event>
 9    2  0.2869112E-005  0.1211693E+03  0.7546771E-02  0.1245010E+00
          2   -1    0    0  502    0  0.00000000000E+00  0.00000000000E+00  0.62280667193E+03  0.62280667193E+03  0.00000000000E+00 0. -1.
         -1   -1    0    0    0  501 -0.00000000000E+00 -0.00000000000E+00 -0.87380096977E+02  0.87380096977E+02  0.00000000000E+00 0.  1.
         24    2    1    2    0    0  0.51246443086E+02 -0.16819499144E+02  0.31049963752E+02  0.10126466464E+03  0.79883280945E+02 0.  0.
         23    2    1    2    0    0 -0.71490592890E+02  0.44017924245E+02  0.54323555263E+03  0.55735082101E+03  0.92122687290E+02 0.  0.
        -11    1    3    3    0    0  0.47022400428E+02 -0.37383829163E+02  0.45856942691E+02  0.75574572562E+02  0.00000000000E+00 0.  1.
         12    1    3    3    0    0  0.42240426580E+01  0.20564330019E+02 -0.14806978939E+02  0.25690092075E+02  0.00000000000E+00 0. -1.
        -11    1    4    4    0    0 -0.59255436763E+02  0.72501272735E+02  0.41006028430E+03  0.42061511872E+03  0.00000000000E+00 0. -1.
         11    1    4    4    0    0 -0.12235156126E+02 -0.28483348490E+02  0.13317526833E+03  0.13673570229E+03  0.00000000000E+00 0.  1.
         21    1    1    2  502  501  0.20244149804E+02 -0.27198425102E+02 -0.38858941422E+02  0.51571283266E+02  0.00000000000E+00 0.  1.
<scales pt_clust_5="13000.00000" pt_clust_6="13000.00000" pt_clust_7="13000.00000" pt_clust_8="13000.00000" pt_clust_9="33.90546"></scales>
<clustering>
<clus scale="   33.905">  2  9  1 -1</clus>
<clus scale="   79.883">  5  6 -1 -1</clus>
<clus scale="   92.123">  7  8 -1 -1</clus>
<clus scale="  112.146">  2  5  1 -1</clus>
<clus scale="  121.169">  1  5  2 -1</clus>
</clustering>
</event>
<event>
 9    2  0.2869112E-005  0.9304214E+02  0.7546771E-02  0.1304583E+00
         -1   -1    0    0    0  501 -0.00000000000E+00  0.00000000000E+00  0.44790901775E+02  0.44790901775E+02  0.00000000000E+00 0.  1.
          2   -1    0    0  502    0  0.00000000000E+00 -0.00000000000E+00 -0.43576551430E+03  0.43576551430E+03  0.00000000000E+00 0. -1.
         23    2    1    2    0    0  0.10036773345E+02 -0.25494060407E+02 -0.47758423171E+02  0.10484813063E+03  0.89227683925E+02 0.  0.
         24    2    1    2    0    0 -0.26478923907E+02  0.80161693100E+01 -0.34263537512E+03  0.35170498697E+03  0.74377450847E+02 0.  0.
        -13    1    4    4    0    0 -0.24557341270E+02 -0.29274264925E+02 -0.11930572093E+03  0.12527529942E+03  0.00000000000E+00 0.  1.
         14    1    4    4    0    0 -0.19215826373E+01  0.37290434235E+02 -0.22332965419E+03  0.22642968756E+03  0.00000000000E+00 0. -1.
        -13    1    3    3    0    0 -0.33107276039E+02 -0.29781453548E+02 -0.65094690976E+01  0.45004443004E+02  0.00000000000E+00 0.  1.
         13    1    3    3    0    0  0.43144049384E+02  0.42873931408E+01 -0.41248954073E+02  0.59843687631E+02  0.00000000000E+00 0. -1.
         21    1    1    2  502  501  0.16442150562E+02  0.17477891097E+02 -0.58081423593E+00  0.24003298471E+02  0.00000000000E+00 0.  1.
<scales pt_clust_5="13000.00000" pt_clust_6="13000.00000" pt_clust_7="13000.00000" pt_clust_8="13000.00000" pt_clust_9="23.99627"></scales>
<clustering>
<clus scale="   23.996">  1  9  2 -1</clus>
<clus scale="   74.377">  5  6 -1 -1</clus>
<clus scale="   78.913">  2  5  1 -1</clus>
<clus scale="   89.228">  7  8 -1 -1</clus>
<clus scale="   78.913">  2  5  1 -1</clus>
</clustering>
</event>
<event>
 9    2  0.2869112E-005  0.1066994E+03  0.7546771E-02  0.1268465E+00
         -1   -1    0    0    0  501 -0.00000000000E+00  0.00000000000E+00  0.63752424178E+02  0.63752424178E+02  0.00000000000E+00 0.  1.
          2   -1    0    0  502    0  0.00000000000E+00 -0.00000000000E+00 -0.29874779474E+03  0.29874779474E+03  0.00000000000E+00 0. -1.
         24    2    1    2    0    0  0.50751370722E+00 -0.44362661463E+02 -0.17140922911E+02  0.98614342305E+02  0.86386769634E+02 0.  0.
         23    2    1    2    0    0 -0.20530603994E+02  0.57755185874E+02 -0.21291515457E+03  0.23929562507E+03  0.90401139034E+02 0.  0.
        -13    1    3    3    0    0  0.32383418572E+02 -0.54417522812E+02 -0.15262132926E+02  0.65137433853E+02  0.00000000000E+00 0.  1.
         14    1    3    3    0    0 -0.31875904865E+02  0.10054861350E+02 -0.18787899853E+01  0.33476908452E+02  0.00000000000E+00 0. -1.
        -13    1    4    4    0    0  0.28081952991E+02  0.53145265201E+02 -0.12598868252E+03  0.13959284874E+03  0.00000000000E+00 0. -1.
         13    1    4    4    0    0 -0.48612556985E+02  0.46099206731E+01 -0.86926472054E+02  0.99702776336E+02  0.00000000000E+00 0.  1.
         21    1    1    2  502  501  0.20023090287E+02 -0.13392524411E+02 -0.49392930853E+01  0.24590251542E+02  0.00000000000E+00 0.  1.
<scales pt_clust_5="13000.00000" pt_clust_6="13000.00000" pt_clust_7="13000.00000" pt_clust_8="13000.00000" pt_clust_9="24.08908"></scales>
<clustering>
<clus scale="   24.089">  1  9  2 -1</clus>
<clus scale="   86.387">  5  6 -1 -1</clus>
<clus scale="   90.401">  7  8 -1 -1</clus>
<clus scale="  103.320">  1  5  2 -1</clus>
<clus scale="  106.699">  2  5  1 -1</clus>
</clustering>
</event>
<event>
 9    2  0.2869112E-005  0.8929550E+02  0.7546771E-02  0.1309867E+00
          2   -1    0    0  502    0  0.00000000000E+00  0.00000000000E+00  0.42667385999E+03  0.42667385999E+03  0.00000000000E+00 0. -1.
         -1   -1    0    0    0  501 -0.00000000000E+00 -0.00000000000E+00 -0.28654572235E+02  0.28654572235E+02  0.00000000000E+00 0.  1.
         23    2    1    2    0    0 -0.59241270312E+01 -0.91306291102E+01  0.85425318977E+02  0.12360571066E+03  0.88670304586E+02 0.  0.
         24    2    1    2    0    0 -0.15767849226E+02 -0.35615796106E+01  0.27093571615E+03  0.28307044508E+03  0.80382863037E+02 0.  0.
        -13    1    4    4    0    0  0.14163668880E+02  0.27179461788E+02  0.17913478678E+03  0.18173773547E+03  0.00000000000E+00 0.  1.
         14    1    4    4    0    0 -0.29931518106E+02 -0.30741041398E+02  0.91800929369E+02  0.10133270960E+03  0.00000000000E+00 0. -1.
        -13    1    3    3    0    0  0.95013696054E+01  0.27929196946E+02  0.31372499326E+00  0.29502787831E+02  0.00000000000E+00 0.  1.
         13    1    3    3    0    0 -0.15425496637E+02 -0.37059826056E+02  0.85111593984E+02  0.94102922825E+02  0.00000000000E+00 0. -1.
         21    1    1    2  502  501  0.21691976257E+02  0.12692208721E+02  0.41658252630E+02  0.48652276497E+02  0.00000000000E+00 0.  1.
<scales pt_clust_5="13000.00000" pt_clust_6="13000.00000" pt_clust_7="13000.00000" pt_clust_8="13000.00000" pt_clust_9="25.13233"></scales>
<clustering>
<clus scale="   25.132">  2  9  1 -1</clus>
<clus scale="   80.383">  5  6 -1 -1</clus>
<clus scale="   81.072">  1  5  2 -1</clus>
<clus scale="   88.670">  7  8 -1 -1</clus>
<clus scale="   81.072">  1  5  2 -1</clus>
</clustering>
</event>
<event>
 9    2  0.2869112E-005  0.1023302E+03  0.7546771E-02  0.1279176E+00
         -1   -1    0    0    0  501 -0.00000000000E+00  0.00000000000E+00  0.84560519290E+02  0.84560519290E+02  0.00000000000E+00 0.  1.
          2   -1    0    0  502    0  0.00000000000E+00 -0.00000000000E+00 -0.77566640802E+03  0.77566640802E+03  0.00000000000E+00 0. -1.
         23    2    1    2    0    0  0.85994729675E+01 -0.18268828998E+02  0.20214767280E+02  0.97129763662E+02  0.92832392647E+02 0.  0.
         24    2    1    2    0    0  0.14620736113E+00  0.44386289847E+02 -0.72570813359E+03  0.73202292678E+03  0.85059426695E+02 0.  0.
        -11    1    4    4    0    0 -0.33292666242E+02  0.17237242560E+02 -0.14669227716E+03  0.15140722683E+03  0.00000000000E+00 0.  1.
         12    1    4    4    0    0  0.33438873603E+02  0.27149047288E+02 -0.57901585643E+03  0.58061569996E+03  0.00000000000E+00 0. -1.
        -11    1    3    3    0    0  0.39783862114E+02 -0.32718264363E+02 -0.86704330820E+01  0.52234250425E+02  0.00000000000E+00 0. -1.
         11    1    3    3    0    0 -0.31184389147E+02  0.14449435365E+02  0.28885200362E+02  0.44895513236E+02  0.00000000000E+00 0.  1.
         21    1    1    2  502  501 -0.87456803286E+01 -0.26117460849E+02  0.14387477583E+02  0.31074236866E+02  0.00000000000E+00 0. -1.
<scales pt_clust_5="13000.00000" pt_clust_6="13000.00000" pt_clust_7="13000.00000" pt_clust_8="13000.00000" pt_clust_9="27.54285"></scales>
<clustering>
<clus scale="   27.543">  1  9  2 -1</clus>
<clus scale="   85.059">  5  6 -1 -1</clus>
<clus scale="   92.832">  7  8 -1 -1</clus>
<clus scale="   95.335">  2  5  1 -1</clus>
<clus scale="   95.335">  2  5  1 -1</clus>
</clustering>
</event>
<event>
 9    2  0.2869112E-005  0.1286712E+03  0.7546771E-02  0.1234713E+00
          2   -1    0    0  502    0  0.00000000000E+00  0.00000000000E+00  0.11673207099E+04  0.11673207099E+04  0.00000000000E+00 0. -1.
         -1   -1    0    0    0  501 -0.00000000000E+00 -0.00000000000E+00 -0.58546648347E+02  0.58546648347E+02  0.00000000000E+00 0.  1.
         23    2    1    2    0    0 -0.22375257400E+02 -0.26619598990E+02  0.15673591901E+02  0.10535617482E+03  0.98208996001E+02 0.  0.
         24    2    1    2    0    0  0.65497866712E+02  0.56930193331E+02  0.10363555379E+04  0.10430626273E+04  0.80098851897E+02 0.  0.
        -11    1    4    4    0    0  0.60099575337E+02  0.51945277038E+02  0.47045792290E+03  0.47711731050E+03  0.00000000000E+00 0.  1.
         12    1    4    4    0    0  0.53982913747E+01  0.49849162928E+01  0.56589761504E+03  0.56594531683E+03  0.00000000000E+00 0. -1.
        -11    1    3    3    0    0  0.33458189115E+02 -0.33244573445E+02  0.13620914341E+02  0.49093598258E+02  0.00000000000E+00 0.  1.
         11    1    3    3    0    0 -0.55833446515E+02  0.66249744550E+01  0.20526775598E+01  0.56262576562E+02  0.00000000000E+00 0. -1.
         21    1    1    2  502  501 -0.43122609312E+02 -0.30310594341E+02  0.56744931665E+02  0.77448556041E+02  0.00000000000E+00 0. -1.
<scales pt_clust_5="13000.00000" pt_clust_6="13000.00000" pt_clust_7="13000.00000" pt_clust_8="13000.00000" pt_clust_9="52.70950"></scales>
<clustering>
<clus scale="   52.710">  2  9  1 -1</clus>
<clus scale="   80.099">  5  6 -1 -1</clus>
<clus scale="   98.209">  7  8 -1 -1</clus>
<clus scale="  115.443">  1  5  2 -1</clus>
<clus scale="  115.443">  1  5  2 -1</clus>
</clustering>
</event>
<event>
 9    2  0.2869112E-005  0.1126891E+03  0.7546771E-02  0.1259266E+00
          2   -1    0    0  502    0  0.00000000000E+00  0.00000000000E+00  0.13107897392E+04  0.13107897392E+04  0.00000000000E+00 0. -1.
         -1   -1    0    0    0  501 -0.00000000000E+00 -0.00000000000E+00 -0.20651392126E+02  0.20651392126E+02  0.00000000000E+00 0.  1.
         23    2    1    2    0    0 -0.12842691328E+02  0.56980788795E+02  0.19922378837E+03  0.22577845840E+03  0.88735840637E+02 0.  0.
         24    2    1    2    0    0 -0.80601455170E+01 -0.71804302185E+02  0.10606039929E+04  0.10659714203E+04  0.78698254666E+02 0.  0.
        -13    1    4    4    0    0 -0.22061171142E+02 -0.34959614622E+02  0.18860815410E+03  0.19308522916E+03  0.00000000000E+00 0.  1.
         14    1    4    4    0    0  0.14001025625E+02 -0.36844687563E+02  0.87199583884E+03  0.87288619114E+03  0.00000000000E+00 0. -1.
        -11    1    3    3    0    0  0.35708659634E+02  0.41938049814E+02  0.94765575932E+02  0.10961032240E+03  0.00000000000E+00 0.  1.
         11    1    3    3    0    0 -0.48551350962E+02  0.15042738982E+02  0.10445821244E+03  0.11616813600E+03  0.00000000000E+00 0. -1.
         21    1    1    2  502  501  0.20902836845E+02  0.14823513390E+02  0.30310565713E+02  0.39691252578E+02  0.00000000000E+00 0.  1.
<scales pt_clust_5="13000.00000" pt_clust_6="13000.00000" pt_clust_7="13000.00000" pt_clust_8="13000.00000" pt_clust_9="25.62548"></scales>
<clustering>
<clus scale="   25.625">  2  9  1 -1</clus>
<clus scale="   78.698">  5  6 -1 -1</clus>
<clus scale="   88.736">  7  8 -1 -1</clus>
<clus scale="  104.968">  1  5  2 -1</clus>
<clus scale="  104.968">  1  5  2 -1</clus>
</clustering>
</event>
<event>
 9    2  0.2869112E-005  0.1005814E+03  0.7546771E-02  0.1285582E+00
         -1   -1    0    0    0  501 -0.00000000000E+00  0.00000000000E+00  0.21010026175E+02  0.21010026175E+02  0.00000000000E+00 0.  1.
          2   -1    0    0  502    0  0.00000000000E+00 -0.00000000000E+00 -0.64710461337E+03  0.64710461337E+03  0.00000000000E+00 0. -1.
         24    2    1    2    0    0 -0.74871941334E+01  0.47769657136E+02 -0.28016822610E+03  0.29557366272E+03  0.80818048460E+02 0.  0.
         23    2    1    2    0    0  0.45697717769E+01 -0.26513226789E+02 -0.33423110199E+03  0.34810480958E+03  0.93502379152E+02 0.  0.
        -11    1    3    3    0    0 -0.24903633086E+02 -0.67318675189E+01 -0.33094177057E+02  0.41961095509E+02  0.00000000000E+00 0.  1.
         12    1    3    3    0    0  0.17416438953E+02  0.54501524655E+02 -0.24707404904E+03  0.25361256721E+03  0.00000000000E+00 0. -1.
        -13    1    4    4    0    0  0.36350922972E+02 -0.40222101768E+02 -0.12828378879E+03  0.13926929862E+03  0.00000000000E+00 0. -1.
         13    1    4    4    0    0 -0.31781151195E+02  0.13708874979E+02 -0.20594731319E+03  0.20883551096E+03  0.00000000000E+00 0.  1.
         21    1    1    2  502  501  0.29174223565E+01 -0.21256430347E+02 -0.11695259110E+02  0.24436167252E+02  0.00000000000E+00 0.  1.
<scales pt_clust_5="13000.00000" pt_clust_6="13000.00000" pt_clust_7="13000.00000" pt_clust_8="13000.00000" pt_clust_9="21.45570"></scales>
<clustering>
<clus scale="   21.456">  1  9  2 -1</clus>
<clus scale="   80.818">  5  6 -1 -1</clus>
<clus scale="   88.913">  1  5  2 -1</clus>
<clus scale="   93.502">  7  8 -1 -1</clus>
<clus scale="  100.581">  2  5  1 -1</clus>
</clustering>
</event>
<event>
 9    2  0.2869112E-005  0.2662724E+03  0.7546771E-02  0.1138525E+00
         -1   -1    0    0    0  501 -0.00000000000E+00  0.00000000000E+00  0.12834134090E+03  0.12834134090E+03  0.00000000000E+00 0.  1.
          2   -1    0    0  502    0  0.00000000000E+00 -0.00000000000E+00 -0.11816843624E+04  0.11816843624E+04  0.00000000000E+00 0. -1.
         23    2    1    2    0    0 -0.16642634037E+02  0.57373086212E+02 -0.26838291269E+02  0.11405778041E+03  0.93382199074E+02 0.  0.
         24    2    1    2    0    0  0.25784845753E+03 -0.25103096784E+02 -0.85838774670E+03  0.90018942187E+03  0.79971739080E+02 0.  0.
        -11    1    4    4    0    0  0.98340798578E+02  0.28209199301E+02 -0.35519339083E+03  0.36963362466E+03  0.00000000000E+00 0.  1.
         12    1    4    4    0    0  0.15950765895E+03 -0.53312296086E+02 -0.50319435586E+03  0.53055579721E+03  0.00000000000E+00 0. -1.
        -13    1    3    3    0    0 -0.43664760125E+02  0.32430747429E+02  0.16861011025E+02  0.56944344306E+02  0.00000000000E+00 0.  1.
         13    1    3    3    0    0  0.27022126088E+02  0.24942338783E+02 -0.43699302294E+02  0.57113436101E+02  0.00000000000E+00 0. -1.
         21    1    1    2  502  501 -0.24120582349E+03 -0.32269989428E+02 -0.16811698349E+03  0.29577850098E+03  0.00000000000E+00 0.  1.
<scales pt_clust_5="13000.00000" pt_clust_6="13000.00000" pt_clust_7="13000.00000" pt_clust_8="13000.00000" pt_clust_9="253.97939"></scales>
<clustering>
<clus scale="   79.972">  5  6 -1 -1</clus>
<clus scale="   93.382">  7  8 -1 -1</clus>
<clus scale="  110.855">  1  7  2 -1</clus>
<clus scale="  253.979">  1  9  2 -1</clus>
<clus scale="  266.272">  2  5  1 -1</clus>
</clustering>
</event>
<event>
 9    2  0.2869112E-005  0.1142493E+03  0.7546771E-02  0.1256041E+00
         -1   -1    0    0    0  501 -0.00000000000E+00  0.00000000000E+00  0.31168024967E+03  0.31168024967E+03  0.00000000000E+00 0.  1.
          2   -1    0    0  502    0  0.00000000000E+00 -0.00000000000E+00 -0.29606976734E+03  0.29606976734E+03  0.00000000000E+00 0. -1.
         23    2    1    2    0    0  0.52362656282E+02 -0.12150648066E+03  0.21788169565E+03  0.26980025491E+03  0.88397237701E+02 0.  0.
         24    2    1    2    0    0 -0.63197686750E+02  0.31953580650E+02 -0.22152868953E+03  0.24571110331E+03  0.79271729385E+02 0.  0.
        -13    1    4    4    0    0 -0.32073838956E+02 -0.15188500081E+01 -0.17386620620E+02  0.36514827500E+02  0.00000000000E+00 0.  1.
         14    1    4    4    0    0 -0.31123847794E+02  0.33472430658E+02 -0.20414206891E+03  0.20919627581E+03  0.00000000000E+00 0. -1.
        -13    1    3    3    0    0  0.39408702564E+02 -0.42248597651E+01  0.71838196091E+02  0.82046460590E+02  0.00000000000E+00 0. -1.
         13    1    3    3    0    0  0.12953953718E+02 -0.11728162090E+03  0.14604349956E+03  0.18775379432E+03  0.00000000000E+00 0.  1.
         21    1    1    2  502  501  0.10835030467E+02  0.89552900013E+02  0.19257476213E+02  0.92238658793E+02  0.00000000000E+00 0. -1.
<scales pt_clust_5="13000.00000" pt_clust_6="13000.00000" pt_clust_7="13000.00000" pt_clust_8="13000.00000" pt_clust_9="90.20599"></scales>
<clustering>
<clus scale="   79.272">  5  6 -1 -1</clus>
<clus scale="   88.397">  7  8 -1 -1</clus>
<clus scale="   90.206">  1  9  2 -1</clus>
<clus scale="  107.344">  2  5  1 -1</clus>
<clus scale="  107.344">  2  5  1 -1</clus>
</clustering>
</event>
<event>
 9    2  0.2869112E-005  0.9345816E+02  0.7546771E-02  0.1299962E+00
         -1   -1    0    0    0  501 -0.00000000000E+00  0.00000000000E+00  0.59861604035E+02  0.59861604035E+02  0.00000000000E+00 0.  1.
          2   -1    0    0  502    0  0.00000000000E+00 -0.00000000000E+00 -0.46214809814E+03  0.46214809814E+03  0.00000000000E+00 0. -1.
         24    2    1    2    0    0 -0.36785802614E+02 -0.12696181224E+02 -0.10652451173E+03  0.14033643285E+03  0.82658662545E+02 0.  0.
         23    2    1    2    0    0  0.11868271353E+02 -0.28661897693E+01 -0.32640546501E+03  0.33922219416E+03  0.91553801200E+02 0.  0.
        -11    1    3    3    0    0  0.20757566337E+01 -0.33207389650E+02 -0.10755536540E+02  0.34967428547E+02  0.00000000000E+00 0.  1.
         12    1    3    3    0    0 -0.38861559248E+02  0.20511208426E+02 -0.95768975194E+02  0.10536900430E+03  0.00000000000E+00 0. -1.
        -11    1    4    4    0    0 -0.36850915846E+02  0.10088456247E+02 -0.18990139268E+03  0.19370675231E+03  0.00000000000E+00 0.  1.
         11    1    4    4    0    0  0.48719187199E+02 -0.12954646016E+02 -0.13650407233E+03  0.14551544185E+03  0.00000000000E+00 0. -1.
         21    1    1    2  502  501  0.24917531261E+02  0.15562370993E+02  0.30643482634E+02  0.42451075169E+02  0.00000000000E+00 0.  1.
<scales pt_clust_5="13000.00000" pt_clust_6="13000.00000" pt_clust_7="13000.00000" pt_clust_8="13000.00000" pt_clust_9="29.37807"></scales>
<clustering>
<clus scale="   29.378">  1  9  2 -1</clus>
<clus scale="   82.659">  5  6 -1 -1</clus>
<clus scale="   84.763">  1  5  2 -1</clus>
<clus scale="   91.554">  7  8 -1 -1</clus>
<clus scale="   93.458">  2  5  1 -1</clus>
</clustering>
</event>
<event>
 9    2  0.2869112E-005  0.8290886E+02  0.7546771E-02  0.1321900E+00
          2   -1    0    0  502    0  0.00000000000E+00  0.00000000000E+00  0.29102671986E+03  0.29102671986E+03  0.00000000000E+00 0. -1.
         -1   -1    0    0    0  501 -0.00000000000E+00 -0.00000000000E+00 -0.69647327210E+02  0.69647327210E+02  0.00000000000E+00 0.  1.
         23    2    1    2    0    0 -0.12555998310E+02 -0.69147523970E+01  0.30286520223E+02  0.88355750625E+02  0.81755724368E+02 0.  0.
         24    2    1    2    0    0  0.92850543891E+01 -0.13714639439E+02  0.22104767601E+03  0.23580034006E+03  0.80407846224E+02 0.  0.
        -13    1    4    4    0    0 -0.28382665259E+02 -0.53057428964E+01  0.33070590797E+02  0.43902056564E+02  0.00000000000E+00 0.  1.
         14    1    4    4    0    0  0.37667719648E+02 -0.84088965424E+01  0.18797708521E+03  0.19189828350E+03  0.00000000000E+00 0. -1.
        -11    1    3    3    0    0  0.96823889496E+01  0.33753124870E+02  0.21516469824E+02  0.41182284637E+02  0.00000000000E+00 0. -1.
         11    1    3    3    0    0 -0.22238387259E+02 -0.40667877267E+02  0.87700503984E+01  0.47173465987E+02  0.00000000000E+00 0.  1.
         21    1    1    2  502  501  0.32709439205E+01  0.20629391836E+02 -0.29954803575E+02  0.36517956389E+02  0.00000000000E+00 0.  1.
<scales pt_clust_5="13000.00000" pt_clust_6="13000.00000" pt_clust_7="13000.00000" pt_clust_8="13000.00000" pt_clust_9="20.88710"></scales>
<clustering>
<clus scale="   20.887">  2  9  1 -1</clus>
<clus scale="   80.408">  5  6 -1 -1</clus>
<clus scale="   81.580">  1  5  2 -1</clus>
<clus scale="   81.756">  7  8 -1 -1</clus>
<clus scale="   81.580">  1  5  2 -1</clus>
</clustering>
</event>
<event>
 9    2  0.2869112E-005  0.1205000E+03  0.7546771E-02  0.1244848E+00
          2   -1    0    0  502    0  0.00000000000E+00  0.00000000000E+00  0.45315814353E+03  0.45315814353E+03  0.00000000000E+00 0. -1.
         -1   -1    0    0    0  501 -0.00000000000E+00 -0.00000000000E+00 -0.65199259641E+02  0.65199259641E+02  0.00000000000E+00 0.  1.
         23    2    1    2    0    0 -0.62438364331E+02 -0.89021960391E+01  0.14301497344E+02  0.11155084301E+03  0.90891469975E+02 0.  0.
         24    2    1    2    0    0  0.82171764366E+02 -0.60840877473E+01  0.36015449667E+03  0.37858735015E+03  0.82631139655E+02 0.  0.
        -13    1    4    4    0    0  0.26657081812E+02 -0.24221402111E+02  0.42959693329E+02  0.56060784706E+02  0.00000000000E+00 0.  1.
         14    1    4    4    0    0  0.55514682554E+02  0.18137314364E+02  0.31719480334E+03  0.32252656545E+03  0.00000000000E+00 0. -1.
        -11    1    3    3    0    0 -0.49693288064E+01 -0.31762480070E+02  0.33852358396E+02  0.46685453173E+02  0.00000000000E+00 0. -1.
         11    1    3    3    0    0 -0.57469035525E+02  0.22860284031E+02 -0.19550861052E+02  0.64865389832E+02  0.00000000000E+00 0.  1.
         21    1    1    2  502  501 -0.19733400035E+02  0.14986283786E+02  0.13502889870E+02  0.28219210008E+02  0.00000000000E+00 0.  1.
<scales pt_clust_5="13000.00000" pt_clust_6="13000.00000" pt_clust_7="13000.00000" pt_clust_8="13000.00000" pt_clust_9="24.77894"></scales>
<clustering>
<clus scale="   24.779">  2  9  1 -1</clus>
<clus scale="   82.631">  5  6 -1 -1</clus>
<clus scale="   90.891">  7  8 -1 -1</clus>
<clus scale="  114.398">  1  5  2 -1</clus>
<clus scale="  114.398">  1  5  2 -1</clus>
</clustering>
</event>
<event>
 9    2  0.2869112E-005  0.2084444E+03  0.7546771E-02  0.1143542E+00
         -1   -1    0    0    0  501 -0.00000000000E+00  0.00000000000E+00  0.15453803399E+03  0.15453803399E+03  0.00000000000E+00 0.  1.
          2   -1    0    0  502    0  0.00000000000E+00 -0.00000000000E+00 -0.42478216166E+03  0.42478216166E+03  0.00000000000E+00 0. -1.
         23    2    1    2    0    0 -0.11273828539E+03 -0.19698987665E+03 -0.13630753844E+03  0.27941980619E+03  0.89335046658E+02 0.  0.
         24    2    1    2    0    0  0.10907196297E+03  0.12337786892E+03 -0.13255882706E+03  0.22618425939E+03  0.80428135138E+02 0.  0.
        -13    1    4    4    0    0  0.25245129895E+02  0.56472743453E+02 -0.89037622873E+01  0.62496114434E+02  0.00000000000E+00 0.  1.
         14    1    4    4    0    0  0.83826833076E+02  0.66905125464E+02 -0.12365506477E+03  0.16368814496E+03  0.00000000000E+00 0. -1.
        -13    1    3    3    0    0 -0.18634284224E+02 -0.98140166122E+01 -0.47336190963E+02  0.51809906827E+02  0.00000000000E+00 0.  1.
         13    1    3    3    0    0 -0.94104001163E+02 -0.18717586004E+03 -0.88971347473E+02  0.22760989936E+03  0.00000000000E+00 0. -1.
         21    1    1    2  502  501  0.36663224156E+01  0.73612007737E+02 -0.13777621801E+01  0.73716130065E+02  0.00000000000E+00 0.  1.
<scales pt_clust_5="13000.00000" pt_clust_6="13000.00000" pt_clust_7="13000.00000" pt_clust_8="13000.00000" pt_clust_9="73.70325"></scales>
<clustering>
<clus scale="   73.703">  1  9  2 -1</clus>
<clus scale="   80.428">  5  6 -1 -1</clus>
<clus scale="   89.335">  7  8 -1 -1</clus>
<clus scale="  204.785">  2  5  1 -1</clus>
<clus scale="  204.785">  2  5  1 -1</clus>
</clustering>
</event>
<event>
 9    2  0.2869112E-005  0.9614235E+02  0.7546771E-02  0.1295216E+00
         -3   -1    0    0    0  501 -0.00000000000E+00  0.00000000000E+00  0.61135637417E+02  0.61135637417E+02  0.00000000000E+00 0.  1.
          4   -1    0    0  502    0  0.00000000000E+00 -0.00000000000E+00 -0.62970063561E+03  0.62970063561E+03  0.00000000000E+00 0. -1.
         23    2    1    2    0    0  0.30604882246E+02 -0.20144869587E+02 -0.58277103071E+02  0.11443015383E+03  0.91408778441E+02 0.  0.
         24    2    1    2    0    0 -0.26951949238E+02 -0.15731701074E+02 -0.52893890042E+03  0.53580646106E+03  0.79613499771E+02 0.  0.
        -13    1    4    4    0    0  0.15862999827E+02  0.19661398089E+02 -0.94038339179E+02  0.97372555548E+02  0.00000000000E+00 0.  1.
         14    1    4    4    0    0 -0.42814949066E+02 -0.35393099163E+02 -0.43490056124E+03  0.43843390551E+03  0.00000000000E+00 0. -1.
        -11    1    3    3    0    0  0.15817106639E+02 -0.41730264207E+02  0.60026504713E+01  0.45029186378E+02  0.00000000000E+00 0.  1.
         11    1    3    3    0    0  0.14787775607E+02  0.21585394620E+02 -0.64279753542E+02  0.69400967455E+02  0.00000000000E+00 0. -1.
         21    1    1    2  502  501 -0.36529330081E+01  0.35876570661E+02  0.18651005300E+02  0.40599658135E+02  0.00000000000E+00 0.  1.
<scales pt_clust_5="13000.00000" pt_clust_6="13000.00000" pt_clust_7="13000.00000" pt_clust_8="13000.00000" pt_clust_9="36.06206"></scales>
<clustering>
<clus scale="   36.062">  1  9  2 -1</clus>
<clus scale="   79.613">  5  6 -1 -1</clus>
<clus scale="   85.006">  2  5  1 -1</clus>
<clus scale="   91.409">  7  8 -1 -1</clus>
<clus scale="   85.006">  2  5  1 -1</clus>
</clustering>
</event>
<event>
 9    2  0.2869112E-005  0.3031122E+03  0.7546771E-02  0.1084117E+00
          2   -1    0    0  502    0  0.00000000000E+00  0.00000000000E+00  0.10922532907E+04  0.10922532907E+04  0.00000000000E+00 0. -1.
         -1   -1    0    0    0  501 -0.00000000000E+00 -0.00000000000E+00 -0.22403883971E+03  0.22403883971E+03  0.00000000000E+00 0.  1.
         23    2    1    2    0    0 -0.17891785657E+03 -0.73965154284E+02 -0.81281884957E+02  0.22866710163E+03  0.90550842606E+02 0.  0.
         24    2    1    2    0    0  0.28907091338E+03  0.99155285795E+02  0.91743233815E+03  0.97016721247E+03  0.78412763095E+02 0.  0.
        -13    1    4    4    0    0  0.51108509995E+02  0.36890831526E+02  0.11841547539E+03  0.13414633076E+03  0.00000000000E+00 0.  1.
         14    1    4    4    0    0  0.23796240339E+03  0.62264454269E+02  0.79901686275E+03  0.83602088171E+03  0.00000000000E+00 0. -1.
        -13    1    3    3    0    0 -0.17251572775E+03 -0.42297685493E+02 -0.83520410255E+02  0.19628150562E+03  0.00000000000E+00 0.  1.
         13    1    3    3    0    0 -0.64021288153E+01 -0.31667468791E+02  0.22385252978E+01  0.32385596004E+02  0.00000000000E+00 0. -1.
         21    1    1    2  502  501 -0.11015305682E+03 -0.25190131511E+02  0.32063997758E+02  0.11745781627E+03  0.00000000000E+00 0.  1.
<scales pt_clust_5="13000.00000" pt_clust_6="13000.00000" pt_clust_7="13000.00000" pt_clust_8="13000.00000" pt_clust_9="112.99663"></scales>
<clustering>
<clus scale="   78.413">  5  6 -1 -1</clus>
<clus scale="   90.551">  7  8 -1 -1</clus>
<clus scale="  112.997">  2  9  1 -1</clus>
<clus scale="  299.710">  1  5  2 -1</clus>
<clus scale="  299.710">  1  5  2 -1</clus>
</clustering>
</event>
<event>
 9    2  0.2869112E-005  0.9028869E+02  0.7546771E-02  0.1305455E+00
         -1   -1    0    0    0  501 -0.00000000000E+00  0.00000000000E+00  0.68962112965E+02  0.68962112965E+02  0.00000000000E+00 0.  1.
          2   -1    0    0  502    0  0.00000000000E+00 -0.00000000000E+00 -0.53086987465E+03  0.53086987465E+03  0.00000000000E+00 0. -1.
         23    2    1    2    0    0 -0.15178523276E+02 -0.13556911581E+02  0.27437366386E+02  0.94354271430E+02  0.87953067271E+02 0.  0.
         24    2    1    2    0    0  0.30313555353E+02 -0.35121092211E+01 -0.45985959645E+03  0.46819746347E+03  0.82503150296E+02 0.  0.
        -13    1    4    4    0    0  0.51011851227E+01  0.38419589239E+02 -0.22201418127E+03  0.22537165663E+03  0.00000000000E+00 0.  1.
         14    1    4    4    0    0  0.25212370230E+02 -0.41931698460E+02 -0.23784541518E+03  0.24282580685E+03  0.00000000000E+00 0. -1.
        -11    1    3    3    0    0 -0.43637161325E+02 -0.14677707677E+02  0.42042144248E+02  0.62347244078E+02  0.00000000000E+00 0.  1.
         11    1    3    3    0    0  0.28458638049E+02  0.11207960964E+01 -0.14604777862E+02  0.32007027352E+02  0.00000000000E+00 0. -1.
         21    1    1    2  502  501 -0.15135032077E+02  0.17069020802E+02 -0.29485531625E+02  0.37280252712E+02  0.00000000000E+00 0.  1.
<scales pt_clust_5="13000.00000" pt_clust_6="13000.00000" pt_clust_7="13000.00000" pt_clust_8="13000.00000" pt_clust_9="22.81273"></scales>
<clustering>
<clus scale="   22.813">  2  9  1 -1</clus>
<clus scale="   82.503">  5  6 -1 -1</clus>
<clus scale="   84.989">  2  5  1 -1</clus>
<clus scale="   87.953">  7  8 -1 -1</clus>
<clus scale="   22.813">  2  5  1 -1</clus>
</clustering>
</event>
<event>
 9    2  0.2869112E-005  0.1878877E+03  0.7546771E-02  0.1197677E+00
         -1   -1    0    0    0  501 -0.00000000000E+00  0.00000000000E+00  0.35259232083E+03  0.35259232083E+03  0.00000000000E+00 0.  1.
          2   -1    0    0  502    0  0.00000000000E+00 -0.00000000000E+00 -0.46828406767E+03  0.46828406767E+03  0.00000000000E+00 0. -1.
         23    2    1    2    0    0 -0.10430746197E+03 -0.12619161546E+03 -0.67527365697E+02  0.20040153083E+03  0.93789434411E+02 0.  0.
         24    2    1    2    0    0  0.19331982673E+02 -0.12776891968E+02 -0.30540834014E+03  0.31599574085E+03  0.77730814273E+02 0.  0.
        -13    1    4    4    0    0 -0.26017477829E+02 -0.52379780869E+01 -0.51258531603E+02  0.57721595864E+02  0.00000000000E+00 0.  1.
         14    1    4    4    0    0  0.45349460502E+02 -0.75389138807E+01 -0.25414980853E+03  0.25827414499E+03  0.00000000000E+00 0. -1.
        -11    1    3    3    0    0 -0.10171812557E+03 -0.57472361558E+02 -0.24782046978E+02  0.11943114864E+03  0.00000000000E+00 0.  1.
         11    1    3    3    0    0 -0.25893363947E+01 -0.68719253904E+02 -0.42745318719E+02  0.80970382193E+02  0.00000000000E+00 0. -1.
         21    1    1    2  502  501  0.84975479293E+02  0.13896850743E+03  0.25724395900E+03  0.30447911682E+03  0.00000000000E+00 0.  1.
<scales pt_clust_5="13000.00000" pt_clust_6="13000.00000" pt_clust_7="13000.00000" pt_clust_8="13000.00000" pt_clust_9="162.80455"></scales>
<clustering>
<clus scale="   77.731">  5  6 -1 -1</clus>
<clus scale="   81.111">  2  5  1 -1</clus>
<clus scale="   93.789">  7  8 -1 -1</clus>
<clus scale="  162.805">  1  9  2 -1</clus>
<clus scale="   81.111">  2  5  1 -1</clus>
</clustering>
</event>
<event>
 9    2  0.4260587E-005  0.1354607E+03  0.7546771E-02  0.1245893E+00
         -1   -1    0    0    0  501 -0.00000000000E+00  0.00000000000E+00  0.23092355614E+03  0.23092355614E+03  0.00000000000E+00 0.  1.
          2   -1    0    0  502    0  0.00000000000E+00 -0.00000000000E+00 -0.46053865792E+03  0.46053865792E+03  0.00000000000E+00 0. -1.
         24    2    1    2    0    0 -0.30455393659E+02  0.39667148485E+02  0.13254589482E+03  0.15422675010E+03  0.60962796377E+02 0.  0.
         23    2    1    2    0    0 -0.79491288515E+02 -0.55152611348E+02 -0.39820791703E+03  0.42049878184E+03  0.94281519153E+02 0.  0.
        -13    1    3    3    0    0  0.54255594787E+01  0.39743910062E+02  0.49159144078E+02  0.63447904056E+02  0.00000000000E+00 0.  1.
         14    1    3    3    0    0 -0.35880953138E+02 -0.76761576654E-01  0.83386750741E+02  0.90778846046E+02  0.00000000000E+00 0. -1.
        -13    1    4    4    0    0 -0.58858456828E+02 -0.47231823110E+02 -0.38950111101E+03  0.39674460113E+03  0.00000000000E+00 0. -1.
         13    1    4    4    0    0 -0.20632831688E+02 -0.79207882378E+01 -0.87068060233E+01  0.23754180703E+02  0.00000000000E+00 0.  1.
         21    1    1    2  502  501  0.10994668217E+03  0.15485462862E+02  0.36046920431E+02  0.11673668213E+03  0.00000000000E+00 0. -1.
<scales pt_clust_5="13000.00000" pt_clust_6="13000.00000" pt_clust_7="13000.00000" pt_clust_8="13000.00000" pt_clust_9="97.26562"></scales>
<clustering>
<clus scale="   60.963">  5  6 -1 -1</clus>
<clus scale="   78.851">  1  5  2 -1</clus>
<clus scale="   94.282">  7  8 -1 -1</clus>
<clus scale="   97.266">  1  9  2 -1</clus>
<clus scale="  135.461">  2  5  1 -1</clus>
</clustering>
</event>
<event>
 9    2  0.2869112E-005  0.8897267E+02  0.7546771E-02  0.1310068E+00
          2   -1    0    0  502    0  0.00000000000E+00  0.00000000000E+00  0.32245602016E+03  0.32245602016E+03  0.00000000000E+00 0. -1.
         -1   -1    0    0    0  501 -0.00000000000E+00 -0.00000000000E+00 -0.35416794589E+02  0.35416794589E+02  0.00000000000E+00 0.  1.
         23    2    1    2    0    0 -0.15042098877E+02  0.17643108595E+02  0.13328218202E+03  0.16157982092E+03  0.88353576408E+02 0.  0.
         24    2    1    2    0    0 -0.82676665289E+01 -0.49439939444E+01  0.14822236304E+03  0.16917758558E+03  0.80983882175E+02 0.  0.
        -11    1    4    4    0    0 -0.40889041007E+02 -0.15903430959E+01  0.44774787791E+02  0.60656611242E+02  0.00000000000E+00 0.  1.
         12    1    4    4    0    0  0.32621374478E+02 -0.33536508485E+01  0.10344757525E+03  0.10852097434E+03  0.00000000000E+00 0. -1.
        -13    1    3    3    0    0 -0.40567344589E+02  0.30818739406E+02  0.42449776859E+02  0.66313555937E+02  0.00000000000E+00 0.  1.
         13    1    3    3    0    0  0.25525245712E+02 -0.13175630812E+02  0.90832405160E+02  0.95266264979E+02  0.00000000000E+00 0. -1.
         21    1    1    2  502  501  0.23309765406E+02 -0.12699114650E+02  0.55346805107E+01  0.27115408250E+02  0.00000000000E+00 0. -1.
<scales pt_clust_5="13000.00000" pt_clust_6="13000.00000" pt_clust_7="13000.00000" pt_clust_8="13000.00000" pt_clust_9="26.54454"></scales>
<clustering>
<clus scale="   26.545">  2  9  1 -1</clus>
<clus scale="   80.984">  5  6 -1 -1</clus>
<clus scale="   81.659">  1  5  2 -1</clus>
<clus scale="   88.354">  7  8 -1 -1</clus>
<clus scale="   81.659">  1  5  2 -1</clus>
</clustering>
</event>
<event>
 9    2  0.2869112E-005  0.1043005E+03  0.7546771E-02  0.1275436E+00
          2   -1    0    0  502    0  0.00000000000E+00  0.00000000000E+00  0.44540603372E+03  0.44540603372E+03  0.00000000000E+00 0. -1.
         -1   -1    0    0    0  501 -0.00000000000E+00 -0.00000000000E+00 -0.12101361503E+03  0.12101361503E+03  0.00000000000E+00 0.  1.
         23    2    1    2    0    0 -0.75761474853E+02 -0.37043559495E+02  0.62714917295E+00  0.12284448748E+03  0.89321601064E+02 0.  0.
         24    2    1    2    0    0  0.41152641724E+02  0.30087365844E+02  0.37190473523E+03  0.38387953229E+03  0.80321689013E+02 0.  0.
        -13    1    4    4    0    0  0.66454167185E+01 -0.26738713691E+02  0.13727332717E+03  0.14001102358E+03  0.00000000000E+00 0.  1.
         14    1    4    4    0    0  0.34507225005E+02  0.56826079535E+02  0.23463140806E+03  0.24386850871E+03  0.00000000000E+00 0. -1.
        -11    1    3    3    0    0  0.67652982348E+00 -0.37856991298E+02 -0.21138147745E+02  0.43363934011E+02  0.00000000000E+00 0.  1.
         11    1    3    3    0    0 -0.76438004676E+02  0.81343180302E+00  0.21765296918E+02  0.79480553472E+02  0.00000000000E+00 0. -1.
         21    1    1    2  502  501  0.34608833129E+02  0.69561936514E+01 -0.48139465708E+02  0.59695628981E+02  0.00000000000E+00 0.  1.
<scales pt_clust_5="13000.00000" pt_clust_6="13000.00000" pt_clust_7="13000.00000" pt_clust_8="13000.00000" pt_clust_9="35.30099"></scales>
<clustering>
<clus scale="   35.301">  2  9  1 -1</clus>
<clus scale="   80.322">  5  6 -1 -1</clus>
<clus scale="   89.322">  7  8 -1 -1</clus>
<clus scale="   96.705">  1  5  2 -1</clus>
<clus scale="   96.705">  1  5  2 -1</clus>
</clustering>
</event>
<event>
 9    2  0.2869112E-005  0.9206568E+02  0.7546771E-02  0.1307615E+00
          2   -1    0    0  502    0  0.00000000000E+00  0.00000000000E+00  0.12589164107E+03  0.12589164107E+03  0.00000000000E+00 0. -1.
         -1   -1    0    0    0  501 -0.00000000000E+00 -0.00000000000E+00 -0.16227706852E+03  0.16227706852E+03  0.00000000000E+00 0.  1.
         23    2    1    2    0    0  0.39855021515E+02  0.95685054919E+01 -0.90638991569E+02  0.13507708749E+03  0.91380598237E+02 0.  0.
         24    2    1    2    0    0  0.49501675680E+01 -0.11415936128E+02  0.71290834865E+02  0.10512093769E+03  0.76244348307E+02 0.  0.
        -13    1    4    4    0    0 -0.35601161042E+02 -0.39719546230E+01  0.29367472089E+02  0.46321350455E+02  0.00000000000E+00 0.  1.
         14    1    4    4    0    0  0.40551328610E+02 -0.74439815048E+01  0.41923362777E+02  0.58799587237E+02  0.00000000000E+00 0. -1.
        -11    1    3    3    0    0  0.12525186770E+02  0.29621513638E+02  0.59554479796E+01  0.32707518012E+02  0.00000000000E+00 0. -1.
         11    1    3    3    0    0  0.27329834744E+02 -0.20053008146E+02 -0.96594439548E+02  0.10236956947E+03  0.00000000000E+00 0.  1.
         21    1    1    2  502  501 -0.44805189083E+02  0.18474306359E+01 -0.17037270750E+02  0.47970684416E+02  0.00000000000E+00 0. -1.
<scales pt_clust_5="13000.00000" pt_clust_6="13000.00000" pt_clust_7="13000.00000" pt_clust_8="13000.00000" pt_clust_9="44.84326"></scales>
<clustering>
<clus scale="   44.843">  2  9  1 -1</clus>
<clus scale="   76.244">  5  6 -1 -1</clus>
<clus scale="   77.064">  1  5  2 -1</clus>
<clus scale="   91.381">  7  8 -1 -1</clus>
<clus scale="   77.064">  1  5  2 -1</clus>
</clustering>
</event>
<event>
 9    2  0.2869112E-005  0.1130825E+03  0.7546771E-02  0.1260327E+00
         -1   -1    0    0    0  501 -0.00000000000E+00  0.00000000000E+00  0.64669121309E+03  0.64669121309E+03  0.00000000000E+00 0.  1.
          2   -1    0    0  502    0  0.00000000000E+00 -0.00000000000E+00 -0.73153471491E+02  0.73153471491E+02  0.00000000000E+00 0. -1.
         23    2    1    2    0    0  0.38677633630E+02 -0.42276913319E+02  0.30757792473E+03  0.32594070421E+03  0.91377601942E+02 0.  0.
         24    2    1    2    0    0  0.13146583030E+02  0.44686428663E+02 -0.89101781600E+01  0.11418077904E+03  0.10386601694E+03 0.  0.
        -11    1    4    4    0    0  0.54298794847E+02  0.78303019468E+01 -0.18932033070E+02  0.58035287770E+02  0.00000000000E+00 0.  1.
         12    1    4    4    0    0 -0.41152211817E+02  0.36856126716E+02  0.10021854910E+02  0.56145491268E+02  0.00000000000E+00 0. -1.
        -13    1    3    3    0    0 -0.18409251731E+02 -0.33707921807E+02  0.20193277565E+03  0.20555284095E+03  0.00000000000E+00 0.  1.
         13    1    3    3    0    0  0.57086885361E+02 -0.85689915122E+01  0.10564514908E+03  0.12038786326E+03  0.00000000000E+00 0. -1.
         21    1    1    2  502  501 -0.51824216660E+02 -0.24095153434E+01  0.27486999503E+03  0.27972320133E+03  0.00000000000E+00 0.  1.
<scales pt_clust_5="13000.00000" pt_clust_6="13000.00000" pt_clust_7="13000.00000" pt_clust_8="13000.00000" pt_clust_9="51.88020"></scales>
<clustering>
<clus scale="   51.880">  1  9  2 -1</clus>
<clus scale="   91.378">  7  8 -1 -1</clus>
<clus scale="  101.732">  1  7  2 -1</clus>
<clus scale="  103.866">  5  6 -1 -1</clus>
<clus scale="  113.083">  2  5  1 -1</clus>
</clustering>
</event>
<event>
 9    2  0.2869112E-005  0.1026376E+03  0.7546771E-02  0.1280058E+00
          2   -1    0    0  502    0  0.00000000000E+00  0.00000000000E+00  0.80296882062E+02  0.80296882062E+02  0.00000000000E+00 0. -1.
         -1   -1    0    0    0  501 -0.00000000000E+00 -0.00000000000E+00 -0.28554921239E+03  0.28554921239E+03  0.00000000000E+00 0.  1.
         23    2    1    2    0    0 -0.84621667659E+01  0.11347575102E+02 -0.13265522191E+03  0.16127216924E+03  0.90614176286E+02 0.  0.
         24    2    1    2    0    0  0.56425986568E+02  0.25517551701E+02  0.11079317407E+02  0.10132030628E+03  0.79423017981E+02 0.  0.
        -11    1    4    4    0    0  0.53572935388E+02  0.25413132372E+01 -0.24425752529E+02  0.58933310324E+02  0.00000000000E+00 0.  1.
         12    1    4    4    0    0  0.28530511800E+01  0.22976238464E+02  0.35505069936E+02  0.42386995956E+02  0.00000000000E+00 0. -1.
        -11    1    3    3    0    0 -0.28536815869E+02  0.41809506271E+02 -0.51092857019E+02  0.71922630047E+02  0.00000000000E+00 0.  1.
         11    1    3    3    0    0  0.20074649103E+02 -0.30461931169E+02 -0.81562364895E+02  0.89349539195E+02  0.00000000000E+00 0. -1.
         21    1    1    2  502  501 -0.47963819802E+02 -0.36865126803E+02 -0.83676425825E+02  0.10325361894E+03  0.00000000000E+00 0. -1.
<scales pt_clust_5="13000.00000" pt_clust_6="13000.00000" pt_clust_7="13000.00000" pt_clust_8="13000.00000" pt_clust_9="60.49434"></scales>
<clustering>
<clus scale="   60.494">  2  9  1 -1</clus>
<clus scale="   79.423">  5  6 -1 -1</clus>
<clus scale="   90.614">  7  8 -1 -1</clus>
<clus scale="   92.906">  1  5  2 -1</clus>
<clus scale="   92.906">  1  5  2 -1</clus>
</clustering>
</event>
<event>
 9    2  0.2869112E-005  0.9901653E+02  0.7546771E-02  0.1287806E+00
         -1   -1    0    0    0  501 -0.00000000000E+00  0.00000000000E+00  0.50605272954E+02  0.50605272954E+02  0.00000000000E+00 0.  1.
          2   -1    0    0  502    0  0.00000000000E+00 -0.00000000000E+00 -0.28122460174E+03  0.28122460174E+03  0.00000000000E+00 0. -1.
         24    2    1    2    0    0  0.40785633724E+02 -0.36527135222E+02 -0.58009920123E+02  0.11370079975E+03  0.81024820309E+02 0.  0.
         23    2    1    2    0    0 -0.28082773268E+02  0.11573156807E+02 -0.16127658618E+03  0.18792151681E+03  0.91552056873E+02 0.  0.
        -13    1    3    3    0    0  0.62018739349E+02 -0.89748883628E+01 -0.41784089585E+02  0.75317878316E+02  0.00000000000E+00 0.  1.
         14    1    3    3    0    0 -0.21233105625E+02 -0.27552246860E+02 -0.16225830538E+02  0.38382921438E+02  0.00000000000E+00 0. -1.
        -13    1    4    4    0    0 -0.86372821424E+01  0.39211902682E+02 -0.24509899672E+02  0.47041589436E+02  0.00000000000E+00 0.  1.
         13    1    4    4    0    0 -0.19445491125E+02 -0.27638745875E+02 -0.13676668651E+03  0.14087992738E+03  0.00000000000E+00 0. -1.
         21    1    1    2  502  501 -0.12702860456E+02  0.24953978416E+02 -0.11332822479E+02  0.30207558125E+02  0.00000000000E+00 0.  1.
<scales pt_clust_5="13000.00000" pt_clust_6="13000.00000" pt_clust_7="13000.00000" pt_clust_8="13000.00000" pt_clust_9="28.00114"></scales>
<clustering>
<clus scale="   28.001">  1  9  2 -1</clus>
<clus scale="   81.025">  5  6 -1 -1</clus>
<clus scale="   89.373">  1  5  2 -1</clus>
<clus scale="   91.552">  7  8 -1 -1</clus>
<clus scale="   99.017">  2  5  1 -1</clus>
</clustering>
</event>
<event>
 9    2  0.3462008E-005  0.9739762E+02  0.7546771E-02  0.1293448E+00
         -1   -1    0    0    0  501 -0.00000000000E+00  0.00000000000E+00  0.45105811318E+02  0.45105811318E+02  0.00000000000E+00 0.  1.
          2   -1    0    0  502    0  0.00000000000E+00 -0.00000000000E+00 -0.41558692950E+03  0.41558692950E+03  0.00000000000E+00 0. -1.
         24    2    1    2    0    0 -0.22312949042E+01  0.49248355607E+02 -0.41059124421E+02  0.10075455142E+03  0.77686863288E+02 0.  0.
         23    2    1    2    0    0  0.39692616429E+01 -0.29253390163E+02 -0.32559304531E+03  0.33950586164E+03  0.91552624526E+02 0.  0.
        -13    1    3    3    0    0 -0.30647499584E+02  0.49244532544E+02 -0.10356301516E+02  0.58919828558E+02  0.00000000000E+00 0.  1.
         14    1    3    3    0    0  0.28416204680E+02  0.38230634237E-02 -0.30702822905E+02  0.41834722867E+02  0.00000000000E+00 0. -1.
        -13    1    4    4    0    0 -0.20748252458E+02  0.22809958170E+02 -0.57067109421E+02  0.64864775876E+02  0.00000000000E+00 0.  1.
         13    1    4    4    0    0  0.24717514101E+02 -0.52063348333E+02 -0.26852593589E+03  0.27464108576E+03  0.00000000000E+00 0. -1.
         21    1    1    2  502  501 -0.17379667388E+01 -0.19994965444E+02 -0.38289484563E+01  0.20432327762E+02  0.00000000000E+00 0. -1.
<scales pt_clust_5="13000.00000" pt_clust_6="13000.00000" pt_clust_7="13000.00000" pt_clust_8="13000.00000" pt_clust_9="20.07036"></scales>
<clustering>
<clus scale="   20.070">  1  9  2 -1</clus>
<clus scale="   77.687">  5  6 -1 -1</clus>
<clus scale="   84.497">  1  5  2 -1</clus>
<clus scale="   91.553">  7  8 -1 -1</clus>
<clus scale="   97.398">  2  5  1 -1</clus>
</clustering>
</event>
<event>
 9    2  0.2869112E-005  0.1024482E+03  0.7546771E-02  0.1280897E+00
         -1   -1    0    0    0  501 -0.00000000000E+00  0.00000000000E+00  0.11214989391E+03  0.11214989391E+03  0.00000000000E+00 0.  1.
          2   -1    0    0  502    0  0.00000000000E+00 -0.00000000000E+00 -0.25655810672E+03  0.25655810672E+03  0.00000000000E+00 0. -1.
         24    2    1    2    0    0  0.64203971998E+02 -0.39123554306E+02  0.46322131066E+02  0.11959895688E+03  0.80655862392E+02 0.  0.
         23    2    1    2    0    0 -0.19882994362E+02  0.35037369969E+02 -0.17485731069E+03  0.20185442341E+03  0.92450951265E+02 0.  0.
        -11    1    3    3    0    0  0.57258105616E+02  0.64642139829E+01  0.52750312929E+01  0.57862791812E+02  0.00000000000E+00 0.  1.
         12    1    3    3    0    0  0.69458663815E+01 -0.45587768288E+02  0.41047099773E+02  0.61736165066E+02  0.00000000000E+00 0. -1.
        -11    1    4    4    0    0 -0.43857385777E+02  0.49016877070E+02 -0.83029957727E+02  0.10592496592E+03  0.00000000000E+00 0. -1.
         11    1    4    4    0    0  0.23974391415E+02 -0.13979507101E+02 -0.91827352962E+02  0.95929457491E+02  0.00000000000E+00 0.  1.
         21    1    1    2  502  501 -0.44320977636E+02  0.40861843368E+01 -0.15873033184E+02  0.47254620340E+02  0.00000000000E+00 0. -1.
<scales pt_clust_5="13000.00000" pt_clust_6="13000.00000" pt_clust_7="13000.00000" pt_clust_8="13000.00000" pt_clust_9="44.50894"></scales>
<clustering>
<clus scale="   44.509">  1  9  2 -1</clus>
<clus scale="   80.656">  5  6 -1 -1</clus>
<clus scale="   91.945">  1  5  2 -1</clus>
<clus scale="   92.451">  7  8 -1 -1</clus>
<clus scale="  102.448">  2  5  1 -1</clus>
</clustering>
</event>
<event>
 9    2  0.2869112E-005  0.1073959E+03  0.7546771E-02  0.1265705E+00
         -1   -1    0    0    0  501 -0.00000000000E+00  0.00000000000E+00  0.33107569412E+02  0.33107569412E+02  0.00000000000E+00 0.  1.
          2   -1    0    0  502    0  0.00000000000E+00 -0.00000000000E+00 -0.84709248913E+03  0.84709248913E+03  0.00000000000E+00 0. -1.
         23    2    1    2    0    0 -0.47955273725E+01 -0.67765185393E+02 -0.20187762543E+03  0.23116604088E+03  0.89822298873E+02 0.  0.
         24    2    1    2    0    0  0.30106811004E+02  0.49319896186E+02 -0.60825894755E+03  0.61747931047E+03  0.89234967148E+02 0.  0.
        -13    1    4    4    0    0 -0.26015011133E+02  0.18093091332E+02 -0.93378204142E+02  0.98608467015E+02  0.00000000000E+00 0.  1.
         14    1    4    4    0    0  0.56121822137E+02  0.31226804855E+02 -0.51488074341E+03  0.51887084346E+03  0.00000000000E+00 0. -1.
        -13    1    3    3    0    0 -0.12668745213E+02  0.20421902377E+02 -0.40342845954E+02  0.46958454208E+02  0.00000000000E+00 0.  1.
         13    1    3    3    0    0  0.78732178408E+01 -0.88187087771E+02 -0.16153477947E+03  0.18420758667E+03  0.00000000000E+00 0. -1.
         21    1    1    2  502  501 -0.25311283632E+02  0.18445289207E+02 -0.38483467444E+01  0.31554707187E+02  0.00000000000E+00 0.  1.
<scales pt_clust_5="13000.00000" pt_clust_6="13000.00000" pt_clust_7="13000.00000" pt_clust_8="13000.00000" pt_clust_9="31.31916"></scales>
<clustering>
<clus scale="   31.319">  1  9  2 -1</clus>
<clus scale="   89.235">  5  6 -1 -1</clus>
<clus scale="   89.822">  7  8 -1 -1</clus>
<clus scale="  106.905">  2  5  1 -1</clus>
<clus scale="  106.905">  2  5  1 -1</clus>
</clustering>
</event>
<event>
 9    2  0.2869112E-005  0.1048494E+03  0.7546771E-02  0.1273540E+00
         -1   -1    0    0    0  501 -0.00000000000E+00  0.00000000000E+00  0.41344882443E+03  0.41344882443E+03  0.00000000000E+00 0.  1.
          2   -1    0    0  502    0  0.00000000000E+00 -0.00000000000E+00 -0.53767949723E+02  0.53767949723E+02  0.00000000000E+00 0. -1.
         24    2    1    2    0    0 -0.41137507257E+00 -0.19092132907E+02  0.21318165908E+03  0.22962633486E+03  0.83169436251E+02 0.  0.
         23    2    1    2    0    0  0.62125824168E+02  0.35116223153E+02  0.59147916577E+02  0.12944380670E+03  0.90357378780E+02 0.  0.
        -11    1    3    3    0    0 -0.70422132482E+01  0.32273863404E+02  0.71092721286E+02  0.78392410642E+02  0.00000000000E+00 0.  1.
         12    1    3    3    0    0  0.66308381756E+01 -0.51365996311E+02  0.14208893779E+03  0.15123392422E+03  0.00000000000E+00 0. -1.
        -13    1    4    4    0    0  0.38566365302E+02  0.65102837119E+02  0.48399386935E+02  0.89823407802E+02  0.00000000000E+00 0.  1.
         13    1    4    4    0    0  0.23559458866E+02 -0.29986613966E+02  0.10748529643E+02  0.39620398896E+02  0.00000000000E+00 0. -1.
         21    1    1    2  502  501 -0.61714449096E+02 -0.16024090246E+02  0.87351299053E+02  0.10814663259E+03  0.00000000000E+00 0.  1.
<scales pt_clust_5="13000.00000" pt_clust_6="13000.00000" pt_clust_7="13000.00000" pt_clust_8="13000.00000" pt_clust_9="63.76084"></scales>
<clustering>
<clus scale="   63.761">  1  9  2 -1</clus>
<clus scale="   83.169">  5  6 -1 -1</clus>
<clus scale="   90.357">  7  8 -1 -1</clus>
<clus scale="   98.722">  1  5  2 -1</clus>
<clus scale="  104.849">  2  5  1 -1</clus>
</clustering>
</event>
<event>
 9    2  0.2869112E-005  0.1263669E+03  0.7546771E-02  0.1234254E+00
          2   -1    0    0  502    0  0.00000000000E+00  0.00000000000E+00  0.11942858694E+03  0.11942858694E+03  0.00000000000E+00 0. -1.
         -1   -1    0    0    0  501 -0.00000000000E+00 -0.00000000000E+00 -0.15634855706E+03  0.15634855706E+03  0.00000000000E+00 0.  1.
         23    2    1    2    0    0 -0.20088996001E+02 -0.99385905641E+02 -0.21225927927E+02  0.13472864572E+03  0.86140245879E+02 0.  0.
         24    2    1    2    0    0  0.30124946598E+02  0.80235592780E+02 -0.88313334197E+01  0.11836476934E+03  0.81160109747E+02 0.  0.
        -13    1    4    4    0    0  0.23188869181E+02 -0.10280890014E+02 -0.10781580022E+02  0.27561981445E+02  0.00000000000E+00 0.  1.
         14    1    4    4    0    0  0.69360774162E+01  0.90516482794E+02  0.19502466028E+01  0.90802787893E+02  0.00000000000E+00 0. -1.
        -11    1    3    3    0    0  0.19848585156E+02 -0.51973845600E+02 -0.41607833446E+02  0.69472719561E+02  0.00000000000E+00 0.  1.
         11    1    3    3    0    0 -0.39937581157E+02 -0.47412060041E+02  0.20381905519E+02  0.65255926157E+02  0.00000000000E+00 0. -1.
         21    1    1    2  502  501 -0.10035950597E+02  0.19150312861E+02 -0.68627087781E+01  0.22683728945E+02  0.00000000000E+00 0.  1.
<scales pt_clust_5="13000.00000" pt_clust_6="13000.00000" pt_clust_7="13000.00000" pt_clust_8="13000.00000" pt_clust_9="21.62070"></scales>
<clustering>
<clus scale="   21.621">  2  9  1 -1</clus>
<clus scale="   81.160">  5  6 -1 -1</clus>
<clus scale="   86.140">  7  8 -1 -1</clus>
<clus scale="  123.026">  1  5  2 -1</clus>
<clus scale="  123.026">  1  5  2 -1</clus>
</clustering>
</event>
<event>
 9    2  0.2869112E-005  0.9726986E+02  0.7546771E-02  0.1291477E+00
         -1   -1    0    0    0  501 -0.00000000000E+00  0.00000000000E+00  0.13263591043E+02  0.13263591043E+02  0.00000000000E+00 0.  1.
          2   -1    0    0  502    0  0.00000000000E+00 -0.00000000000E+00 -0.12715564293E+04  0.12715564293E+04  0.00000000000E+00 0. -1.
         23    2    1    2    0    0 -0.18711171227E+02 -0.37305535450E+01 -0.29632494926E+03  0.31057109145E+03  0.91004957727E+02 0.  0.
         24    2    1    2    0    0  0.39025754673E+02 -0.32482809179E+01 -0.93700366249E+03  0.94131567768E+03  0.81029504865E+02 0.  0.
        -13    1    4    4    0    0  0.29747943555E+02 -0.47965671336E+01 -0.10446512674E+03  0.10872400796E+03  0.00000000000E+00 0.  1.
         14    1    4    4    0    0  0.92778111184E+01  0.15482862157E+01 -0.83253853575E+03  0.83259166971E+03  0.00000000000E+00 0. -1.
        -11    1    3    3    0    0  0.32040812904E+02  0.18834089176E+02 -0.13066776415E+03  0.13585065768E+03  0.00000000000E+00 0. -1.
         11    1    3    3    0    0 -0.50751984131E+02 -0.22564642721E+02 -0.16565718512E+03  0.17472043377E+03  0.00000000000E+00 0.  1.
         21    1    1    2  502  501 -0.20314583446E+02  0.69788344629E+01 -0.24964226519E+02  0.32933251232E+02  0.00000000000E+00 0.  1.
<scales pt_clust_5="13000.00000" pt_clust_6="13000.00000" pt_clust_7="13000.00000" pt_clust_8="13000.00000" pt_clust_9="21.47991"></scales>
<clustering>
<clus scale="   21.480">  1  9  2 -1</clus>
<clus scale="   81.030">  5  6 -1 -1</clus>
<clus scale="   88.007">  2  5  1 -1</clus>
<clus scale="   91.005">  7  8 -1 -1</clus>
<clus scale="   88.007">  2  5  1 -1</clus>
</clustering>
</event>
<event>
 9    2  0.2869112E-005  0.1534692E+03  0.7546771E-02  0.1219252E+00
         -1   -1    0    0    0  501 -0.00000000000E+00  0.00000000000E+00  0.78448162489E+02  0.78448162489E+02  0.00000000000E+00 0.  1.
          2   -1    0    0  502    0  0.00000000000E+00 -0.00000000000E+00 -0.51645078656E+03  0.51645078656E+03  0.00000000000E+00 0. -1.
         23    2    1    2    0    0 -0.20273678090E+02 -0.23459600360E+02 -0.36789694740E+02  0.10073566260E+03  0.88503204504E+02 0.  0.
         24    2    1    2    0    0 -0.72281607836E+01 -0.11712807521E+03 -0.22429985490E+03  0.26652435839E+03  0.83388107031E+02 0.  0.
        -13    1    4    4    0    0 -0.11392179741E+02 -0.30771926433E+02 -0.82737764306E+01  0.33840044209E+02  0.00000000000E+00 0.  1.
         14    1    4    4    0    0  0.41640189570E+01 -0.86356148782E+02 -0.21602607847E+03  0.23268431418E+03  0.00000000000E+00 0. -1.
        -13    1    3    3    0    0 -0.10824894732E+02 -0.50351493960E+02 -0.47716869366E+02  0.70209336359E+02  0.00000000000E+00 0. -1.
         13    1    3    3    0    0 -0.94487833583E+01  0.26891893600E+02  0.10927174625E+02  0.30526326238E+02  0.00000000000E+00 0.  1.
         21    1    1    2  502  501  0.27501838874E+02  0.14058767557E+03 -0.17691307443E+03  0.22763892806E+03  0.00000000000E+00 0.  1.
<scales pt_clust_5="13000.00000" pt_clust_6="13000.00000" pt_clust_7="13000.00000" pt_clust_8="13000.00000" pt_clust_9="128.83797"></scales>
<clustering>
<clus scale="   83.388">  5  6 -1 -1</clus>
<clus scale="   88.503">  7  8 -1 -1</clus>
<clus scale="   93.777">  1  7  2 -1</clus>
<clus scale="  128.838">  1  9  2 -1</clus>
<clus scale="  153.469">  2  5  1 -1</clus>
</clustering>
</event>
<event>
 9    2  0.2869112E-005  0.1120353E+03  0.7546771E-02  0.1261418E+00
         -1   -1    0    0    0  501 -0.00000000000E+00  0.00000000000E+00  0.81209881161E+03  0.81209881161E+03  0.00000000000E+00 0.  1.
          2   -1    0    0  502    0  0.00000000000E+00 -0.00000000000E+00 -0.41651562836E+02  0.41651562836E+02  0.00000000000E+00 0. -1.
         23    2    1    2    0    0  0.79915312232E+00 -0.97516741129E+02  0.57986189920E+03  0.59519153560E+03  0.92211650377E+02 0.  0.
         24    2    1    2    0    0 -0.13896196578E+02  0.57624082903E+02  0.49492909852E+02  0.11135138905E+03  0.80224338626E+02 0.  0.
        -13    1    4    4    0    0  0.29953046715E+02  0.92351618983E+01  0.29537965985E+02  0.43069300637E+02  0.00000000000E+00 0.  1.
         14    1    4    4    0    0 -0.43849243293E+02  0.48388921005E+02  0.19954943867E+02  0.68282088413E+02  0.00000000000E+00 0. -1.
        -13    1    3    3    0    0 -0.24775026600E+02  0.70376978102E+01  0.88087754455E+02  0.91775724560E+02  0.00000000000E+00 0. -1.
         13    1    3    3    0    0  0.25574179722E+02 -0.10455443894E+03  0.49177414474E+03  0.50341581104E+03  0.00000000000E+00 0.  1.
         21    1    1    2  502  501  0.13097043456E+02  0.39892658226E+02  0.14109243972E+03  0.14720744979E+03  0.00000000000E+00 0.  1.
<scales pt_clust_5="13000.00000" pt_clust_6="13000.00000" pt_clust_7="13000.00000" pt_clust_8="13000.00000" pt_clust_9="41.98758"></scales>
<clustering>
<clus scale="   41.988">  1  9  2 -1</clus>
<clus scale="   80.224">  5  6 -1 -1</clus>
<clus scale="   92.212">  7  8 -1 -1</clus>
<clus scale="  102.396">  2  5  1 -1</clus>
<clus scale="  102.396">  2  5  1 -1</clus>
</clustering>
</event>
<event>
 9    2  0.2869112E-005  0.1003738E+03  0.7546771E-02  0.1285915E+00
          2   -1    0    0  502    0  0.00000000000E+00  0.00000000000E+00  0.81510263814E+03  0.81510263814E+03  0.00000000000E+00 0. -1.
         -1   -1    0    0    0  501 -0.00000000000E+00 -0.00000000000E+00 -0.15864064454E+03  0.15864064454E+03  0.00000000000E+00 0.  1.
         23    2    1    2    0    0 -0.25525618576E+01 -0.21460265460E+02 -0.35609632042E+02  0.10121080137E+03  0.92241649236E+02 0.  0.
         24    2    1    2    0    0 -0.32997300588E+02  0.23762397162E+02  0.77611722467E+03  0.78124855476E+03  0.79610831720E+02 0.  0.
        -11    1    4    4    0    0 -0.14133316124E+02 -0.26398105266E+02  0.15798476735E+03  0.16079737964E+03  0.00000000000E+00 0.  1.
         12    1    4    4    0    0 -0.18863984464E+02  0.50160502428E+02  0.61813245732E+03  0.62045117512E+03  0.00000000000E+00 0. -1.
        -13    1    3    3    0    0  0.18769278421E+02 -0.89973699585E+01 -0.61800858130E+02  0.65211843589E+02  0.00000000000E+00 0.  1.
         13    1    3    3    0    0 -0.21321840279E+02 -0.12462895502E+02  0.26191226088E+02  0.35998957779E+02  0.00000000000E+00 0. -1.
         21    1    1    2  502  501  0.35549862446E+02 -0.23021317018E+01 -0.84045599023E+02  0.91283926545E+02  0.00000000000E+00 0.  1.
<scales pt_clust_5="13000.00000" pt_clust_6="13000.00000" pt_clust_7="13000.00000" pt_clust_8="13000.00000" pt_clust_9="35.62432"></scales>
<clustering>
<clus scale="   35.624">  2  9  1 -1</clus>
<clus scale="   79.611">  5  6 -1 -1</clus>
<clus scale="   88.906">  1  5  2 -1</clus>
<clus scale="   92.242">  7  8 -1 -1</clus>
<clus scale="   88.906">  1  5  2 -1</clus>
</clustering>
</event>
<event>
 9    2  0.2869112E-005  0.1005639E+03  0.7546771E-02  0.1284766E+00
          2   -1    0    0  502    0  0.00000000000E+00  0.00000000000E+00  0.62206757617E+03  0.62206757617E+03  0.00000000000E+00 0. -1.
         -1   -1    0    0    0  501 -0.00000000000E+00 -0.00000000000E+00 -0.27181578746E+03  0.27181578746E+03  0.00000000000E+00 0.  1.
         23    2    1    2    0    0  0.25723899572E+02 -0.11657638713E+02  0.63088558375E+02  0.11416994307E+03  0.90867982001E+02 0.  0.
         24    2    1    2    0    0 -0.37972480449E+02 -0.28699996977E+02  0.52757196739E+03  0.53563325474E+03  0.79405312884E+02 0.  0.
        -13    1    4    4    0    0 -0.39155670137E+02 -0.10188627275E+01  0.10360452189E+03  0.11076146235E+03  0.00000000000E+00 0.  1.
         14    1    4    4    0    0  0.11831896881E+01 -0.27681134250E+02  0.42396744550E+03  0.42487179240E+03  0.00000000000E+00 0. -1.
        -13    1    3    3    0    0  0.35843753372E+02  0.31154808638E+02  0.48354775533E+02  0.67775962360E+02  0.00000000000E+00 0.  1.
         13    1    3    3    0    0 -0.10119853800E+02 -0.42812447351E+02  0.14733782842E+02  0.46393980708E+02  0.00000000000E+00 0. -1.
         21    1    1    2  502  501  0.12248580877E+02  0.40357635691E+02 -0.24040873705E+03  0.24408016582E+03  0.00000000000E+00 0.  1.
<scales pt_clust_5="13000.00000" pt_clust_6="13000.00000" pt_clust_7="13000.00000" pt_clust_8="13000.00000" pt_clust_9="42.17543"></scales>
<clustering>
<clus scale="   42.175">  2  9  1 -1</clus>
<clus scale="   79.405">  5  6 -1 -1</clus>
<clus scale="   90.340">  1  5  2 -1</clus>
<clus scale="   90.868">  7  8 -1 -1</clus>
<clus scale="   90.340">  1  5  2 -1</clus>
</clustering>
</event>
<event>
 9    2  0.2869112E-005  0.1068924E+03  0.7546771E-02  0.1270876E+00
         -1   -1    0    0    0  501 -0.00000000000E+00  0.00000000000E+00  0.57699268551E+02  0.57699268551E+02  0.00000000000E+00 0.  1.
          2   -1    0    0  502    0  0.00000000000E+00 -0.00000000000E+00 -0.49589636593E+03  0.49589636593E+03  0.00000000000E+00 0. -1.
         23    2    1    2    0    0 -0.18062837447E+01 -0.50770569123E+01 -0.32089839694E+02  0.97154090501E+02  0.91542997119E+02 0.  0.
         24    2    1    2    0    0 -0.61188723268E+02  0.29702538517E+02 -0.35833264364E+03  0.37363333786E+03  0.81075810305E+02 0.  0.
        -13    1    4    4    0    0 -0.24810524920E+02  0.29153649894E+02 -0.49061911861E+02  0.62229965808E+02  0.00000000000E+00 0.  1.
         14    1    4    4    0    0 -0.36378198347E+02  0.54888862342E+00 -0.30927073178E+03  0.31140337205E+03  0.00000000000E+00 0. -1.
        -11    1    3    3    0    0 -0.43687249760E+02  0.10442446451E+01 -0.33093136096E+02  0.54816255756E+02  0.00000000000E+00 0.  1.
         11    1    3    3    0    0  0.41880966016E+02 -0.61213015574E+01  0.10032964014E+01  0.42337834744E+02  0.00000000000E+00 0. -1.
         21    1    1    2  502  501  0.62995007012E+02 -0.24625481605E+02 -0.47774614044E+02  0.82808206114E+02  0.00000000000E+00 0.  1.
<scales pt_clust_5="13000.00000" pt_clust_6="13000.00000" pt_clust_7="13000.00000" pt_clust_8="13000.00000" pt_clust_9="67.63716"></scales>
<clustering>
<clus scale="   67.637">  1  9  2 -1</clus>
<clus scale="   81.076">  5  6 -1 -1</clus>
<clus scale="   91.543">  7  8 -1 -1</clus>
<clus scale="   98.077">  2  5  1 -1</clus>
<clus scale="   98.077">  2  5  1 -1</clus>
</clustering>
</event>
<event>
 9    2  0.2869112E-005  0.9388548E+02  0.7546771E-02  0.1301856E+00
         -1   -1    0    0    0  501 -0.00000000000E+00  0.00000000000E+00  0.95557229285E+02  0.95557229285E+02  0.00000000000E+00 0.  1.
          2   -1    0    0  502    0  0.00000000000E+00 -0.00000000000E+00 -0.16432316309E+04  0.16432316309E+04  0.00000000000E+00 0. -1.
         23    2    1    2    0    0  0.64831560690E+01 -0.10894249843E+02  0.38262290696E+02  0.99005121255E+02  0.90428397936E+02 0.  0.
         24    2    1    2    0    0 -0.12710702080E+02 -0.22349222639E+02 -0.16007982910E+04  0.16028408383E+04  0.76697684039E+02 0.  0.
        -13    1    4    4    0    0 -0.16846097232E+02 -0.12060062729E+02 -0.10623275509E+03  0.10823416447E+03  0.00000000000E+00 0.  1.
         14    1    4    4    0    0  0.41353951517E+01 -0.10289159910E+02 -0.14945655359E+04  0.14946066739E+04  0.00000000000E+00 0. -1.
        -13    1    3    3    0    0  0.30788964835E+02 -0.51965346219E+01  0.58867029794E+02  0.66635512487E+02  0.00000000000E+00 0.  1.
         13    1    3    3    0    0 -0.24305808766E+02 -0.56977152211E+01 -0.20604739098E+02  0.32369608768E+02  0.00000000000E+00 0. -1.
         21    1    1    2  502  501  0.62275460112E+01  0.33243472482E+02  0.14861598687E+02  0.36942900638E+02  0.00000000000E+00 0.  1.
<scales pt_clust_5="13000.00000" pt_clust_6="13000.00000" pt_clust_7="13000.00000" pt_clust_8="13000.00000" pt_clust_9="33.82175"></scales>
<clustering>
<clus scale="   33.822">  1  9  2 -1</clus>
<clus scale="   76.698">  5  6 -1 -1</clus>
<clus scale="   80.745">  2  5  1 -1</clus>
<clus scale="   90.428">  7  8 -1 -1</clus>
<clus scale="   80.745">  2  5  1 -1</clus>
</clustering>
</event>
<event>
 9    2  0.2869112E-005  0.1179589E+03  0.7546771E-02  0.1250422E+00
          2   -1    0    0  502    0  0.00000000000E+00  0.00000000000E+00  0.44598516392E+03  0.44598516392E+03  0.00000000000E+00 0. -1.
         -1   -1    0    0    0  501 -0.00000000000E+00 -0.00000000000E+00 -0.49578072118E+02  0.49578072118E+02  0.00000000000E+00 0.  1.
         23    2    1    2    0    0  0.18955318114E+02  0.84511248343E+02  0.14719795096E+03  0.19404430589E+03  0.92111349469E+02 0.  0.
         24    2    1    2    0    0 -0.45921719648E+01 -0.68093414924E+02  0.25744187785E+03  0.27820320198E+03  0.80392163322E+02 0.  0.
        -11    1    4    4    0    0 -0.39520252786E+01 -0.22926682511E+02  0.78451686082E+01  0.24551943818E+02  0.00000000000E+00 0.  1.
         12    1    4    4    0    0 -0.64014668625E+00 -0.45166732413E+02  0.24959670924E+03  0.25365125816E+03  0.00000000000E+00 0. -1.
        -13    1    3    3    0    0 -0.87373169043E+01  0.60220605509E+02  0.23925376901E+02  0.65385668876E+02  0.00000000000E+00 0.  1.
         13    1    3    3    0    0  0.27692635018E+02  0.24290642834E+02  0.12327257406E+03  0.12865863702E+03  0.00000000000E+00 0. -1.
         21    1    1    2  502  501 -0.14363146149E+02 -0.16417833419E+02 -0.82327370013E+01  0.23315728168E+02  0.00000000000E+00 0.  1.
<scales pt_clust_5="13000.00000" pt_clust_6="13000.00000" pt_clust_7="13000.00000" pt_clust_8="13000.00000" pt_clust_9="21.81388"></scales>
<clustering>
<clus scale="   21.814">  2  9  1 -1</clus>
<clus scale="   80.392">  5  6 -1 -1</clus>
<clus scale="   92.111">  7  8 -1 -1</clus>
<clus scale="  109.054">  1  5  2 -1</clus>
<clus scale="  109.054">  1  5  2 -1</clus>
</clustering>
</event>
<event>
 9    2  0.2869112E-005  0.1015178E+03  0.7546771E-02  0.1286060E+00
         -1   -1    0    0    0  501 -0.00000000000E+00  0.00000000000E+00  0.98594328279E+02  0.98594328279E+02  0.00000000000E+00 0.  1.
          2   -1    0    0  502    0  0.00000000000E+00 -0.00000000000E+00 -0.54256611878E+03  0.54256611878E+03  0.00000000000E+00 0. -1.
         23    2    1    2    0    0 -0.41348763996E+02 -0.22209983281E+02  0.51386587125E+02  0.11743735520E+03  0.94593590793E+02 0.  0.
         24    2    1    2    0    0  0.36640547006E+02  0.27146643722E-01 -0.49361002559E+03  0.50097881162E+03  0.77371712547E+02 0.  0.
        -11    1    4    4    0    0 -0.16842876589E+02 -0.11628247186E+02 -0.50337976213E+02  0.54339768803E+02  0.00000000000E+00 0.  1.
         12    1    4    4    0    0  0.53483423595E+02  0.11655393829E+02 -0.44327204938E+03  0.44663904282E+03  0.00000000000E+00 0. -1.
        -11    1    3    3    0    0  0.66279539340E+01 -0.29070898427E+02 -0.16460201692E+02  0.34058554703E+02  0.00000000000E+00 0. -1.
         11    1    3    3    0    0 -0.47976717930E+02  0.68609151456E+01  0.67846788817E+02  0.83378800500E+02  0.00000000000E+00 0.  1.
         21    1    1    2  502  501  0.47082169895E+01  0.22182836637E+02 -0.17483520263E+01  0.22744280233E+02  0.00000000000E+00 0.  1.
<scales pt_clust_5="13000.00000" pt_clust_6="13000.00000" pt_clust_7="13000.00000" pt_clust_8="13000.00000" pt_clust_9="22.67698"></scales>
<clustering>
<clus scale="   22.677">  1  9  2 -1</clus>
<clus scale="   77.372">  5  6 -1 -1</clus>
<clus scale="   85.699">  2  5  1 -1</clus>
<clus scale="   94.594">  7  8 -1 -1</clus>
<clus scale="   85.699">  2  5  1 -1</clus>
</clustering>
</event>
<event>
 9    2  0.2869112E-005  0.1107327E+03  0.7546771E-02  0.1263788E+00
         -1   -1    0    0    0  501 -0.00000000000E+00  0.00000000000E+00  0.46773132528E+02  0.46773132528E+02  0.00000000000E+00 0.  1.
          2   -1    0    0  502    0  0.00000000000E+00 -0.00000000000E+00 -0.10960574987E+04  0.10960574987E+04  0.00000000000E+00 0. -1.
         23    2    1    2    0    0  0.17539999103E+02 -0.18053938222E+02 -0.21799371037E+03  0.23836557544E+03  0.93076815275E+02 0.  0.
         24    2    1    2    0    0 -0.63174216061E+02 -0.54539122290E+02 -0.80693336686E+03  0.81532745588E+03  0.81559207525E+02 0.  0.
        -11    1    4    4    0    0 -0.71511640176E+02 -0.42605707341E+02 -0.42269619699E+03  0.43081461899E+03  0.00000000000E+00 0.  1.
         12    1    4    4    0    0  0.83374241158E+01 -0.11933414949E+02 -0.38423716986E+03  0.38451283690E+03  0.00000000000E+00 0. -1.
        -13    1    3    3    0    0  0.49439324321E+02  0.11226472130E+02 -0.90681196154E+02  0.10389109587E+03  0.00000000000E+00 0.  1.
         13    1    3    3    0    0 -0.31899325218E+02 -0.29280410352E+02 -0.12731251421E+03  0.13447447957E+03  0.00000000000E+00 0. -1.
         21    1    1    2  502  501  0.45634216958E+02  0.72593060511E+02 -0.24357288947E+02  0.89137599904E+02  0.00000000000E+00 0.  1.
<scales pt_clust_5="13000.00000" pt_clust_6="13000.00000" pt_clust_7="13000.00000" pt_clust_8="13000.00000" pt_clust_9="85.74517"></scales>
<clustering>
<clus scale="   81.559">  5  6 -1 -1</clus>
<clus scale="   85.745">  1  9  2 -1</clus>
<clus scale="   93.077">  7  8 -1 -1</clus>
<clus scale="  101.244">  2  5  1 -1</clus>
<clus scale="  101.244">  2  5  1 -1</clus>
</clustering>
</event>
<event>
 9    2  0.2869112E-005  0.1005910E+03  0.7546771E-02  0.1283812E+00
          2   -1    0    0  502    0  0.00000000000E+00  0.00000000000E+00  0.22240112888E+03  0.22240112888E+03  0.00000000000E+00 0. -1.
         -1   -1    0    0    0  501 -0.00000000000E+00 -0.00000000000E+00 -0.99001398519E+02  0.99001398519E+02  0.00000000000E+00 0.  1.
         23    2    1    2    0    0  0.46578879234E+01  0.18349699637E+02  0.13187938572E+02  0.93632812662E+02  0.90745658224E+02 0.  0.
         24    2    1    2    0    0 -0.18562775069E+01 -0.52200957842E+02  0.14821199199E+03  0.17680137242E+03  0.81015708070E+02 0.  0.
        -13    1    4    4    0    0  0.23474417754E+02 -0.39525919590E+02  0.29190239102E+02  0.54455639443E+02  0.00000000000E+00 0.  1.
         14    1    4    4    0    0 -0.25330695261E+02 -0.12675038252E+02  0.11902175289E+03  0.12234573298E+03  0.00000000000E+00 0. -1.
        -13    1    3    3    0    0 -0.28792305914E+02 -0.46059969435E+01  0.36598139212E+02  0.46793545297E+02  0.00000000000E+00 0. -1.
         13    1    3    3    0    0  0.33450193838E+02  0.22955696581E+02 -0.23410200639E+02  0.46839267365E+02  0.00000000000E+00 0.  1.
         21    1    1    2  502  501 -0.28016104165E+01  0.33851258205E+02 -0.38000200203E+02  0.50968342316E+02  0.00000000000E+00 0. -1.
<scales pt_clust_5="13000.00000" pt_clust_6="13000.00000" pt_clust_7="13000.00000" pt_clust_8="13000.00000" pt_clust_9="33.96699"></scales>
<clustering>
<clus scale="   33.967">  2  9  1 -1</clus>
<clus scale="   81.016">  5  6 -1 -1</clus>
<clus scale="   90.746">  7  8 -1 -1</clus>
<clus scale="   91.909">  1  5  2 -1</clus>
<clus scale="   91.909">  1  5  2 -1</clus>
</clustering>
</event>
<event>
 9    2  0.2869112E-005  0.1172900E+03  0.7546771E-02  0.1262934E+00
          2   -1    0    0  502    0  0.00000000000E+00  0.00000000000E+00  0.43524344601E+03  0.43524344601E+03  0.00000000000E+00 0. -1.
         -1   -1    0    0    0  501 -0.00000000000E+00 -0.00000000000E+00 -0.21516677874E+03  0.21516677874E+03  0.00000000000E+00 0.  1.
         23    2    1    2    0    0  0.12038464624E+02  0.18836519602E+02 -0.63335077866E+02  0.13060599235E+03  0.11201274056E+03 0.  0.
         24    2    1    2    0    0 -0.35838858475E+02 -0.11672472678E+01  0.39493028247E+03  0.40441339177E+03  0.79337741250E+02 0.  0.
        -13    1    4    4    0    0 -0.31051282558E+02  0.36158057896E+02  0.17942754349E+03  0.18564975266E+03  0.00000000000E+00 0.  1.
         14    1    4    4    0    0 -0.47875759169E+01 -0.37325305163E+02  0.21550273898E+03  0.21876363911E+03  0.00000000000E+00 0. -1.
        -13    1    3    3    0    0  0.30726590658E+02  0.51006626484E+01 -0.90016705694E+02  0.95253070485E+02  0.00000000000E+00 0.  1.
         13    1    3    3    0    0 -0.18688126033E+02  0.13735856953E+02  0.26681627828E+02  0.35352921866E+02  0.00000000000E+00 0. -1.
         21    1    1    2  502  501  0.23800393851E+02 -0.17669272334E+02 -0.11151853733E+03  0.11539084063E+03  0.00000000000E+00 0.  1.
<scales pt_clust_5="13000.00000" pt_clust_6="13000.00000" pt_clust_7="13000.00000" pt_clust_8="13000.00000" pt_clust_9="29.64223"></scales>
<clustering>
<clus scale="   29.642">  2  9  1 -1</clus>
<clus scale="   79.338">  5  6 -1 -1</clus>
<clus scale="   86.629">  1  5  2 -1</clus>
<clus scale="  112.013">  7  8 -1 -1</clus>
<clus scale="   86.629">  1  5  2 -1</clus>
</clustering>
</event>
<event>
 9    2  0.2869112E-005  0.1308204E+03  0.7546771E-02  0.1228485E+00
          2   -1    0    0  502    0  0.00000000000E+00  0.00000000000E+00  0.31424689116E+03  0.31424689116E+03  0.00000000000E+00 0. -1.
         -1   -1    0    0    0  501 -0.00000000000E+00 -0.00000000000E+00 -0.10341058902E+03  0.10341058902E+03  0.00000000000E+00 0.  1.
         23    2    1    2    0    0  0.16546974221E+02  0.87965425314E+02 -0.12667679754E+02  0.12906896811E+03  0.92122798548E+02 0.  0.
         24    2    1    2    0    0  0.12738722593E+02 -0.93675495514E+02  0.22583400375E+03  0.25866049942E+03  0.83467857262E+02 0.  0.
        -13    1    4    4    0    0 -0.25446234874E+02 -0.10838409463E+02  0.96579817378E+02  0.10046214767E+03  0.00000000000E+00 0.  1.
         14    1    4    4    0    0  0.38184957467E+02 -0.82837086051E+02  0.12925418638E+03  0.15819835175E+03  0.00000000000E+00 0. -1.
        -13    1    3    3    0    0  0.53909832282E+02  0.39476746437E+02 -0.11779632814E+02  0.67848679244E+02  0.00000000000E+00 0.  1.
         13    1    3    3    0    0 -0.37362858060E+02  0.48488678877E+02 -0.88804694051E+00  0.61220288868E+02  0.00000000000E+00 0. -1.
         21    1    1    2  502  501 -0.29285696814E+02  0.57100701998E+01 -0.23300218568E+01  0.29928012654E+02  0.00000000000E+00 0. -1.
<scales pt_clust_5="13000.00000" pt_clust_6="13000.00000" pt_clust_7="13000.00000" pt_clust_8="13000.00000" pt_clust_9="29.83717"></scales>
<clustering>
<clus scale="   29.837">  2  9  1 -1</clus>
<clus scale="   83.468">  5  6 -1 -1</clus>
<clus scale="   92.123">  7  8 -1 -1</clus>
<clus scale="  124.877">  1  5  2 -1</clus>
<clus scale="  124.877">  1  5  2 -1</clus>
</clustering>
</event>
<event>
 9    2  0.2869112E-005  0.9384495E+02  0.7546771E-02  0.1300711E+00
         -1   -1    0    0    0  501 -0.00000000000E+00  0.00000000000E+00  0.32227609199E+02  0.32227609199E+02  0.00000000000E+00 0.  1.
          2   -1    0    0  502    0  0.00000000000E+00 -0.00000000000E+00 -0.48814128621E+03  0.48814128621E+03  0.00000000000E+00 0. -1.
         23    2    1    2    0    0 -0.80537802448E+01  0.39346308472E+02 -0.15714445449E+03  0.18699369731E+03  0.93055187343E+02 0.  0.
         24    2    1    2    0    0 -0.13286737216E+02  0.26560096653E+01 -0.25838112020E+03  0.27132029318E+03  0.81671944053E+02 0.  0.
        -11    1    4    4    0    0  0.21225245847E+02 -0.28658744076E+02 -0.97122321908E+02  0.10346294064E+03  0.00000000000E+00 0.  1.
         12    1    4    4    0    0 -0.34511983062E+02  0.31314753741E+02 -0.16125879829E+03  0.16785735254E+03  0.00000000000E+00 0. -1.
        -13    1    3    3    0    0  0.40755488789E+02  0.11755772595E+02 -0.46407809683E+02  0.62872035559E+02  0.00000000000E+00 0.  1.
         13    1    3    3    0    0 -0.48809269034E+02  0.27590535877E+02 -0.11073664480E+03  0.12412166175E+03  0.00000000000E+00 0. -1.
         21    1    1    2  502  501  0.21340517460E+02 -0.42002318137E+02 -0.40388102328E+02  0.62054904915E+02  0.00000000000E+00 0.  1.
<scales pt_clust_5="13000.00000" pt_clust_6="13000.00000" pt_clust_7="13000.00000" pt_clust_8="13000.00000" pt_clust_9="47.11276"></scales>
<clustering>
<clus scale="   47.113">  1  9  2 -1</clus>
<clus scale="   81.672">  5  6 -1 -1</clus>
<clus scale="   82.571">  2  5  1 -1</clus>
<clus scale="   93.055">  7  8 -1 -1</clus>
<clus scale="   82.571">  2  5  1 -1</clus>
</clustering>
</event>
<event>
 9    2  0.2869112E-005  0.1003329E+03  0.7546771E-02  0.1285512E+00
         -1   -1    0    0    0  501 -0.00000000000E+00  0.00000000000E+00  0.15507443244E+03  0.15507443244E+03  0.00000000000E+00 0.  1.
          2   -1    0    0  502    0  0.00000000000E+00 -0.00000000000E+00 -0.12620149096E+03  0.12620149096E+03  0.00000000000E+00 0. -1.
         23    2    1    2    0    0 -0.19005474104E+02  0.70814202086E+01  0.98964537726E+02  0.13682449605E+03  0.92280054366E+02 0.  0.
         24    2    1    2    0    0  0.31755174223E+02 -0.29186661982E+02 -0.75280039198E+02  0.11841075710E+03  0.80583936161E+02 0.  0.
        -11    1    4    4    0    0  0.36756566724E+02 -0.11130770161E+02  0.24225602501E+01  0.38481268688E+02  0.00000000000E+00 0.  1.
         12    1    4    4    0    0 -0.50013925013E+01 -0.18055891821E+02 -0.77702599448E+02  0.79929488409E+02  0.00000000000E+00 0. -1.
        -13    1    3    3    0    0  0.14645125525E+02 -0.18266320252E+02 -0.56165809072E+01  0.24076630542E+02  0.00000000000E+00 0. -1.
         13    1    3    3    0    0 -0.33650599629E+02  0.25347740460E+02  0.10458111863E+03  0.11274786551E+03  0.00000000000E+00 0.  1.
         21    1    1    2  502  501 -0.12749700119E+02  0.22105241774E+02  0.51884429579E+01  0.26040670255E+02  0.00000000000E+00 0.  1.
<scales pt_clust_5="13000.00000" pt_clust_6="13000.00000" pt_clust_7="13000.00000" pt_clust_8="13000.00000" pt_clust_9="25.51855"></scales>
<clustering>
<clus scale="   25.519">  1  9  2 -1</clus>
<clus scale="   80.584">  5  6 -1 -1</clus>
<clus scale="   89.693">  2  5  1 -1</clus>
<clus scale="   92.280">  7  8 -1 -1</clus>
<clus scale="   89.693">  2  5  1 -1</clus>
</clustering>
</event>
<event>
 9    2  0.2869112E-005  0.1162222E+03  0.7546771E-02  0.1252631E+00
         -1   -1    0    0    0  501 -0.00000000000E+00  0.00000000000E+00  0.92560599498E+02  0.92560599498E+02  0.00000000000E+00 0.  1.
          2   -1    0    0  502    0  0.00000000000E+00 -0.00000000000E+00 -0.53193358731E+03  0.53193358731E+03  0.00000000000E+00 0. -1.
         23    2    1    2    0    0 -0.52304230817E+02  0.28377947607E+02  0.43095991104E+02  0.11686609522E+03  0.90881127260E+02 0.  0.
         24    2    1    2    0    0  0.48034906371E+02 -0.56032519308E+02 -0.45609725221E+03  0.46917720815E+03  0.81581577138E+02 0.  0.
        -13    1    4    4    0    0  0.26184387473E+02 -0.14133624183E+02 -0.37262352251E+02  0.47685054002E+02  0.00000000000E+00 0.  1.
         14    1    4    4    0    0  0.21850518898E+02 -0.41898895125E+02 -0.41883489996E+03  0.42149215415E+03  0.00000000000E+00 0. -1.
        -11    1    3    3    0    0 -0.54721867642E+02 -0.15229110496E+02  0.19075032887E+01  0.56833503970E+02  0.00000000000E+00 0. -1.
         11    1    3    3    0    0  0.24176368249E+01  0.43607058103E+02  0.41188487815E+02  0.60032591254E+02  0.00000000000E+00 0.  1.
         21    1    1    2  502  501  0.42693244459E+01  0.27654571701E+02 -0.26371726714E+02  0.38450883437E+02  0.00000000000E+00 0. -1.
<scales pt_clust_5="13000.00000" pt_clust_6="13000.00000" pt_clust_7="13000.00000" pt_clust_8="13000.00000" pt_clust_9="27.98218"></scales>
<clustering>
<clus scale="   27.982">  1  9  2 -1</clus>
<clus scale="   81.582">  5  6 -1 -1</clus>
<clus scale="   90.881">  7  8 -1 -1</clus>
<clus scale="  109.104">  2  5  1 -1</clus>
<clus scale="  109.104">  2  5  1 -1</clus>
</clustering>
</event>
<event>
 9    2  0.2869112E-005  0.9821449E+02  0.7546771E-02  0.1287804E+00
          2   -1    0    0  502    0  0.00000000000E+00  0.00000000000E+00  0.63659658882E+02  0.63659658882E+02  0.00000000000E+00 0. -1.
         -1   -1    0    0    0  501 -0.00000000000E+00 -0.00000000000E+00 -0.75803796913E+03  0.75803796913E+03  0.00000000000E+00 0.  1.
         23    2    1    2    0    0  0.69878004223E+02  0.28962338402E+02 -0.51033427765E+03  0.52358777609E+03  0.89338299743E+02 0.  0.
         24    2    1    2    0    0  0.10076354980E+02 -0.41612547516E+02  0.48242459636E+01  0.92625171250E+02  0.81993975142E+02 0.  0.
        -13    1    4    4    0    0 -0.49399323276E+01  0.24044343032E+02 -0.33682328549E+01  0.24776568685E+02  0.00000000000E+00 0.  1.
         14    1    4    4    0    0  0.15016287308E+02 -0.65656890548E+02  0.81924788185E+01  0.67848602566E+02  0.00000000000E+00 0. -1.
        -11    1    3    3    0    0  0.69066239289E+02 -0.11565906749E+02 -0.39910740403E+03  0.40520443674E+03  0.00000000000E+00 0.  1.
         11    1    3    3    0    0  0.81176493424E+00  0.40528245152E+02 -0.11122687363E+03  0.11838333934E+03  0.00000000000E+00 0. -1.
         21    1    1    2  502  501 -0.79954359203E+02  0.12650209114E+02 -0.18886827856E+03  0.20548468068E+03  0.00000000000E+00 0. -1.
<scales pt_clust_5="13000.00000" pt_clust_6="13000.00000" pt_clust_7="13000.00000" pt_clust_8="13000.00000" pt_clust_9="80.94892"></scales>
<clustering>
<clus scale="   80.949">  2  9  1 -1</clus>
<clus scale="   81.994">  5  6 -1 -1</clus>
<clus scale="   89.338">  7  8 -1 -1</clus>
<clus scale="   91.585">  1  5  2 -1</clus>
<clus scale="   91.585">  1  5  2 -1</clus>
</clustering>
</event>
<event>
 9    2  0.2869112E-005  0.1044520E+03  0.7546771E-02  0.1275809E+00
         -1   -1    0    0    0  501 -0.00000000000E+00  0.00000000000E+00  0.23274441910E+03  0.23274441910E+03  0.00000000000E+00 0.  1.
          2   -1    0    0  502    0  0.00000000000E+00 -0.00000000000E+00 -0.10176049417E+04  0.10176049417E+04  0.00000000000E+00 0. -1.
         23    2    1    2    0    0 -0.69093707723E+02 -0.28946113918E+02  0.19762794032E+03  0.22987438829E+03  0.90408039684E+02 0.  0.
         24    2    1    2    0    0  0.46380343448E+02  0.23672349806E+02 -0.99104833606E+03  0.99563587165E+03  0.80015424206E+02 0.  0.
        -13    1    4    4    0    0  0.10251151816E+02 -0.18777018843E+02 -0.77793669235E+02  0.80681581065E+02  0.00000000000E+00 0.  1.
         14    1    4    4    0    0  0.36129191632E+02  0.42449368648E+02 -0.91325466682E+03  0.91495429059E+03  0.00000000000E+00 0. -1.
        -11    1    3    3    0    0  0.64752781174E+00 -0.43184185707E+02  0.10111377635E+03  0.10995130265E+03  0.00000000000E+00 0.  1.
         11    1    3    3    0    0 -0.69741235535E+02  0.14238071789E+02  0.96514163970E+02  0.11992308564E+03  0.00000000000E+00 0. -1.
         21    1    1    2  502  501  0.22713364276E+02  0.52737641118E+01  0.85598731147E+01  0.24839100877E+02  0.00000000000E+00 0. -1.
<scales pt_clust_5="13000.00000" pt_clust_6="13000.00000" pt_clust_7="13000.00000" pt_clust_8="13000.00000" pt_clust_9="23.31758"></scales>
<clustering>
<clus scale="   23.318">  1  9  2 -1</clus>
<clus scale="   80.015">  5  6 -1 -1</clus>
<clus scale="   90.408">  7  8 -1 -1</clus>
<clus scale="   95.598">  2  5  1 -1</clus>
<clus scale="   95.598">  2  5  1 -1</clus>
</clustering>
</event>
<event>
 9    2  0.5744377E-005  0.9177828E+02  0.7546771E-02  0.1301584E+00
         -1   -1    0    0    0  501 -0.00000000000E+00  0.00000000000E+00  0.63164145367E+02  0.63164145367E+02  0.00000000000E+00 0.  1.
          2   -1    0    0  502    0  0.00000000000E+00 -0.00000000000E+00 -0.49727627078E+03  0.49727627078E+03  0.00000000000E+00 0. -1.
         24    2    1    2    0    0 -0.91313980419E+01 -0.27663357184E+02  0.17146933491E+02  0.87961918459E+02  0.81207376574E+02 0.  0.
         23    2    1    2    0    0 -0.94626269902E+00  0.53711454471E+02 -0.41144609065E+03  0.42384584344E+03  0.86438404276E+02 0.  0.
        -11    1    3    3    0    0 -0.25256943717E+02 -0.51261970358E+02  0.16056424055E+02  0.59359174222E+02  0.00000000000E+00 0.  1.
         12    1    3    3    0    0  0.16125545675E+02  0.23598613174E+02  0.10905094360E+01  0.28602744237E+02  0.00000000000E+00 0. -1.
        -11    1    4    4    0    0 -0.36821321141E+02  0.97374285868E+01 -0.94989319932E+02  0.10234059853E+03  0.00000000000E+00 0.  1.
         11    1    4    4    0    0  0.35875058442E+02  0.43974025884E+02 -0.31645677072E+03  0.32150524491E+03  0.00000000000E+00 0. -1.
         21    1    1    2  502  501  0.10077660741E+02 -0.26048097287E+02 -0.39812968253E+02  0.48632654250E+02  0.00000000000E+00 0.  1.
<scales pt_clust_5="13000.00000" pt_clust_6="13000.00000" pt_clust_7="13000.00000" pt_clust_8="13000.00000" pt_clust_9="27.92960"></scales>
<clustering>
<clus scale="   27.930">  2  9  1 -1</clus>
<clus scale="   81.207">  5  6 -1 -1</clus>
<clus scale="   86.438">  7  8 -1 -1</clus>
<clus scale="   86.869">  1  5  2 -1</clus>
<clus scale="   27.930">  2  5  1 -1</clus>
</clustering>
</event>
<event>
 9    2  0.2869112E-005  0.1179957E+03  0.7546771E-02  0.1250330E+00
         -1   -1    0    0    0  501 -0.00000000000E+00  0.00000000000E+00  0.54386338869E+02  0.54386338869E+02  0.00000000000E+00 0.  1.
          2   -1    0    0  502    0  0.00000000000E+00 -0.00000000000E+00 -0.99093133626E+03  0.99093133626E+03  0.00000000000E+00 0. -1.
         23    2    1    2    0    0 -0.59312972573E+01 -0.93864133207E+02 -0.52488320296E+03  0.54105261857E+03  0.91596416550E+02 0.  0.
         24    2    1    2    0    0  0.10202886885E+02  0.60081303906E+02 -0.44524388698E+03  0.45643950928E+03  0.79881441947E+02 0.  0.
        -11    1    4    4    0    0  0.39796192249E+02  0.51116503427E+02 -0.35950790631E+03  0.36529791752E+03  0.00000000000E+00 0.  1.
         12    1    4    4    0    0 -0.29593305364E+02  0.89648004784E+01 -0.85735980663E+02  0.91141591769E+02  0.00000000000E+00 0. -1.
        -11    1    3    3    0    0 -0.41200773977E+02 -0.15295261914E+02 -0.21367351167E+03  0.21814632338E+03  0.00000000000E+00 0. -1.
         11    1    3    3    0    0  0.35269476719E+02 -0.78568871293E+02 -0.31120969128E+03  0.32290629519E+03  0.00000000000E+00 0.  1.
         21    1    1    2  502  501 -0.42715896279E+01  0.33782829301E+02  0.33582092535E+02  0.47825547280E+02  0.00000000000E+00 0.  1.
<scales pt_clust_5="13000.00000" pt_clust_6="13000.00000" pt_clust_7="13000.00000" pt_clust_8="13000.00000" pt_clust_9="34.05181"></scales>
<clustering>
<clus scale="   34.052">  1  9  2 -1</clus>
<clus scale="   79.881">  5  6 -1 -1</clus>
<clus scale="   91.596">  7  8 -1 -1</clus>
<clus scale="  109.152">  2  5  1 -1</clus>
<clus scale="  109.152">  2  5  1 -1</clus>
</clustering>
</event>
<event>
 9    2  0.2869112E-005  0.9670275E+02  0.7546771E-02  0.1293634E+00
         -1   -1    0    0    0  501 -0.00000000000E+00  0.00000000000E+00  0.19369864756E+02  0.19369864756E+02  0.00000000000E+00 0.  1.
          2   -1    0    0  502    0  0.00000000000E+00 -0.00000000000E+00 -0.69632617368E+03  0.69632617368E+03  0.00000000000E+00 0. -1.
         23    2    1    2    0    0  0.12022905419E+02  0.20929692224E+02 -0.17428928729E+03  0.19841365603E+03  0.91698533050E+02 0.  0.
         24    2    1    2    0    0  0.32048689737E+01 -0.33914173059E+02 -0.47602387827E+03  0.48396063359E+03  0.80366161216E+02 0.  0.
        -11    1    4    4    0    0  0.16668900791E+02 -0.34594955186E+02 -0.91904029519E+02  0.99604286151E+02  0.00000000000E+00 0.  1.
         12    1    4    4    0    0 -0.13464031817E+02  0.68078212621E+00 -0.38411984875E+03  0.38435634744E+03  0.00000000000E+00 0. -1.
        -11    1    3    3    0    0 -0.33724563799E+02  0.18869877790E+02 -0.12630380286E+03  0.13208356865E+03  0.00000000000E+00 0. -1.
         11    1    3    3    0    0  0.45747469218E+02  0.20598144338E+01 -0.47985484430E+02  0.66330087376E+02  0.00000000000E+00 0.  1.
         21    1    1    2  502  501 -0.15227774392E+02  0.12984480835E+02 -0.26643143368E+02  0.33321748814E+02  0.00000000000E+00 0. -1.
<scales pt_clust_5="13000.00000" pt_clust_6="13000.00000" pt_clust_7="13000.00000" pt_clust_8="13000.00000" pt_clust_9="20.01204"></scales>
<clustering>
<clus scale="   20.012">  1  9  2 -1</clus>
<clus scale="   80.366">  5  6 -1 -1</clus>
<clus scale="   86.032">  2  5  1 -1</clus>
<clus scale="   91.699">  7  8 -1 -1</clus>
<clus scale="   86.032">  2  5  1 -1</clus>
</clustering>
</event>
<event>
 9    2  0.2869112E-005  0.1067922E+03  0.7546771E-02  0.1271463E+00
         -1   -1    0    0    0  501 -0.00000000000E+00  0.00000000000E+00  0.13620943634E+03  0.13620943634E+03  0.00000000000E+00 0.  1.
          2   -1    0    0  502    0  0.00000000000E+00 -0.00000000000E+00 -0.15379967087E+03  0.15379967087E+03  0.00000000000E+00 0. -1.
         23    2    1    2    0    0  0.43924999506E+02  0.36335988356E+02  0.82645849853E+02  0.13554967801E+03  0.91069583717E+02 0.  0.
         24    2    1    2    0    0 -0.26523350802E+02 -0.46308211140E+02 -0.91654785933E+02  0.13264426732E+03  0.79661554795E+02 0.  0.
        -13    1    4    4    0    0 -0.32437887323E+02 -0.26075886499E+02 -0.32330683112E+01  0.41744713694E+02  0.00000000000E+00 0.  1.
         14    1    4    4    0    0  0.59145365215E+01 -0.20232324641E+02 -0.88421717621E+02  0.90899553628E+02  0.00000000000E+00 0. -1.
        -13    1    3    3    0    0  0.72447813081E+02  0.24100608362E+02  0.60662819308E+02  0.97516678522E+02  0.00000000000E+00 0.  1.
         13    1    3    3    0    0 -0.28522813575E+02  0.12235379994E+02  0.21983030545E+02  0.38032999484E+02  0.00000000000E+00 0. -1.
         21    1    1    2  502  501 -0.17401648704E+02  0.99722227840E+01 -0.85812984429E+01  0.21815161880E+02  0.00000000000E+00 0. -1.
<scales pt_clust_5="13000.00000" pt_clust_6="13000.00000" pt_clust_7="13000.00000" pt_clust_8="13000.00000" pt_clust_9="20.05649"></scales>
<clustering>
<clus scale="   20.056">  2  9  1 -1</clus>
<clus scale="   79.662">  5  6 -1 -1</clus>
<clus scale="   91.070">  7  8 -1 -1</clus>
<clus scale="   97.246">  2  5  1 -1</clus>
<clus scale="   20.056">  2  5  1 -1</clus>
</clustering>
</event>
<event>
 9    2  0.2869112E-005  0.9733955E+02  0.7546771E-02  0.1291475E+00
         -1   -1    0    0    0  501 -0.00000000000E+00  0.00000000000E+00  0.93131752669E+02  0.93131752669E+02  0.00000000000E+00 0.  1.
          2   -1    0    0  502    0  0.00000000000E+00 -0.00000000000E+00 -0.50710229380E+03  0.50710229380E+03  0.00000000000E+00 0. -1.
         23    2    1    2    0    0  0.78729237125E+01  0.95095403819E+01 -0.12240403307E+02  0.93261996224E+02  0.91627278583E+02 0.  0.
         24    2    1    2    0    0 -0.12091155327E+02 -0.32987942585E+02 -0.44704628032E+03  0.45576090283E+03  0.81444603316E+02 0.  0.
        -13    1    4    4    0    0 -0.12379492705E+02 -0.35803517088E+02 -0.78091942257E+02  0.86795709116E+02  0.00000000000E+00 0.  1.
         14    1    4    4    0    0  0.28833737785E+00  0.28155745031E+01 -0.36895433807E+03  0.36896519372E+03  0.00000000000E+00 0. -1.
        -13    1    3    3    0    0  0.36813449781E+01  0.29871834599E+02  0.32275192569E+02  0.44131245830E+02  0.00000000000E+00 0.  1.
         13    1    3    3    0    0  0.41915787344E+01 -0.20362294217E+02 -0.44515595876E+02  0.49130750394E+02  0.00000000000E+00 0. -1.
         21    1    1    2  502  501  0.42182316143E+01  0.23478402203E+02  0.45316142500E+02  0.51211147410E+02  0.00000000000E+00 0. -1.
<scales pt_clust_5="13000.00000" pt_clust_6="13000.00000" pt_clust_7="13000.00000" pt_clust_8="13000.00000" pt_clust_9="23.85433"></scales>
<clustering>
<clus scale="   23.854">  1  9  2 -1</clus>
<clus scale="   81.445">  5  6 -1 -1</clus>
<clus scale="   87.822">  2  5  1 -1</clus>
<clus scale="   91.627">  7  8 -1 -1</clus>
<clus scale="   87.822">  2  5  1 -1</clus>
</clustering>
</event>
<event>
 9    2  0.2869112E-005  0.1158571E+03  0.7546771E-02  0.1250761E+00
          4   -1    0    0  502    0  0.00000000000E+00  0.00000000000E+00  0.32723997990E+03  0.32723997990E+03  0.00000000000E+00 0. -1.
         -3   -1    0    0    0  501 -0.00000000000E+00 -0.00000000000E+00 -0.87039900531E+02  0.87039900531E+02  0.00000000000E+00 0.  1.
         23    2    1    2    0    0  0.18348852088E+02  0.33432149005E+02  0.14850652325E+02  0.99859606687E+02  0.91087925727E+02 0.  0.
         24    2    1    2    0    0 -0.45026178385E+02 -0.69960459558E+02  0.23803461852E+03  0.26744249929E+03  0.89124565488E+02 0.  0.
        -11    1    4    4    0    0  0.12974813217E+02 -0.26528512032E+02  0.15385003388E+02  0.33298739584E+02  0.00000000000E+00 0.  1.
         12    1    4    4    0    0 -0.58000991603E+02 -0.43431947526E+02  0.22264961513E+03  0.23414375971E+03  0.00000000000E+00 0. -1.
        -13    1    3    3    0    0 -0.34085690373E+01  0.56574952425E+02 -0.12388064552E+02  0.58015581770E+02  0.00000000000E+00 0.  1.
         13    1    3    3    0    0  0.21757421125E+02 -0.23142803420E+02  0.27238716877E+02  0.41844024917E+02  0.00000000000E+00 0. -1.
         21    1    1    2  502  501  0.26677326297E+02  0.36528310553E+02 -0.12685191470E+02  0.46977774456E+02  0.00000000000E+00 0.  1.
<scales pt_clust_5="13000.00000" pt_clust_6="13000.00000" pt_clust_7="13000.00000" pt_clust_8="13000.00000" pt_clust_9="45.23270"></scales>
<clustering>
<clus scale="   45.233">  2  9  1 -1</clus>
<clus scale="   89.125">  5  6 -1 -1</clus>
<clus scale="   91.088">  7  8 -1 -1</clus>
<clus scale="  114.320">  1  5  2 -1</clus>
<clus scale="  114.320">  1  5  2 -1</clus>
</clustering>
</event>
<event>
 9    2  0.2869112E-005  0.1060016E+03  0.7546771E-02  0.1273702E+00
         -1   -1    0    0    0  501 -0.00000000000E+00  0.00000000000E+00  0.29723393739E+03  0.29723393739E+03  0.00000000000E+00 0.  1.
          2   -1    0    0  502    0  0.00000000000E+00 -0.00000000000E+00 -0.38472324406E+03  0.38472324406E+03  0.00000000000E+00 0. -1.
         23    2    1    2    0    0  0.10796373410E+02  0.23524218680E+02  0.13807562554E+03  0.16817767179E+03  0.92460263774E+02 0.  0.
         24    2    1    2    0    0  0.27910209083E+02  0.47599792747E+02 -0.35116391210E+03  0.36434079889E+03  0.79896211002E+02 0.  0.
        -11    1    4    4    0    0 -0.63523585778E+01  0.59244236634E+02 -0.18817595434E+03  0.19738394521E+03  0.00000000000E+00 0.  1.
         12    1    4    4    0    0  0.34262567661E+02 -0.11644443888E+02 -0.16298795776E+03  0.16695685368E+03  0.00000000000E+00 0. -1.
        -11    1    3    3    0    0 -0.46583951957E+01  0.46123889671E+02  0.26724291470E+02  0.53509827123E+02  0.00000000000E+00 0. -1.
         11    1    3    3    0    0  0.15454768605E+02 -0.22599670991E+02  0.11135133407E+03  0.11466784466E+03  0.00000000000E+00 0.  1.
         21    1    1    2  502  501 -0.38706582493E+02 -0.71124011427E+02  0.12559897989E+03  0.14943871078E+03  0.00000000000E+00 0. -1.
<scales pt_clust_5="13000.00000" pt_clust_6="13000.00000" pt_clust_7="13000.00000" pt_clust_8="13000.00000" pt_clust_9="80.97422"></scales>
<clustering>
<clus scale="   79.896">  5  6 -1 -1</clus>
<clus scale="   80.974">  1  9  2 -1</clus>
<clus scale="   92.460">  7  8 -1 -1</clus>
<clus scale="   95.241">  2  5  1 -1</clus>
<clus scale="   95.241">  2  5  1 -1</clus>
</clustering>
</event>
<event>
 9    2  0.2869112E-005  0.1064710E+03  0.7546771E-02  0.1271961E+00
          4   -1    0    0  502    0  0.00000000000E+00  0.00000000000E+00  0.22068047211E+03  0.22068047211E+03  0.00000000000E+00 0. -1.
         -3   -1    0    0    0  501 -0.00000000000E+00 -0.00000000000E+00 -0.32614100096E+03  0.32614100096E+03  0.00000000000E+00 0.  1.
         23    2    1    2    0    0 -0.24320973071E+02 -0.24579244617E+02 -0.27933254643E+03  0.29585869911E+03  0.91159472056E+02 0.  0.
         24    2    1    2    0    0  0.54750793027E+02  0.12095305297E+02  0.19047883946E+03  0.21411702500E+03  0.80124692625E+02 0.  0.
        -11    1    4    4    0    0 -0.20680078357E+02  0.39051306418E+01  0.54157218744E+02  0.58102667996E+02  0.00000000000E+00 0.  1.
         12    1    4    4    0    0  0.75430871384E+02  0.81901746554E+01  0.13632162071E+03  0.15601435701E+03  0.00000000000E+00 0. -1.
        -13    1    3    3    0    0 -0.15626547028E+02  0.31777891294E+02 -0.15618611700E+03  0.16015032466E+03  0.00000000000E+00 0.  1.
         13    1    3    3    0    0 -0.86944260427E+01 -0.56357135911E+02 -0.12314642943E+03  0.13570837444E+03  0.00000000000E+00 0. -1.
         21    1    1    2  502  501 -0.30429819956E+02  0.12483939320E+02 -0.16606821874E+02  0.36845748958E+02  0.00000000000E+00 0. -1.
<scales pt_clust_5="13000.00000" pt_clust_6="13000.00000" pt_clust_7="13000.00000" pt_clust_8="13000.00000" pt_clust_9="32.89107"></scales>
<clustering>
<clus scale="   32.891">  2  9  1 -1</clus>
<clus scale="   80.125">  5  6 -1 -1</clus>
<clus scale="   91.159">  7  8 -1 -1</clus>
<clus scale="   97.190">  1  5  2 -1</clus>
<clus scale="   97.190">  1  5  2 -1</clus>
</clustering>
</event>
<event>
 9    2  0.2869112E-005  0.1044707E+03  0.7546771E-02  0.1275385E+00
         -1   -1    0    0    0  501 -0.00000000000E+00  0.00000000000E+00  0.71433509223E+02  0.71433509223E+02  0.00000000000E+00 0.  1.
          2   -1    0    0  502    0  0.00000000000E+00 -0.00000000000E+00 -0.27896448656E+03  0.27896448656E+03  0.00000000000E+00 0. -1.
         23    2    1    2    0    0 -0.22599244605E+02  0.70802228652E+02 -0.24803673473E+02  0.11937242419E+03  0.90060379744E+02 0.  0.
         24    2    1    2    0    0  0.49595933096E+01 -0.47748289696E+02 -0.17862326451E+03  0.20170860487E+03  0.80471075057E+02 0.  0.
        -11    1    4    4    0    0  0.25382261569E+02 -0.51349279972E+02 -0.66876110724E+02  0.88053517485E+02  0.00000000000E+00 0.  1.
         12    1    4    4    0    0 -0.20422668260E+02  0.36009902761E+01 -0.11174715378E+03  0.11365508738E+03  0.00000000000E+00 0. -1.
        -11    1    3    3    0    0 -0.55609704589E+02  0.43116582302E+02 -0.28951247252E+02  0.76089773500E+02  0.00000000000E+00 0. -1.
         11    1    3    3    0    0  0.33010459984E+02  0.27685646351E+02  0.41475737784E+01  0.43282650687E+02  0.00000000000E+00 0.  1.
         21    1    1    2  502  501  0.17639651295E+02 -0.23053938957E+02 -0.41040393622E+01  0.29316966731E+02  0.00000000000E+00 0.  1.
<scales pt_clust_5="13000.00000" pt_clust_6="13000.00000" pt_clust_7="13000.00000" pt_clust_8="13000.00000" pt_clust_9="29.02829"></scales>
<clustering>
<clus scale="   29.028">  1  9  2 -1</clus>
<clus scale="   80.471">  5  6 -1 -1</clus>
<clus scale="   90.060">  7  8 -1 -1</clus>
<clus scale="   96.327">  2  5  1 -1</clus>
<clus scale="   96.327">  2  5  1 -1</clus>
</clustering>
</event>
<event>
 9    2  0.2869112E-005  0.1168605E+03  0.7546771E-02  0.1251799E+00
          2   -1    0    0  502    0  0.00000000000E+00  0.00000000000E+00  0.26564754233E+03  0.26564754233E+03  0.00000000000E+00 0. -1.
         -1   -1    0    0    0  501 -0.00000000000E+00 -0.00000000000E+00 -0.81659723604E+02  0.81659723604E+02  0.00000000000E+00 0.  1.
         23    2    1    2    0    0  0.46418460517E+02 -0.37185638927E+02  0.62390554529E+02  0.12529350796E+03  0.90930944250E+02 0.  0.
         24    2    1    2    0    0 -0.50593759535E+02  0.66060622378E+02  0.14425466995E+03  0.18507386320E+03  0.80741505461E+02 0.  0.
        -11    1    4    4    0    0 -0.18047191164E+02  0.76387457167E+02  0.11920368116E+03  0.14272442792E+03  0.00000000000E+00 0.  1.
         12    1    4    4    0    0 -0.32546568370E+02 -0.10326834789E+02  0.25050988784E+02  0.42349435280E+02  0.00000000000E+00 0. -1.
        -11    1    3    3    0    0  0.67865015665E+01  0.23057653804E+02 -0.71886893351E+01  0.25087631551E+02  0.00000000000E+00 0.  1.
         11    1    3    3    0    0  0.39631958950E+02 -0.60243292731E+02  0.69579243864E+02  0.10020587641E+03  0.00000000000E+00 0. -1.
         21    1    1    2  502  501  0.41752990180E+01 -0.28874983450E+02 -0.22657405751E+02  0.36939894782E+02  0.00000000000E+00 0. -1.
<scales pt_clust_5="13000.00000" pt_clust_6="13000.00000" pt_clust_7="13000.00000" pt_clust_8="13000.00000" pt_clust_9="29.17529"></scales>
<clustering>
<clus scale="   29.175">  2  9  1 -1</clus>
<clus scale="   80.742">  5  6 -1 -1</clus>
<clus scale="   90.931">  7  8 -1 -1</clus>
<clus scale="  109.120">  1  5  2 -1</clus>
<clus scale="  109.120">  1  5  2 -1</clus>
</clustering>
</event>
<event>
 9    2  0.2869112E-005  0.9411623E+02  0.7546771E-02  0.1300787E+00
         -1   -1    0    0    0  501 -0.00000000000E+00  0.00000000000E+00  0.15524898875E+03  0.15524898875E+03  0.00000000000E+00 0.  1.
          2   -1    0    0  502    0  0.00000000000E+00 -0.00000000000E+00 -0.86002811149E+02  0.86002811149E+02  0.00000000000E+00 0. -1.
         24    2    1    2    0    0  0.13854112506E+02  0.14952531651E+02  0.63637404088E+02  0.10333059161E+03  0.78816098150E+02 0.  0.
         23    2    1    2    0    0  0.58803265918E+01 -0.24583118973E+02 -0.26852838668E+02  0.98729977584E+02  0.91583980859E+02 0.  0.
        -11    1    3    3    0    0 -0.30332036241E+02  0.17277568649E+02  0.40264190994E+02  0.53289322358E+02  0.00000000000E+00 0.  1.
         12    1    3    3    0    0  0.44186148747E+02 -0.23250369986E+01  0.23373213094E+02  0.50041269253E+02  0.00000000000E+00 0. -1.
        -13    1    4    4    0    0 -0.31607362741E+02  0.15373970766E+02 -0.26366383505E+02  0.43938258223E+02  0.00000000000E+00 0.  1.
         13    1    4    4    0    0  0.37487689332E+02 -0.39957089738E+02 -0.48645516280E+00  0.54791719360E+02  0.00000000000E+00 0. -1.
         21    1    1    2  502  501 -0.19734439098E+02  0.96305873218E+01  0.32461612186E+02  0.39191230708E+02  0.00000000000E+00 0. -1.
<scales pt_clust_5="13000.00000" pt_clust_6="13000.00000" pt_clust_7="13000.00000" pt_clust_8="13000.00000" pt_clust_9="21.95897"></scales>
<clustering>
<clus scale="   21.959">  1  9  2 -1</clus>
<clus scale="   78.816">  5  6 -1 -1</clus>
<clus scale="   81.745">  1  5  2 -1</clus>
<clus scale="   91.584">  7  8 -1 -1</clus>
<clus scale="   94.116">  2  5  1 -1</clus>
</clustering>
</event>
<event>
 9    2  0.2869112E-005  0.1165317E+03  0.7546771E-02  0.1252724E+00
         -1   -1    0    0    0  501 -0.00000000000E+00  0.00000000000E+00  0.19702925295E+03  0.19702925295E+03  0.00000000000E+00 0.  1.
          2   -1    0    0  502    0  0.00000000000E+00 -0.00000000000E+00 -0.38303380804E+03  0.38303380804E+03  0.00000000000E+00 0. -1.
         23    2    1    2    0    0  0.13344165707E+02 -0.48406761351E+02  0.13644146910E+03  0.17155468030E+03  0.91068394845E+02 0.  0.
         24    2    1    2    0    0 -0.74963452411E+02  0.11271853404E+02 -0.31787645539E+03  0.33641941592E+03  0.79912506137E+02 0.  0.
        -11    1    4    4    0    0 -0.18346275574E+02 -0.10277965869E+02 -0.11217213633E+02  0.23833763688E+02  0.00000000000E+00 0.  1.
         12    1    4    4    0    0 -0.56617176837E+02  0.21549819273E+02 -0.30665924176E+03  0.31258565223E+03  0.00000000000E+00 0. -1.
        -13    1    3    3    0    0  0.32271385372E+02 -0.26347763775E+02  0.13626146021E+03  0.14248800829E+03  0.00000000000E+00 0.  1.
         13    1    3    3    0    0 -0.18927219665E+02 -0.22058997576E+02  0.18000889317E+00  0.29066672006E+02  0.00000000000E+00 0. -1.
         21    1    1    2  502  501  0.61619286704E+02  0.37134907947E+02 -0.45695687957E+01  0.72088964767E+02  0.00000000000E+00 0. -1.
<scales pt_clust_5="13000.00000" pt_clust_6="13000.00000" pt_clust_7="13000.00000" pt_clust_8="13000.00000" pt_clust_9="71.94399"></scales>
<clustering>
<clus scale="   71.944">  1  9  2 -1</clus>
<clus scale="   79.913">  5  6 -1 -1</clus>
<clus scale="   91.068">  7  8 -1 -1</clus>
<clus scale="  108.038">  2  5  1 -1</clus>
<clus scale="  108.038">  2  5  1 -1</clus>
</clustering>
</event>
<event>
 9    2  0.2869112E-005  0.9264839E+02  0.7546771E-02  0.1306559E+00
          2   -1    0    0  502    0  0.00000000000E+00  0.00000000000E+00  0.54384749158E+02  0.54384749158E+02  0.00000000000E+00 0. -1.
         -1   -1    0    0    0  501 -0.00000000000E+00 -0.00000000000E+00 -0.25168529135E+03  0.25168529135E+03  0.00000000000E+00 0.  1.
         23    2    1    2    0    0  0.14306140307E+02  0.11291891635E+02 -0.10900969057E+03  0.14372588406E+03  0.91879511561E+02 0.  0.
         24    2    1    2    0    0  0.11338858824E+02 -0.10761400307E+02 -0.81245539609E+01  0.78174193379E+02  0.76163105750E+02 0.  0.
        -13    1    4    4    0    0 -0.28699356756E+02 -0.14753066292E+02  0.10364428479E+02  0.33892881567E+02  0.00000000000E+00 0.  1.
         14    1    4    4    0    0  0.40038215580E+02  0.39916659851E+01 -0.18488982440E+02  0.44281311812E+02  0.00000000000E+00 0. -1.
        -11    1    3    3    0    0  0.27305795573E+02  0.35078714600E+02 -0.10778365453E+03  0.11659090390E+03  0.00000000000E+00 0. -1.
         11    1    3    3    0    0 -0.12999655266E+02 -0.23786822965E+02 -0.12260360393E+01  0.27134980158E+02  0.00000000000E+00 0.  1.
         21    1    1    2  502  501 -0.25644999131E+02 -0.53049132881E+00 -0.80166297664E+02  0.84169963066E+02  0.00000000000E+00 0.  1.
<scales pt_clust_5="13000.00000" pt_clust_6="13000.00000" pt_clust_7="13000.00000" pt_clust_8="13000.00000" pt_clust_9="25.65049"></scales>
<clustering>
<clus scale="   25.650">  2  9  1 -1</clus>
<clus scale="   76.163">  5  6 -1 -1</clus>
<clus scale="   77.089">  1  5  2 -1</clus>
<clus scale="   91.880">  7  8 -1 -1</clus>
<clus scale="   77.089">  1  5  2 -1</clus>
</clustering>
</event>
<event>
 9    2  0.2869112E-005  0.9117169E+02  0.7546771E-02  0.1307528E+00
         -1   -1    0    0    0  501 -0.00000000000E+00  0.00000000000E+00  0.88696750798E+02  0.88696750798E+02  0.00000000000E+00 0.  1.
          2   -1    0    0  502    0  0.00000000000E+00 -0.00000000000E+00 -0.19672447999E+03  0.19672447999E+03  0.00000000000E+00 0. -1.
         23    2    1    2    0    0 -0.19100473679E+02 -0.34669575131E+01 -0.35010458398E+02  0.99425351608E+02  0.91010001956E+02 0.  0.
         24    2    1    2    0    0 -0.14685839390E+02  0.20277101752E+01 -0.10965920588E+03  0.13613389175E+03  0.79293817926E+02 0.  0.
        -13    1    4    4    0    0  0.19561351946E+01  0.39419285083E+02 -0.48254385453E+02  0.62339331219E+02  0.00000000000E+00 0.  1.
         14    1    4    4    0    0 -0.16641974585E+02 -0.37391574908E+02 -0.61404820428E+02  0.73794560531E+02  0.00000000000E+00 0. -1.
        -13    1    3    3    0    0 -0.38822071926E+02 -0.27674144663E+02 -0.46072388540E+02  0.66299898471E+02  0.00000000000E+00 0. -1.
         13    1    3    3    0    0  0.19721598247E+02  0.24207187149E+02  0.11061930142E+02  0.33125453138E+02  0.00000000000E+00 0.  1.
         21    1    1    2  502  501  0.33786313069E+02  0.14392473379E+01  0.36641935086E+02  0.49861987431E+02  0.00000000000E+00 0.  1.
<scales pt_clust_5="13000.00000" pt_clust_6="13000.00000" pt_clust_7="13000.00000" pt_clust_8="13000.00000" pt_clust_9="33.81695"></scales>
<clustering>
<clus scale="   33.817">  1  9  2 -1</clus>
<clus scale="   79.294">  5  6 -1 -1</clus>
<clus scale="   79.479">  2  5  1 -1</clus>
<clus scale="   91.010">  7  8 -1 -1</clus>
<clus scale="   79.479">  2  5  1 -1</clus>
</clustering>
</event>
<event>
 9    2  0.2869112E-005  0.1101489E+03  0.7546771E-02  0.1265047E+00
          2   -1    0    0  502    0  0.00000000000E+00  0.00000000000E+00  0.51373660188E+03  0.51373660188E+03  0.00000000000E+00 0. -1.
         -1   -1    0    0    0  501 -0.00000000000E+00 -0.00000000000E+00 -0.56914244302E+02  0.56914244302E+02  0.00000000000E+00 0.  1.
         23    2    1    2    0    0 -0.12843476904E+02 -0.51554147765E+02  0.24365478487E+02  0.11058112266E+03  0.93870778710E+02 0.  0.
         24    2    1    2    0    0 -0.67298918914E+01  0.58269100553E+02  0.42685443964E+03  0.43863156398E+03  0.82172725105E+02 0.  0.
        -11    1    4    4    0    0 -0.35870934552E+02  0.76665926447E+01  0.98143555188E+02  0.10477431944E+03  0.00000000000E+00 0.  1.
         12    1    4    4    0    0  0.29141042661E+02  0.50602507909E+02  0.32871088445E+03  0.33385724454E+03  0.00000000000E+00 0. -1.
        -11    1    3    3    0    0 -0.46504361891E+02 -0.40673659877E+02  0.38153582397E+02  0.72613346792E+02  0.00000000000E+00 0.  1.
         11    1    3    3    0    0  0.33660884987E+02 -0.10880487888E+02 -0.13788103910E+02  0.37967775866E+02  0.00000000000E+00 0. -1.
         21    1    1    2  502  501  0.19573368796E+02 -0.67149527889E+01  0.56024394507E+01  0.21438159547E+02  0.00000000000E+00 0. -1.
<scales pt_clust_5="13000.00000" pt_clust_6="13000.00000" pt_clust_7="13000.00000" pt_clust_8="13000.00000" pt_clust_9="20.69317"></scales>
<clustering>
<clus scale="   20.693">  2  9  1 -1</clus>
<clus scale="   82.173">  5  6 -1 -1</clus>
<clus scale="   93.871">  7  8 -1 -1</clus>
<clus scale="  100.366">  1  5  2 -1</clus>
<clus scale="  100.366">  1  5  2 -1</clus>
</clustering>
</event>
<event>
 9    2  0.2869112E-005  0.3129509E+03  0.7546771E-02  0.1079280E+00
         -1   -1    0    0    0  501 -0.00000000000E+00  0.00000000000E+00  0.18185408272E+03  0.18185408272E+03  0.00000000000E+00 0.  1.
          2   -1    0    0  502    0  0.00000000000E+00 -0.00000000000E+00 -0.74307012850E+03  0.74307012850E+03  0.00000000000E+00 0. -1.
         24    2    1    2    0    0  0.69148275680E+02 -0.31810714494E+03 -0.12729495604E+03  0.35860379161E+03  0.80118873107E+02 0.  0.
         23    2    1    2    0    0 -0.79347079533E+02  0.27783294687E+03 -0.42810704585E+03  0.52437009497E+03  0.90560744236E+02 0.  0.
        -11    1    3    3    0    0  0.69316897445E+02 -0.13192805398E+03 -0.59393326014E+02  0.16042883430E+03  0.00000000000E+00 0.  1.
         12    1    3    3    0    0 -0.16862176462E+00 -0.18617909096E+03 -0.67901630028E+02  0.19817495731E+03  0.00000000000E+00 0. -1.
        -11    1    4    4    0    0 -0.29425312460E+02  0.22933997802E+03 -0.35289579291E+03  0.42189822847E+03  0.00000000000E+00 0. -1.
         11    1    4    4    0    0 -0.49921767074E+02  0.48492968854E+02 -0.75211252939E+02  0.10247186650E+03  0.00000000000E+00 0.  1.
         21    1    1    2  502  501  0.10198803853E+02  0.40274198070E+02 -0.58140438856E+01  0.41950324630E+02  0.00000000000E+00 0.  1.
<scales pt_clust_5="13000.00000" pt_clust_6="13000.00000" pt_clust_7="13000.00000" pt_clust_8="13000.00000" pt_clust_9="41.54548"></scales>
<clustering>
<clus scale="   41.545">  1  9  2 -1</clus>
<clus scale="   80.119">  5  6 -1 -1</clus>
<clus scale="   90.561">  7  8 -1 -1</clus>
<clus scale="  310.090">  1  5  2 -1</clus>
<clus scale="  312.951">  2  5  1 -1</clus>
</clustering>
</event>
<event>
 9    2  0.2869112E-005  0.8843794E+02  0.7546771E-02  0.1310442E+00
          2   -1    0    0  502    0  0.00000000000E+00  0.00000000000E+00  0.81669990410E+03  0.81669990410E+03  0.00000000000E+00 0. -1.
         -1   -1    0    0    0  501 -0.00000000000E+00 -0.00000000000E+00 -0.25413939949E+02  0.25413939949E+02  0.00000000000E+00 0.  1.
         23    2    1    2    0    0  0.16117522227E+01 -0.23568464013E+01  0.13044840013E+03  0.15602133119E+03  0.85543662636E+02 0.  0.
         24    2    1    2    0    0 -0.24745337529E+02 -0.10901366381E+02  0.65289587211E+03  0.65827141573E+03  0.79479968773E+02 0.  0.
        -11    1    4    4    0    0  0.27595063190E+02 -0.16107987993E+01  0.14582576246E+03  0.14842248881E+03  0.00000000000E+00 0.  1.
         12    1    4    4    0    0 -0.52340400719E+02 -0.92905675813E+01  0.50707010964E+03  0.50984892692E+03  0.00000000000E+00 0. -1.
        -13    1    3    3    0    0 -0.96167137145E+01 -0.19912302065E+02  0.13318049351E+03  0.13500379553E+03  0.00000000000E+00 0. -1.
         13    1    3    3    0    0  0.11228465937E+02  0.17555455664E+02 -0.27320933737E+01  0.21017535657E+02  0.00000000000E+00 0.  1.
         21    1    1    2  502  501  0.23133585306E+02  0.13258212782E+02  0.79416919098E+01  0.27821097133E+02  0.00000000000E+00 0.  1.
<scales pt_clust_5="13000.00000" pt_clust_6="13000.00000" pt_clust_7="13000.00000" pt_clust_8="13000.00000" pt_clust_9="26.66351"></scales>
<clustering>
<clus scale="   26.664">  2  9  1 -1</clus>
<clus scale="   79.480">  5  6 -1 -1</clus>
<clus scale="   82.587">  1  5  2 -1</clus>
<clus scale="   85.544">  7  8 -1 -1</clus>
<clus scale="   82.587">  1  5  2 -1</clus>
</clustering>
</event>
<event>
 9    2  0.2869112E-005  0.9979930E+02  0.7546771E-02  0.1286386E+00
         -1   -1    0    0    0  501 -0.00000000000E+00  0.00000000000E+00  0.67697339807E+02  0.67697339807E+02  0.00000000000E+00 0.  1.
          2   -1    0    0  502    0  0.00000000000E+00 -0.00000000000E+00 -0.48030909994E+03  0.48030909994E+03  0.00000000000E+00 0. -1.
         23    2    1    2    0    0 -0.60213864399E+02 -0.26124308780E+01  0.28980148123E+01  0.10761951749E+03  0.89112444667E+02 0.  0.
         24    2    1    2    0    0  0.39784987319E+02  0.18651826520E+02 -0.40067778667E+03  0.41047723975E+03  0.77576670289E+02 0.  0.
        -13    1    4    4    0    0  0.32586796973E+02 -0.25854925272E+02 -0.14474734929E+03  0.15060601457E+03  0.00000000000E+00 0.  1.
         14    1    4    4    0    0  0.71981903453E+01  0.44506751792E+02 -0.25593043738E+03  0.25987122518E+03  0.00000000000E+00 0. -1.
        -11    1    3    3    0    0 -0.82225709961E+02  0.89008180728E+01  0.33586785598E+01  0.82774227043E+02  0.00000000000E+00 0.  1.
         11    1    3    3    0    0  0.22011845562E+02 -0.11513248951E+02 -0.46066374747E+00  0.24845290449E+02  0.00000000000E+00 0. -1.
         21    1    1    2  502  501  0.20428877081E+02 -0.16039395642E+02 -0.14831988275E+02  0.29909682505E+02  0.00000000000E+00 0.  1.
<scales pt_clust_5="13000.00000" pt_clust_6="13000.00000" pt_clust_7="13000.00000" pt_clust_8="13000.00000" pt_clust_9="25.97309"></scales>
<clustering>
<clus scale="   25.973">  1  9  2 -1</clus>
<clus scale="   77.577">  5  6 -1 -1</clus>
<clus scale="   89.112">  7  8 -1 -1</clus>
<clus scale="   89.649">  2  5  1 -1</clus>
<clus scale="   89.649">  2  5  1 -1</clus>
</clustering>
</event>
<event>
 9    2  0.2869112E-005  0.9297744E+02  0.7546771E-02  0.1303237E+00
         -1   -1    0    0    0  501 -0.00000000000E+00  0.00000000000E+00  0.68214087775E+02  0.68214087775E+02  0.00000000000E+00 0.  1.
          2   -1    0    0  502    0  0.00000000000E+00 -0.00000000000E+00 -0.20573266540E+03  0.20573266540E+03  0.00000000000E+00 0. -1.
         23    2    1    2    0    0 -0.79379276495E+01 -0.80297505564E-01  0.79853871375E+01  0.93551540044E+02  0.92871454677E+02 0.  0.
         24    2    1    2    0    0 -0.10422091708E+02  0.10263636085E+02 -0.13169556403E+03  0.15526629302E+03  0.80931686878E+02 0.  0.
        -13    1    4    4    0    0  0.18841285232E+02 -0.17909023171E+02 -0.11560287018E+02  0.28449382701E+02  0.00000000000E+00 0.  1.
         14    1    4    4    0    0 -0.29263376940E+02  0.28172659256E+02 -0.12013527701E+03  0.12681691032E+03  0.00000000000E+00 0. -1.
        -13    1    3    3    0    0 -0.42019304198E+02 -0.25560879160E+02 -0.39910774207E+01  0.49344798791E+02  0.00000000000E+00 0.  1.
         13    1    3    3    0    0  0.34081376549E+02  0.25480581654E+02  0.11976464558E+02  0.44206741253E+02  0.00000000000E+00 0. -1.
         21    1    1    2  502  501  0.18360019358E+02 -0.10183338579E+02 -0.13808400737E+02  0.25128920119E+02  0.00000000000E+00 0. -1.
<scales pt_clust_5="13000.00000" pt_clust_6="13000.00000" pt_clust_7="13000.00000" pt_clust_8="13000.00000" pt_clust_9="20.99502"></scales>
<clustering>
<clus scale="   20.995">  2  9  1 -1</clus>
<clus scale="   80.932">  5  6 -1 -1</clus>
<clus scale="   81.053">  2  5  1 -1</clus>
<clus scale="   92.871">  7  8 -1 -1</clus>
<clus scale="   20.995">  2  5  1 -1</clus>
</clustering>
</event>
<event>
 9    2  0.2869112E-005  0.1064217E+03  0.7546771E-02  0.1274108E+00
         -1   -1    0    0    0  501 -0.00000000000E+00  0.00000000000E+00  0.10274131257E+03  0.10274131257E+03  0.00000000000E+00 0.  1.
          2   -1    0    0  502    0  0.00000000000E+00 -0.00000000000E+00 -0.24841469172E+03  0.24841469172E+03  0.00000000000E+00 0. -1.
         23    2    1    2    0    0 -0.46799738135E+02  0.18693275392E+01  0.77743351276E+01  0.10604284026E+03  0.94820534746E+02 0.  0.
         24    2    1    2    0    0  0.41462274604E+02  0.28342023147E+02 -0.18083651265E+03  0.20398701050E+03  0.79915365583E+02 0.  0.
        -11    1    4    4    0    0  0.51884994188E+02  0.26947338268E+02 -0.64024526677E+02  0.86702662461E+02  0.00000000000E+00 0.  1.
         12    1    4    4    0    0 -0.10422719584E+02  0.13946848796E+01 -0.11681198597E+03  0.11728434804E+03  0.00000000000E+00 0. -1.
        -13    1    3    3    0    0 -0.49951629645E+02  0.39101295580E+02 -0.10746464159E+02  0.64339436679E+02  0.00000000000E+00 0. -1.
         13    1    3    3    0    0  0.31518915101E+01 -0.37231968041E+02  0.18520799286E+02  0.41703403584E+02  0.00000000000E+00 0.  1.
         21    1    1    2  502  501  0.53374635306E+01 -0.30211350686E+02  0.27388798373E+02  0.41126153522E+02  0.00000000000E+00 0.  1.
<scales pt_clust_5="13000.00000" pt_clust_6="13000.00000" pt_clust_7="13000.00000" pt_clust_8="13000.00000" pt_clust_9="30.67921"></scales>
<clustering>
<clus scale="   30.679">  1  9  2 -1</clus>
<clus scale="   79.915">  5  6 -1 -1</clus>
<clus scale="   93.387">  2  5  1 -1</clus>
<clus scale="   94.821">  7  8 -1 -1</clus>
<clus scale="   93.387">  2  5  1 -1</clus>
</clustering>
</event>
<event>
 9    2  0.2869112E-005  0.1024721E+03  0.7546771E-02  0.1280641E+00
         -1   -1    0    0    0  501 -0.00000000000E+00  0.00000000000E+00  0.65866968750E+02  0.65866968750E+02  0.00000000000E+00 0.  1.
          2   -1    0    0  502    0  0.00000000000E+00 -0.00000000000E+00 -0.91127956042E+03  0.91127956042E+03  0.00000000000E+00 0. -1.
         23    2    1    2    0    0 -0.25821060205E+02  0.40090639015E+01 -0.13052661645E+01  0.94091797130E+02  0.90381208357E+02 0.  0.
         24    2    1    2    0    0  0.49154636364E+02 -0.57998126852E+01 -0.85297703171E+03  0.85802806135E+03  0.78692574831E+02 0.  0.
        -13    1    4    4    0    0  0.32411936400E+02 -0.55026837752E+01 -0.10870219237E+03  0.11356487034E+03  0.00000000000E+00 0.  1.
         14    1    4    4    0    0  0.16742699964E+02 -0.29712890998E+00 -0.74427483935E+03  0.74446319101E+03  0.00000000000E+00 0. -1.
        -13    1    3    3    0    0 -0.16713296926E+01  0.45201375521E+02  0.65382541758E+01  0.45702368205E+02  0.00000000000E+00 0. -1.
         13    1    3    3    0    0 -0.24149730512E+02 -0.41192311619E+02 -0.78435203403E+01  0.48389428925E+02  0.00000000000E+00 0.  1.
         21    1    1    2  502  501 -0.23333576159E+02  0.17907487837E+01  0.88697062068E+01  0.25026670689E+02  0.00000000000E+00 0.  1.
<scales pt_clust_5="13000.00000" pt_clust_6="13000.00000" pt_clust_7="13000.00000" pt_clust_8="13000.00000" pt_clust_9="23.40219"></scales>
<clustering>
<clus scale="   23.402">  1  9  2 -1</clus>
<clus scale="   78.693">  5  6 -1 -1</clus>
<clus scale="   90.381">  7  8 -1 -1</clus>
<clus scale="   92.327">  2  5  1 -1</clus>
<clus scale="   92.327">  2  5  1 -1</clus>
</clustering>
</event>
<event>
 9    2  0.2869112E-005  0.9920161E+02  0.7546771E-02  0.1286430E+00
         -1   -1    0    0    0  501 -0.00000000000E+00  0.00000000000E+00  0.70317786234E+02  0.70317786234E+02  0.00000000000E+00 0.  1.
          2   -1    0    0  502    0  0.00000000000E+00 -0.00000000000E+00 -0.28424477469E+03  0.28424477469E+03  0.00000000000E+00 0. -1.
         23    2    1    2    0    0 -0.19059979991E+02  0.14524929044E+02 -0.20224935319E+01  0.96148565127E+02  0.93092425551E+02 0.  0.
         24    2    1    2    0    0  0.37279253770E+02  0.67440499057E+00 -0.21545434728E+03  0.23442309870E+03  0.84518730795E+02 0.  0.
        -11    1    4    4    0    0 -0.13883228714E+02 -0.29272448648E+02 -0.62860469697E+02  0.70718165558E+02  0.00000000000E+00 0.  1.
         12    1    4    4    0    0  0.51162482484E+02  0.29946853639E+02 -0.15259387759E+03  0.16370493314E+03  0.00000000000E+00 0. -1.
        -11    1    3    3    0    0 -0.21941706763E+02 -0.58733427975E+01  0.41885507275E+02  0.47647983913E+02  0.00000000000E+00 0.  1.
         11    1    3    3    0    0  0.28817267715E+01  0.20398271841E+02 -0.43908000807E+02  0.48500581215E+02  0.00000000000E+00 0. -1.
         21    1    1    2  502  501 -0.18219273778E+02 -0.15199334034E+02  0.35498523568E+01  0.23990897104E+02  0.00000000000E+00 0. -1.
<scales pt_clust_5="13000.00000" pt_clust_6="13000.00000" pt_clust_7="13000.00000" pt_clust_8="13000.00000" pt_clust_9="23.72681"></scales>
<clustering>
<clus scale="   23.727">  1  9  2 -1</clus>
<clus scale="   84.519">  5  6 -1 -1</clus>
<clus scale="   91.204">  2  5  1 -1</clus>
<clus scale="   93.092">  7  8 -1 -1</clus>
<clus scale="   91.204">  2  5  1 -1</clus>
</clustering>
</event>
<event>
 9    2  0.2869112E-005  0.1788425E+03  0.7546771E-02  0.1170439E+00
         -1   -1    0    0    0  501 -0.00000000000E+00  0.00000000000E+00  0.17803566179E+03  0.17803566179E+03  0.00000000000E+00 0.  1.
          2   -1    0    0  502    0  0.00000000000E+00 -0.00000000000E+00 -0.10520574618E+04  0.10520574618E+04  0.00000000000E+00 0. -1.
         23    2    1    2    0    0  0.13032111256E+03  0.96051495800E+02  0.79489295369E+02  0.20202652155E+03  0.91031231481E+02 0.  0.
         24    2    1    2    0    0 -0.14397851733E+03 -0.54145893885E+02 -0.96674955803E+03  0.98204637753E+03  0.78414210340E+02 0.  0.
        -11    1    4    4    0    0 -0.52137907701E+02  0.84936467987E+01 -0.18368106569E+03  0.19112623406E+03  0.00000000000E+00 0.  1.
         12    1    4    4    0    0 -0.91840609629E+02 -0.62639540684E+02 -0.78306849234E+03  0.79092014346E+03  0.00000000000E+00 0. -1.
        -11    1    3    3    0    0  0.76943637931E+02  0.95953679396E+02  0.83245720991E+02  0.14851694203E+03  0.00000000000E+00 0.  1.
         11    1    3    3    0    0  0.53377474634E+02  0.97816403504E-01 -0.37564256216E+01  0.53509579514E+02  0.00000000000E+00 0. -1.
         21    1    1    2  502  501  0.13657404766E+02 -0.41905601915E+02  0.13238462602E+02  0.46020224563E+02  0.00000000000E+00 0.  1.
<scales pt_clust_5="13000.00000" pt_clust_6="13000.00000" pt_clust_7="13000.00000" pt_clust_8="13000.00000" pt_clust_9="44.07498"></scales>
<clustering>
<clus scale="   44.075">  1  9  2 -1</clus>
<clus scale="   78.414">  5  6 -1 -1</clus>
<clus scale="   91.031">  7  8 -1 -1</clus>
<clus scale="  172.762">  2  5  1 -1</clus>
<clus scale="  172.762">  2  5  1 -1</clus>
</clustering>
</event>
<event>
 9    2  0.2869112E-005  0.9555586E+02  0.7546771E-02  0.1290038E+00
         -1   -1    0    0    0  501 -0.00000000000E+00  0.00000000000E+00  0.24158655058E+02  0.24158655058E+02  0.00000000000E+00 0.  1.
          2   -1    0    0  502    0  0.00000000000E+00 -0.00000000000E+00 -0.97362377751E+03  0.97362377751E+03  0.00000000000E+00 0. -1.
         23    2    1    2    0    0  0.32463106941E+02  0.91351727600E+00 -0.10170983917E+03  0.13585333477E+03  0.84003269927E+02 0.  0.
         24    2    1    2    0    0 -0.42226604824E+02  0.23771484283E+02 -0.81007915814E+03  0.81584042676E+03  0.83780605459E+02 0.  0.
        -11    1    4    4    0    0 -0.22101804723E+02  0.25414465390E+02 -0.10088095383E+03  0.10635483849E+03  0.00000000000E+00 0.  1.
         12    1    4    4    0    0 -0.20124800101E+02 -0.16429811069E+01 -0.70919820431E+03  0.70948558827E+03  0.00000000000E+00 0. -1.
        -13    1    3    3    0    0  0.15295412948E+02  0.24345999695E+02 -0.10283930831E+03  0.10678296068E+03  0.00000000000E+00 0. -1.
         13    1    3    3    0    0  0.17167693993E+02 -0.23432482419E+02  0.11294691368E+01  0.29070374092E+02  0.00000000000E+00 0.  1.
         21    1    1    2  502  501  0.97634978828E+01 -0.24685001559E+02 -0.37676125144E+02  0.46088671045E+02  0.00000000000E+00 0.  1.
<scales pt_clust_5="13000.00000" pt_clust_6="13000.00000" pt_clust_7="13000.00000" pt_clust_8="13000.00000" pt_clust_9="26.54572"></scales>
<clustering>
<clus scale="   26.546">  1  9  2 -1</clus>
<clus scale="   83.781">  5  6 -1 -1</clus>
<clus scale="   84.003">  7  8 -1 -1</clus>
<clus scale="   95.360">  2  5  1 -1</clus>
<clus scale="   95.360">  2  5  1 -1</clus>
</clustering>
</event>
<event>
 9    2  0.2869112E-005  0.9368154E+02  0.7546771E-02  0.1299738E+00
         -1   -1    0    0    0  501 -0.00000000000E+00  0.00000000000E+00  0.37351609081E+02  0.37351609081E+02  0.00000000000E+00 0.  1.
          2   -1    0    0  502    0  0.00000000000E+00 -0.00000000000E+00 -0.47064030733E+03  0.47064030733E+03  0.00000000000E+00 0. -1.
         23    2    1    2    0    0  0.22746653947E+02 -0.12462665018E+02 -0.11435164061E+03  0.14752157510E+03  0.89518652386E+02 0.  0.
         24    2    1    2    0    0  0.80380130640E+01  0.33053300748E+02 -0.31060634168E+03  0.32250890257E+03  0.79865902642E+02 0.  0.
        -11    1    4    4    0    0  0.38704865201E+02 -0.34865463104E+01 -0.12752570123E+03  0.13331551699E+03  0.00000000000E+00 0.  1.
         12    1    4    4    0    0 -0.30666852137E+02  0.36539847058E+02 -0.18308064045E+03  0.18919338559E+03  0.00000000000E+00 0. -1.
        -13    1    3    3    0    0  0.51789985160E+02  0.72456220060E+01 -0.41877940712E+02  0.66995996294E+02  0.00000000000E+00 0.  1.
         13    1    3    3    0    0 -0.29043331213E+02 -0.19708287024E+02 -0.72473699898E+02  0.80525578807E+02  0.00000000000E+00 0. -1.
         21    1    1    2  502  501 -0.30784667011E+02 -0.20590635730E+02 -0.83307159650E+01  0.37961438740E+02  0.00000000000E+00 0. -1.
<scales pt_clust_5="13000.00000" pt_clust_6="13000.00000" pt_clust_7="13000.00000" pt_clust_8="13000.00000" pt_clust_9="37.03606"></scales>
<clustering>
<clus scale="   37.036">  1  9  2 -1</clus>
<clus scale="   79.866">  5  6 -1 -1</clus>
<clus scale="   84.506">  2  5  1 -1</clus>
<clus scale="   89.519">  7  8 -1 -1</clus>
<clus scale="   84.506">  2  5  1 -1</clus>
</clustering>
</event>
<event>
 9    2  0.2869112E-005  0.1225390E+03  0.7546771E-02  0.1238996E+00
         -1   -1    0    0    0  501 -0.00000000000E+00  0.00000000000E+00  0.43290576515E+02  0.43290576515E+02  0.00000000000E+00 0.  1.
          2   -1    0    0  502    0  0.00000000000E+00 -0.00000000000E+00 -0.57988160584E+03  0.57988160584E+03  0.00000000000E+00 0. -1.
         23    2    1    2    0    0 -0.32922968202E+02 -0.61241917142E+02 -0.10644247658E+03  0.15597677707E+03  0.90356294275E+02 0.  0.
         24    2    1    2    0    0  0.29005751354E+02  0.82962028984E+02 -0.42663694946E+03  0.44484726881E+03  0.90255050029E+02 0.  0.
        -13    1    4    4    0    0  0.61581962211E+01  0.66071291865E+02 -0.12192077620E+03  0.13880927439E+03  0.00000000000E+00 0.  1.
         14    1    4    4    0    0  0.22847555132E+02  0.16890737119E+02 -0.30471617327E+03  0.30603799442E+03  0.00000000000E+00 0. -1.
        -11    1    3    3    0    0  0.24958002015E+02 -0.17839698223E+02 -0.66738322679E+02  0.73451755672E+02  0.00000000000E+00 0. -1.
         11    1    3    3    0    0 -0.57880970217E+02 -0.43402218918E+02 -0.39704153903E+02  0.82525021402E+02  0.00000000000E+00 0.  1.
         21    1    1    2  502  501  0.39172168483E+01 -0.21720111842E+02 -0.35116032852E+01  0.22348136475E+02  0.00000000000E+00 0.  1.
<scales pt_clust_5="13000.00000" pt_clust_6="13000.00000" pt_clust_7="13000.00000" pt_clust_8="13000.00000" pt_clust_9="22.07052"></scales>
<clustering>
<clus scale="   22.071">  1  9  2 -1</clus>
<clus scale="   90.255">  5  6 -1 -1</clus>
<clus scale="   90.356">  7  8 -1 -1</clus>
<clus scale="  122.464">  2  5  1 -1</clus>
<clus scale="  122.464">  2  5  1 -1</clus>
</clustering>
</event>
<event>
 9    2  0.2869112E-005  0.1031306E+03  0.7546771E-02  0.1285659E+00
          2   -1    0    0  502    0  0.00000000000E+00  0.00000000000E+00  0.27849168480E+03  0.27849168480E+03  0.00000000000E+00 0. -1.
         -1   -1    0    0    0  501 -0.00000000000E+00 -0.00000000000E+00 -0.96194469928E+02  0.96194469928E+02  0.00000000000E+00 0.  1.
         24    2    1    2    0    0 -0.23532796406E+02 -0.12542528175E+02  0.38504101863E+02  0.93918026134E+02  0.81405910430E+02 0.  0.
         23    2    1    2    0    0  0.57273084205E+01  0.22542866995E+01  0.19789525988E+03  0.22288958670E+03  0.10236869692E+03 0.  0.
        -13    1    3    3    0    0  0.11771909391E+02 -0.38195009246E+02  0.28658991024E+02  0.49181036473E+02  0.00000000000E+00 0.  1.
         14    1    3    3    0    0 -0.35304705797E+02  0.25652481071E+02  0.98451108393E+01  0.44736989661E+02  0.00000000000E+00 0. -1.
        -11    1    4    4    0    0 -0.14714724217E+02 -0.42333496999E+02  0.50363862011E+02  0.67417851298E+02  0.00000000000E+00 0. -1.
         11    1    4    4    0    0  0.20442032638E+02  0.44587783699E+02  0.14753139786E+03  0.15547173540E+03  0.00000000000E+00 0.  1.
         21    1    1    2  502  501  0.17805487985E+02  0.10288241476E+02 -0.54102146872E+02  0.57878541889E+02  0.00000000000E+00 0.  1.
<scales pt_clust_5="13000.00000" pt_clust_6="13000.00000" pt_clust_7="13000.00000" pt_clust_8="13000.00000" pt_clust_9="20.56413"></scales>
<clustering>
<clus scale="   20.564">  2  9  1 -1</clus>
<clus scale="   81.406">  5  6 -1 -1</clus>
<clus scale="   82.362">  2  5  1 -1</clus>
<clus scale="  102.369">  7  8 -1 -1</clus>
<clus scale="  103.131">  1  5  2 -1</clus>
</clustering>
</event>
<event>
 9    2  0.2869112E-005  0.9260989E+02  0.7546771E-02  0.1305305E+00
          2   -1    0    0  502    0  0.00000000000E+00  0.00000000000E+00  0.11537063702E+03  0.11537063702E+03  0.00000000000E+00 0. -1.
         -1   -1    0    0    0  501 -0.00000000000E+00 -0.00000000000E+00 -0.90187894951E+02  0.90187894951E+02  0.00000000000E+00 0.  1.
         23    2    1    2    0    0 -0.11479057696E+02 -0.12666904723E+02 -0.96231279035E+01  0.94392887892E+02  0.92331974164E+02 0.  0.
         24    2    1    2    0    0 -0.10373639217E+02  0.33614749409E+01  0.36430878202E+02  0.87358669526E+02  0.78647417951E+02 0.  0.
        -11    1    4    4    0    0  0.34420925347E+02 -0.19128521467E+00  0.17231246676E+02  0.38493539117E+02  0.00000000000E+00 0.  1.
         12    1    4    4    0    0 -0.44794564563E+02  0.35527601556E+01  0.19199631526E+02  0.48865130409E+02  0.00000000000E+00 0. -1.
        -13    1    3    3    0    0  0.24586804560E+02  0.20953853055E+02  0.18903794519E+02  0.37428977591E+02  0.00000000000E+00 0. -1.
         13    1    3    3    0    0 -0.36065862256E+02 -0.33620757778E+02 -0.28526922422E+02  0.56963910301E+02  0.00000000000E+00 0.  1.
         21    1    1    2  502  501  0.21852696913E+02  0.93054297823E+01 -0.16250082252E+01  0.23806974556E+02  0.00000000000E+00 0. -1.
<scales pt_clust_5="13000.00000" pt_clust_6="13000.00000" pt_clust_7="13000.00000" pt_clust_8="13000.00000" pt_clust_9="23.75145"></scales>
<clustering>
<clus scale="   23.751">  2  9  1 -1</clus>
<clus scale="   78.647">  5  6 -1 -1</clus>
<clus scale="   78.974">  1  5  2 -1</clus>
<clus scale="   92.332">  7  8 -1 -1</clus>
<clus scale="   78.974">  1  5  2 -1</clus>
</clustering>
</event>
<event>
 9    2  0.2869112E-005  0.9798772E+02  0.7546771E-02  0.1303404E+00
         -1   -1    0    0    0  501 -0.00000000000E+00  0.00000000000E+00  0.32128317768E+03  0.32128317768E+03  0.00000000000E+00 0.  1.
          2   -1    0    0  502    0  0.00000000000E+00 -0.00000000000E+00 -0.66228006409E+02  0.66228006409E+02  0.00000000000E+00 0. -1.
         23    2    1    2    0    0  0.17808162345E+02 -0.20865689589E+02  0.25937031874E+03  0.27618674086E+03  0.90849578612E+02 0.  0.
         24    2    1    2    0    0 -0.37556412774E+02  0.60716502896E+01 -0.29802466877E+02  0.75849657193E+02  0.58460537003E+02 0.  0.
        -13    1    4    4    0    0 -0.32032130292E+02 -0.21406144215E+02 -0.58231279327E+01  0.38963947440E+02  0.00000000000E+00 0.  1.
         14    1    4    4    0    0 -0.55242824825E+01  0.27477794504E+02 -0.23979338945E+02  0.36885709753E+02  0.00000000000E+00 0. -1.
        -11    1    3    3    0    0 -0.32711340925E+02  0.14885360219E+01  0.50919234913E+02  0.60539376019E+02  0.00000000000E+00 0.  1.
         11    1    3    3    0    0  0.50519503269E+02 -0.22354225611E+02  0.20845108383E+03  0.21564736484E+03  0.00000000000E+00 0. -1.
         21    1    1    2  502  501  0.19748250429E+02  0.14794039299E+02  0.25487319401E+02  0.35474786033E+02  0.00000000000E+00 0. -1.
<scales pt_clust_5="13000.00000" pt_clust_6="13000.00000" pt_clust_7="13000.00000" pt_clust_8="13000.00000" pt_clust_9="24.67503"></scales>
<clustering>
<clus scale="   24.675">  1  9  2 -1</clus>
<clus scale="   58.461">  5  6 -1 -1</clus>
<clus scale="   69.033">  2  5  1 -1</clus>
<clus scale="   90.850">  7  8 -1 -1</clus>
<clus scale="   69.033">  2  5  1 -1</clus>
</clustering>
</event>
<event>
 9    2  0.2869112E-005  0.1011323E+03  0.7546771E-02  0.1278950E+00
         -1   -1    0    0    0  501 -0.00000000000E+00  0.00000000000E+00  0.43137917788E+03  0.43137917788E+03  0.00000000000E+00 0.  1.
          2   -1    0    0  502    0  0.00000000000E+00 -0.00000000000E+00 -0.51819239001E+02  0.51819239001E+02  0.00000000000E+00 0. -1.
         24    2    1    2    0    0  0.54121153215E+01 -0.43526021690E+02  0.32712858475E+03  0.33982740264E+03  0.80905791319E+02 0.  0.
         23    2    1    2    0    0 -0.41673572928E+01  0.63560847446E+02  0.16766392041E+02  0.10244506665E+03  0.78463568508E+02 0.  0.
        -13    1    3    3    0    0  0.33417259758E+02  0.12273425072E+01  0.18935746897E+03  0.19228746884E+03  0.00000000000E+00 0.  1.
         14    1    3    3    0    0 -0.28005144437E+02 -0.44753364198E+02  0.13777111578E+03  0.14753993380E+03  0.00000000000E+00 0. -1.
        -13    1    4    4    0    0 -0.38837560500E+02  0.15542005884E+02  0.64454956311E+01  0.42325576977E+02  0.00000000000E+00 0.  1.
         13    1    4    4    0    0  0.34670203207E+02  0.48018841562E+02  0.10320896410E+02  0.60119489669E+02  0.00000000000E+00 0. -1.
         21    1    1    2  502  501 -0.12447580287E+01 -0.20034825756E+02  0.35664962082E+02  0.40925947587E+02  0.00000000000E+00 0. -1.
<scales pt_clust_5="13000.00000" pt_clust_6="13000.00000" pt_clust_7="13000.00000" pt_clust_8="13000.00000" pt_clust_9="20.07346"></scales>
<clustering>
<clus scale="   20.073">  1  9  2 -1</clus>
<clus scale="   78.464">  7  8 -1 -1</clus>
<clus scale="   80.906">  5  6 -1 -1</clus>
<clus scale="   99.189">  2  7  1 -1</clus>
<clus scale="   99.189">  2  5  1 -1</clus>
</clustering>
</event>
<event>
 9    2  0.2869112E-005  0.1307129E+03  0.7546771E-02  0.1226788E+00
          2   -1    0    0  502    0  0.00000000000E+00  0.00000000000E+00  0.16829892224E+03  0.16829892224E+03  0.00000000000E+00 0. -1.
         -1   -1    0    0    0  501 -0.00000000000E+00 -0.00000000000E+00 -0.12477565060E+03  0.12477565060E+03  0.00000000000E+00 0.  1.
         23    2    1    2    0    0  0.26913520108E+02 -0.92966650289E+02  0.75320658127E+01  0.13279422791E+03  0.90611474557E+02 0.  0.
         24    2    1    2    0    0 -0.48780913290E+02  0.79986771390E+02  0.38031863404E+02  0.13476908420E+03  0.89100069148E+02 0.  0.
        -11    1    4    4    0    0  0.35070700230E+01  0.59464718065E+02 -0.10560092808E+02  0.60496841197E+02  0.00000000000E+00 0.  1.
         12    1    4    4    0    0 -0.52287983313E+02  0.20522053325E+02  0.48591956212E+02  0.74272242999E+02  0.00000000000E+00 0. -1.
        -13    1    3    3    0    0  0.23219680520E+02 -0.58958466392E+02 -0.39476152707E+02  0.74656687278E+02  0.00000000000E+00 0.  1.
         13    1    3    3    0    0  0.36938395874E+01 -0.34008183897E+02  0.47008218520E+02  0.58137540636E+02  0.00000000000E+00 0. -1.
         21    1    1    2  502  501  0.21867393182E+02  0.12979878898E+02 -0.20406575770E+01  0.25511260732E+02  0.00000000000E+00 0.  1.
<scales pt_clust_5="13000.00000" pt_clust_6="13000.00000" pt_clust_7="13000.00000" pt_clust_8="13000.00000" pt_clust_9="25.42951"></scales>
<clustering>
<clus scale="   25.430">  2  9  1 -1</clus>
<clus scale="   89.100">  5  6 -1 -1</clus>
<clus scale="   90.611">  7  8 -1 -1</clus>
<clus scale="  129.670">  1  5  2 -1</clus>
<clus scale="  129.670">  1  5  2 -1</clus>
</clustering>
</event>
<event>
 9    2  0.2869112E-005  0.1118789E+03  0.7546771E-02  0.1260816E+00
          2   -1    0    0  502    0  0.00000000000E+00  0.00000000000E+00  0.80131336157E+02  0.80131336157E+02  0.00000000000E+00 0. -1.
         -1   -1    0    0    0  501 -0.00000000000E+00 -0.00000000000E+00 -0.52233640955E+03  0.52233640955E+03  0.00000000000E+00 0.  1.
         23    2    1    2    0    0  0.30735266498E+02  0.32467556499E+02 -0.26953795399E+03  0.28820744827E+03  0.91727998824E+02 0.  0.
         24    2    1    2    0    0 -0.59168458088E+02 -0.31740161463E+02  0.29576000519E+02  0.11002696263E+03  0.81992977852E+02 0.  0.
        -13    1    4    4    0    0 -0.64588317670E+02 -0.16508717884E+01  0.41961608156E+02  0.77039942342E+02  0.00000000000E+00 0.  1.
         14    1    4    4    0    0  0.54198595815E+01 -0.30089289675E+02 -0.12385607637E+02  0.32987020289E+02  0.00000000000E+00 0. -1.
        -13    1    3    3    0    0  0.62892642781E+02  0.16659151760E+02 -0.19359444103E+03  0.20423471657E+03  0.00000000000E+00 0.  1.
         13    1    3    3    0    0 -0.32157376283E+02  0.15808404738E+02 -0.75943512958E+02  0.83972731706E+02  0.00000000000E+00 0. -1.
         21    1    1    2  502  501  0.28433191591E+02 -0.72739503516E+00 -0.20224311992E+03  0.20423333480E+03  0.00000000000E+00 0.  1.
<scales pt_clust_5="13000.00000" pt_clust_6="13000.00000" pt_clust_7="13000.00000" pt_clust_8="13000.00000" pt_clust_9="28.44249"></scales>
<clustering>
<clus scale="   28.442">  2  9  1 -1</clus>
<clus scale="   81.993">  5  6 -1 -1</clus>
<clus scale="   91.728">  7  8 -1 -1</clus>
<clus scale="  104.047">  1  5  2 -1</clus>
<clus scale="  104.047">  1  5  2 -1</clus>
</clustering>
</event>
<event>
 9    2  0.2869112E-005  0.1059016E+03  0.7546771E-02  0.1273712E+00
          2   -1    0    0  502    0  0.00000000000E+00  0.00000000000E+00  0.59352086925E+03  0.59352086925E+03  0.00000000000E+00 0. -1.
         -1   -1    0    0    0  501 -0.00000000000E+00 -0.00000000000E+00 -0.56362450714E+02  0.56362450714E+02  0.00000000000E+00 0.  1.
         23    2    1    2    0    0  0.24549510031E+02  0.22532116650E+02  0.50585461866E+01  0.99718244714E+02  0.93849692146E+02 0.  0.
         24    2    1    2    0    0 -0.49444745490E+02 -0.12443036130E+02  0.49525484631E+03  0.50456772623E+03  0.81924450248E+02 0.  0.
        -11    1    4    4    0    0 -0.25739490600E+02 -0.42258495799E+02  0.16893282547E+03  0.17603011494E+03  0.00000000000E+00 0.  1.
         12    1    4    4    0    0 -0.23705254889E+02  0.29815459670E+02  0.32632202084E+03  0.32853761129E+03  0.00000000000E+00 0. -1.
        -11    1    3    3    0    0 -0.18970604398E+02  0.22266661007E+02 -0.31421640338E+02  0.42930263279E+02  0.00000000000E+00 0.  1.
         11    1    3    3    0    0  0.43520114429E+02  0.26545564309E+00  0.36480186525E+02  0.56787981436E+02  0.00000000000E+00 0. -1.
         21    1    1    2  502  501  0.24895235458E+02 -0.10089080521E+02  0.36845026033E+02  0.45597349020E+02  0.00000000000E+00 0. -1.
<scales pt_clust_5="13000.00000" pt_clust_6="13000.00000" pt_clust_7="13000.00000" pt_clust_8="13000.00000" pt_clust_9="26.86191"></scales>
<clustering>
<clus scale="   26.862">  2  9  1 -1</clus>
<clus scale="   81.924">  5  6 -1 -1</clus>
<clus scale="   93.850">  7  8 -1 -1</clus>
<clus scale="   95.493">  1  5  2 -1</clus>
<clus scale="   95.493">  1  5  2 -1</clus>
</clustering>
</event>
<event>
 9    2  0.2869112E-005  0.9044290E+02  0.7546771E-02  0.1310387E+00
         -3   -1    0    0    0  501 -0.00000000000E+00  0.00000000000E+00  0.14076452706E+03  0.14076452706E+03  0.00000000000E+00 0.  1.
          4   -1    0    0  502    0  0.00000000000E+00 -0.00000000000E+00 -0.30342627144E+03  0.30342627144E+03  0.00000000000E+00 0. -1.
         23    2    1    2    0    0  0.59947848110E+01 -0.17901702277E+01  0.10237097725E+03  0.13572254004E+03  0.88891218563E+02 0.  0.
         24    2    1    2    0    0  0.16410307494E+02 -0.66899980649E+01 -0.27254933190E+03  0.28336047390E+03  0.75471621052E+02 0.  0.
        -11    1    4    4    0    0  0.45266079547E+02  0.26109666859E+01 -0.13174154865E+03  0.13932577201E+03  0.00000000000E+00 0.  1.
         12    1    4    4    0    0 -0.28855772052E+02 -0.93009647508E+01 -0.14080778325E+03  0.14403470190E+03  0.00000000000E+00 0. -1.
        -11    1    3    3    0    0  0.35667897616E+02 -0.74288360816E+01  0.98805568953E+02  0.10530872225E+03  0.00000000000E+00 0. -1.
         11    1    3    3    0    0 -0.29673112805E+02  0.56386658540E+01  0.35654082930E+01  0.30413817788E+02  0.00000000000E+00 0.  1.
         21    1    1    2  502  501 -0.22405092305E+02  0.84801682926E+01  0.75166102692E+01  0.25107784558E+02  0.00000000000E+00 0.  1.
<scales pt_clust_5="13000.00000" pt_clust_6="13000.00000" pt_clust_7="13000.00000" pt_clust_8="13000.00000" pt_clust_9="23.95624"></scales>
<clustering>
<clus scale="   23.956">  1  9  2 -1</clus>
<clus scale="   75.472">  5  6 -1 -1</clus>
<clus scale="   77.293">  2  5  1 -1</clus>
<clus scale="   88.891">  7  8 -1 -1</clus>
<clus scale="   77.293">  2  5  1 -1</clus>
</clustering>
</event>
<event>
 9    2  0.2869112E-005  0.1147705E+03  0.7546771E-02  0.1254774E+00
         -1   -1    0    0    0  501 -0.00000000000E+00  0.00000000000E+00  0.59615967361E+02  0.59615967361E+02  0.00000000000E+00 0.  1.
          2   -1    0    0  502    0  0.00000000000E+00 -0.00000000000E+00 -0.79593849865E+03  0.79593849865E+03  0.00000000000E+00 0. -1.
         23    2    1    2    0    0 -0.20920151616E+02  0.29865477410E+02 -0.13812414436E+02  0.98012305672E+02  0.89922354206E+02 0.  0.
         24    2    1    2    0    0  0.75245086502E+02 -0.12596469728E+02 -0.67238668220E+03  0.68163579777E+03  0.81871950707E+02 0.  0.
        -13    1    4    4    0    0  0.66772315491E+02 -0.92637592841E+01 -0.24368306816E+03  0.25283551384E+03  0.00000000000E+00 0.  1.
         14    1    4    4    0    0  0.84727710111E+01 -0.33327104437E+01 -0.42870361404E+03  0.42880028393E+03  0.00000000000E+00 0. -1.
        -11    1    3    3    0    0 -0.31225798437E+02  0.49950134027E+02  0.15597717622E+02  0.60937305260E+02  0.00000000000E+00 0.  1.
         11    1    3    3    0    0  0.10305646820E+02 -0.20084656617E+02 -0.29410132059E+02  0.37075000411E+02  0.00000000000E+00 0. -1.
         21    1    1    2  502  501 -0.54324934885E+02 -0.17269007683E+02 -0.50123434653E+02  0.75906362566E+02  0.00000000000E+00 0. -1.
<scales pt_clust_5="13000.00000" pt_clust_6="13000.00000" pt_clust_7="13000.00000" pt_clust_8="13000.00000" pt_clust_9="57.00366"></scales>
<clustering>
<clus scale="   57.004">  1  9  2 -1</clus>
<clus scale="   81.872">  5  6 -1 -1</clus>
<clus scale="   89.922">  7  8 -1 -1</clus>
<clus scale="  108.578">  2  5  1 -1</clus>
<clus scale="  108.578">  2  5  1 -1</clus>
</clustering>
</event>
<event>
 9    2  0.2869112E-005  0.1599439E+03  0.7546771E-02  0.1190811E+00
         -1   -1    0    0    0  501 -0.00000000000E+00  0.00000000000E+00  0.33402998724E+03  0.33402998724E+03  0.00000000000E+00 0.  1.
          2   -1    0    0  502    0  0.00000000000E+00 -0.00000000000E+00 -0.15610959697E+03  0.15610959697E+03  0.00000000000E+00 0. -1.
         23    2    1    2    0    0 -0.11023224515E+03  0.70016636687E+02  0.23524529004E+03  0.28404345886E+03  0.91032207205E+02 0.  0.
         24    2    1    2    0    0  0.93663508501E+02 -0.10298683751E+03 -0.36218768557E+02  0.16358699749E+03  0.77908696744E+02 0.  0.
        -13    1    4    4    0    0  0.32843205423E+02 -0.30081935225E+02  0.24555511634E+02  0.50858353502E+02  0.00000000000E+00 0.  1.
         14    1    4    4    0    0  0.60820303078E+02 -0.72904902283E+02 -0.60774280191E+02  0.11272864399E+03  0.00000000000E+00 0. -1.
        -13    1    3    3    0    0 -0.92278410454E+02  0.74274293002E+01  0.15686018599E+03  0.18214167477E+03  0.00000000000E+00 0.  1.
         13    1    3    3    0    0 -0.17953834701E+02  0.62589207387E+02  0.78385104057E+02  0.10190178409E+03  0.00000000000E+00 0. -1.
         21    1    1    2  502  501  0.16568736654E+02  0.32970200821E+02 -0.21106131211E+02  0.42509127857E+02  0.00000000000E+00 0. -1.
<scales pt_clust_5="13000.00000" pt_clust_6="13000.00000" pt_clust_7="13000.00000" pt_clust_8="13000.00000" pt_clust_9="36.89928"></scales>
<clustering>
<clus scale="   36.899">  2  9  1 -1</clus>
<clus scale="   77.909">  5  6 -1 -1</clus>
<clus scale="   91.032">  7  8 -1 -1</clus>
<clus scale="  152.856">  2  5  1 -1</clus>
<clus scale="   36.899">  2  5  1 -1</clus>
</clustering>
</event>
<event>
 9    2  0.2869112E-005  0.1597986E+03  0.7546771E-02  0.1215933E+00
          2   -1    0    0  502    0  0.00000000000E+00  0.00000000000E+00  0.86452306982E+02  0.86452306982E+02  0.00000000000E+00 0. -1.
         -1   -1    0    0    0  501 -0.00000000000E+00 -0.00000000000E+00 -0.51013047731E+03  0.51013047731E+03  0.00000000000E+00 0.  1.
         23    2    1    2    0    0  0.12933974071E+03  0.68157169598E+02 -0.33307548061E+03  0.37534051079E+03  0.92558386762E+02 0.  0.
         24    2    1    2    0    0 -0.33378137775E+02 -0.17750678010E+02 -0.18315377134E+02  0.90954518161E+02  0.80672700978E+02 0.  0.
        -11    1    4    4    0    0  0.26647676163E+02 -0.74736358454E+00 -0.41538743195E+01  0.26979841902E+02  0.00000000000E+00 0.  1.
         12    1    4    4    0    0 -0.60025813938E+02 -0.17003314426E+02 -0.14161502815E+02  0.63974676259E+02  0.00000000000E+00 0. -1.
        -11    1    3    3    0    0  0.59570197983E+02  0.58140905546E+02 -0.26336223291E+03  0.27620398098E+03  0.00000000000E+00 0.  1.
         11    1    3    3    0    0  0.69769542726E+02  0.10016264052E+02 -0.69713247706E+02  0.99136529813E+02  0.00000000000E+00 0. -1.
         21    1    1    2  502  501 -0.95961602933E+02 -0.50406491588E+02 -0.72287312578E+02  0.13028775534E+03  0.00000000000E+00 0. -1.
<scales pt_clust_5="13000.00000" pt_clust_6="13000.00000" pt_clust_7="13000.00000" pt_clust_8="13000.00000" pt_clust_9="130.26338"></scales>
<clustering>
<clus scale="   80.673">  5  6 -1 -1</clus>
<clus scale="   89.091">  1  5  2 -1</clus>
<clus scale="   92.558">  7  8 -1 -1</clus>
<clus scale="  130.263">  1  9  2 -1</clus>
<clus scale="   89.091">  1  5  2 -1</clus>
</clustering>
</event>
<event>
 9    2  0.2869112E-005  0.9608384E+02  0.7546771E-02  0.1293238E+00
         -1   -1    0    0    0  501 -0.00000000000E+00  0.00000000000E+00  0.20348457282E+03  0.20348457282E+03  0.00000000000E+00 0.  1.
          2   -1    0    0  502    0  0.00000000000E+00 -0.00000000000E+00 -0.12371502481E+03  0.12371502481E+03  0.00000000000E+00 0. -1.
         23    2    1    2    0    0  0.39300102217E+02 -0.16368037801E+02  0.81564824054E+02  0.12845563406E+03  0.89641612565E+02 0.  0.
         24    2    1    2    0    0  0.38602334467E+02  0.29727519552E+02 -0.48980518856E+02  0.10669119321E+03  0.81302237578E+02 0.  0.
        -13    1    4    4    0    0 -0.21474969522E+02 -0.88017835363E+01 -0.90600037022E+01  0.24914441123E+02  0.00000000000E+00 0.  1.
         14    1    4    4    0    0  0.60077303989E+02  0.38529303089E+02 -0.39920515154E+02  0.81776752083E+02  0.00000000000E+00 0. -1.
        -11    1    3    3    0    0  0.17321494089E+02 -0.29724125116E+02 -0.79583965040E+01  0.35311384089E+02  0.00000000000E+00 0.  1.
         11    1    3    3    0    0  0.21978608128E+02  0.13356087315E+02  0.89523220558E+02  0.93144249971E+02  0.00000000000E+00 0. -1.
         21    1    1    2  502  501 -0.77902436684E+02 -0.13359481752E+02  0.47185242810E+02  0.92052770372E+02  0.00000000000E+00 0.  1.
<scales pt_clust_5="13000.00000" pt_clust_6="13000.00000" pt_clust_7="13000.00000" pt_clust_8="13000.00000" pt_clust_9="79.03964"></scales>
<clustering>
<clus scale="   79.040">  1  9  2 -1</clus>
<clus scale="   81.302">  5  6 -1 -1</clus>
<clus scale="   88.355">  2  5  1 -1</clus>
<clus scale="   89.642">  7  8 -1 -1</clus>
<clus scale="   88.355">  2  5  1 -1</clus>
</clustering>
</event>
<event>
 9    2  0.2869112E-005  0.1041511E+03  0.7546771E-02  0.1277630E+00
          4   -1    0    0  502    0  0.00000000000E+00  0.00000000000E+00  0.46470961676E+03  0.46470961676E+03  0.00000000000E+00 0. -1.
         -3   -1    0    0    0  501 -0.00000000000E+00 -0.00000000000E+00 -0.65668478439E+02  0.65668478439E+02  0.00000000000E+00 0.  1.
         24    2    1    2    0    0  0.37033164965E+02  0.35339883568E+01  0.82689451907E+02  0.12063140896E+03  0.79564106169E+02 0.  0.
         23    2    1    2    0    0 -0.50650307335E+02  0.20021653664E+02  0.35026112871E+03  0.36627088707E+03  0.92223555435E+02 0.  0.
        -11    1    3    3    0    0  0.29640796911E+02  0.21751661885E+02  0.11801764670E+01  0.36784568133E+02  0.00000000000E+00 0.  1.
         12    1    3    3    0    0  0.73923680541E+01 -0.18217673528E+02  0.81509275440E+02  0.83846840829E+02  0.00000000000E+00 0. -1.
        -13    1    4    4    0    0 -0.51664858484E+02 -0.27118483629E+02  0.22457474539E+03  0.23203121778E+03  0.00000000000E+00 0.  1.
         13    1    4    4    0    0  0.10145511487E+01  0.47140137293E+02  0.12568638332E+03  0.13423966928E+03  0.00000000000E+00 0. -1.
         21    1    1    2  502  501  0.13617142370E+02 -0.23555642020E+02 -0.33909442293E+02  0.43475799175E+02  0.00000000000E+00 0.  1.
<scales pt_clust_5="13000.00000" pt_clust_6="13000.00000" pt_clust_7="13000.00000" pt_clust_8="13000.00000" pt_clust_9="27.20836"></scales>
<clustering>
<clus scale="   27.208">  2  9  1 -1</clus>
<clus scale="   79.564">  5  6 -1 -1</clus>
<clus scale="   92.224">  7  8 -1 -1</clus>
<clus scale="   93.127">  2  5  1 -1</clus>
<clus scale="  104.151">  1  5  2 -1</clus>
</clustering>
</event>
<event>
 9    2  0.2869112E-005  0.8985865E+02  0.7546771E-02  0.1308325E+00
         -1   -1    0    0    0  501 -0.00000000000E+00  0.00000000000E+00  0.30220428164E+02  0.30220428164E+02  0.00000000000E+00 0.  1.
          2   -1    0    0  502    0  0.00000000000E+00 -0.00000000000E+00 -0.82922612900E+03  0.82922612900E+03  0.00000000000E+00 0. -1.
         23    2    1    2    0    0  0.72794150537E+01 -0.30108675578E+02 -0.16284085664E+03  0.18830449614E+03  0.89341571756E+02 0.  0.
         24    2    1    2    0    0  0.19980522666E+01  0.54576126236E+01 -0.63943338001E+03  0.64460096778E+03  0.81250122689E+02 0.  0.
        -13    1    4    4    0    0 -0.31779947702E+02  0.12716498830E+02 -0.14597380399E+03  0.14993340479E+03  0.00000000000E+00 0.  1.
         14    1    4    4    0    0  0.33777999969E+02 -0.72588862062E+01 -0.49345957602E+03  0.49466756299E+03  0.00000000000E+00 0. -1.
        -11    1    3    3    0    0 -0.14650562208E+02 -0.41722405910E+02 -0.30647456446E+02  0.53802088385E+02  0.00000000000E+00 0.  1.
         11    1    3    3    0    0  0.21929977262E+02  0.11613730332E+02 -0.13219340020E+03  0.13450240775E+03  0.00000000000E+00 0. -1.
         21    1    1    2  502  501 -0.92774673203E+01  0.24651062955E+02  0.32685358180E+01  0.26541093253E+02  0.00000000000E+00 0.  1.
<scales pt_clust_5="13000.00000" pt_clust_6="13000.00000" pt_clust_7="13000.00000" pt_clust_8="13000.00000" pt_clust_9="26.33906"></scales>
<clustering>
<clus scale="   26.339">  1  9  2 -1</clus>
<clus scale="   81.250">  5  6 -1 -1</clus>
<clus scale="   81.818">  2  5  1 -1</clus>
<clus scale="   89.342">  7  8 -1 -1</clus>
<clus scale="   81.818">  2  5  1 -1</clus>
</clustering>
</event>
<event>
 9    2  0.2869112E-005  0.1009348E+03  0.7546771E-02  0.1282207E+00
         -1   -1    0    0    0  501 -0.00000000000E+00  0.00000000000E+00  0.73315783188E+02  0.73315783188E+02  0.00000000000E+00 0.  1.
          2   -1    0    0  502    0  0.00000000000E+00 -0.00000000000E+00 -0.55556301406E+03  0.55556301406E+03  0.00000000000E+00 0. -1.
         23    2    1    2    0    0 -0.85167748732E+02  0.59925709630E+02 -0.64502585538E+02  0.15146801315E+03  0.89091746905E+02 0.  0.
         24    2    1    2    0    0  0.53906111482E+01 -0.43296917106E+02 -0.37358054673E+03  0.38472110816E+03  0.80896380922E+02 0.  0.
        -13    1    4    4    0    0 -0.14549516975E+02  0.20241898191E+02 -0.11825027870E+03  0.12084929168E+03  0.00000000000E+00 0.  1.
         14    1    4    4    0    0  0.19940128123E+02 -0.63538815297E+02 -0.25533026802E+03  0.26387181647E+03  0.00000000000E+00 0. -1.
        -11    1    3    3    0    0 -0.43500465213E+02  0.39418705960E+02  0.13915275426E+02  0.60330421377E+02  0.00000000000E+00 0.  1.
         11    1    3    3    0    0 -0.41667283519E+02  0.20507003670E+02 -0.78417860964E+02  0.91137591769E+02  0.00000000000E+00 0. -1.
         21    1    1    2  502  501  0.79777137583E+02 -0.16628792524E+02 -0.44164098609E+02  0.92689675950E+02  0.00000000000E+00 0. -1.
<scales pt_clust_5="13000.00000" pt_clust_6="13000.00000" pt_clust_7="13000.00000" pt_clust_8="13000.00000" pt_clust_9="81.49177"></scales>
<clustering>
<clus scale="   80.896">  5  6 -1 -1</clus>
<clus scale="   81.492">  1  9  2 -1</clus>
<clus scale="   89.092">  7  8 -1 -1</clus>
<clus scale="   93.780">  2  5  1 -1</clus>
<clus scale="   93.780">  2  5  1 -1</clus>
</clustering>
</event>
<event>
 9    2  0.2869112E-005  0.1011975E+03  0.7546771E-02  0.1283171E+00
         -1   -1    0    0    0  501 -0.00000000000E+00  0.00000000000E+00  0.66908668193E+03  0.66908668193E+03  0.00000000000E+00 0.  1.
          2   -1    0    0  502    0  0.00000000000E+00 -0.00000000000E+00 -0.46505423367E+02  0.46505423367E+02  0.00000000000E+00 0. -1.
         23    2    1    2    0    0 -0.15037908089E+02 -0.29917919324E+02  0.25853043693E+03  0.27589280156E+03  0.90319602268E+02 0.  0.
         24    2    1    2    0    0  0.40305971726E+02 -0.46842123064E+02  0.44053510760E+02  0.10965558222E+03  0.79150988957E+02 0.  0.
        -13    1    4    4    0    0  0.13052390617E+02 -0.58640961802E+02  0.51398436889E+02  0.79062801725E+02  0.00000000000E+00 0.  1.
         14    1    4    4    0    0  0.27253581109E+02  0.11798838739E+02 -0.73449261293E+01  0.30592780500E+02  0.00000000000E+00 0. -1.
        -11    1    3    3    0    0  0.23471095954E+02  0.16721726025E+02  0.13871303876E+03  0.14167503516E+03  0.00000000000E+00 0.  1.
         11    1    3    3    0    0 -0.38509004043E+02 -0.46639645350E+02  0.11981739817E+03  0.13421776639E+03  0.00000000000E+00 0. -1.
         21    1    1    2  502  501 -0.25268063638E+02  0.76760042388E+02  0.31999731088E+03  0.33004372152E+03  0.00000000000E+00 0. -1.
<scales pt_clust_5="13000.00000" pt_clust_6="13000.00000" pt_clust_7="13000.00000" pt_clust_8="13000.00000" pt_clust_9="80.81200"></scales>
<clustering>
<clus scale="   79.151">  5  6 -1 -1</clus>
<clus scale="   80.812">  1  9  2 -1</clus>
<clus scale="   90.320">  7  8 -1 -1</clus>
<clus scale="   91.368">  2  5  1 -1</clus>
<clus scale="   91.368">  2  5  1 -1</clus>
</clustering>
</event>
<event>
 9    2  0.2869112E-005  0.9279240E+02  0.7546771E-02  0.1301873E+00
          2   -1    0    0  502    0  0.00000000000E+00  0.00000000000E+00  0.36797743891E+03  0.36797743891E+03  0.00000000000E+00 0. -1.
         -1   -1    0    0    0  501 -0.00000000000E+00 -0.00000000000E+00 -0.50585864867E+02  0.50585864867E+02  0.00000000000E+00 0.  1.
         23    2    1    2    0    0  0.23489762669E+01 -0.55194327150E+00  0.21762293724E+02  0.92405421022E+02  0.89773838479E+02 0.  0.
         24    2    1    2    0    0 -0.12579447613E+02  0.24203779714E+02  0.28657375059E+03  0.29884351786E+03  0.80242558437E+02 0.  0.
        -13    1    4    4    0    0 -0.27512553993E+02 -0.22568105241E+02  0.12644083420E+03  0.13135274856E+03  0.00000000000E+00 0.  1.
         14    1    4    4    0    0  0.14933106380E+02  0.46771884955E+02  0.16013291639E+03  0.16749076930E+03  0.00000000000E+00 0. -1.
        -11    1    3    3    0    0 -0.25745399388E+02 -0.33105768323E+01 -0.26117861528E+02  0.36822930348E+02  0.00000000000E+00 0.  1.
         11    1    3    3    0    0  0.28094375655E+02  0.27586335608E+01  0.47880155252E+02  0.55582490674E+02  0.00000000000E+00 0. -1.
         21    1    1    2  502  501  0.10230471346E+02 -0.23651836442E+02  0.90555297284E+01  0.27314364897E+02  0.00000000000E+00 0.  1.
<scales pt_clust_5="13000.00000" pt_clust_6="13000.00000" pt_clust_7="13000.00000" pt_clust_8="13000.00000" pt_clust_9="25.76959"></scales>
<clustering>
<clus scale="   25.770">  2  9  1 -1</clus>
<clus scale="   80.243">  5  6 -1 -1</clus>
<clus scale="   83.606">  1  5  2 -1</clus>
<clus scale="   89.774">  7  8 -1 -1</clus>
<clus scale="   83.606">  1  5  2 -1</clus>
</clustering>
</event>
<event>
 9    2  0.2869112E-005  0.9547901E+02  0.7546771E-02  0.1296908E+00
         -1   -1    0    0    0  501 -0.00000000000E+00  0.00000000000E+00  0.72286173786E+02  0.72286173786E+02  0.00000000000E+00 0.  1.
          2   -1    0    0  502    0  0.00000000000E+00 -0.00000000000E+00 -0.25639692973E+03  0.25639692973E+03  0.00000000000E+00 0. -1.
         24    2    1    2    0    0  0.40288627536E+02  0.13600176090E+02 -0.49226177483E+02  0.10349021482E+03  0.80491426349E+02 0.  0.
         23    2    1    2    0    0 -0.16864217677E+02  0.37683202854E+01 -0.16077723930E+03  0.18619548457E+03  0.92308372988E+02 0.  0.
        -13    1    3    3    0    0  0.19014381728E+02 -0.33749605956E+02 -0.16355786533E+02  0.42048714223E+02  0.00000000000E+00 0.  1.
         14    1    3    3    0    0  0.21274245807E+02  0.47349782046E+02 -0.32870390950E+02  0.61441500597E+02  0.00000000000E+00 0. -1.
        -13    1    4    4    0    0 -0.40279256948E+02 -0.29666408337E+02 -0.64522884854E+02  0.81643842350E+02  0.00000000000E+00 0.  1.
         13    1    4    4    0    0  0.23415039271E+02  0.33434728622E+02 -0.96254354445E+02  0.10455164222E+03  0.00000000000E+00 0. -1.
         21    1    1    2  502  501 -0.23424409858E+02 -0.17368496375E+02  0.25892660833E+02  0.38997404126E+02  0.00000000000E+00 0. -1.
<scales pt_clust_5="13000.00000" pt_clust_6="13000.00000" pt_clust_7="13000.00000" pt_clust_8="13000.00000" pt_clust_9="29.16106"></scales>
<clustering>
<clus scale="   29.161">  1  9  2 -1</clus>
<clus scale="   80.491">  5  6 -1 -1</clus>
<clus scale="   84.109">  1  5  2 -1</clus>
<clus scale="   92.308">  7  8 -1 -1</clus>
<clus scale="   95.479">  2  5  1 -1</clus>
</clustering>
</event>
<event>
 9    2  0.2869112E-005  0.9911414E+02  0.7546771E-02  0.1287963E+00
         -1   -1    0    0    0  501 -0.00000000000E+00  0.00000000000E+00  0.38094935225E+02  0.38094935225E+02  0.00000000000E+00 0.  1.
          2   -1    0    0  502    0  0.00000000000E+00 -0.00000000000E+00 -0.19757169221E+04  0.19757169221E+04  0.00000000000E+00 0. -1.
         23    2    1    2    0    0 -0.27520919697E+02 -0.16178498542E+02 -0.33213155076E+02  0.10251854919E+03  0.91584902806E+02 0.  0.
         24    2    1    2    0    0  0.15753257165E+02  0.34857324348E+02 -0.18554943416E+04  0.18576276416E+04  0.80361712886E+02 0.  0.
        -13    1    4    4    0    0 -0.27269588730E+01  0.22832119378E+02 -0.13170011196E+03  0.13369241366E+03  0.00000000000E+00 0.  1.
         14    1    4    4    0    0  0.18480216038E+02  0.12025204970E+02 -0.17237942296E+04  0.17239352279E+04  0.00000000000E+00 0. -1.
        -11    1    3    3    0    0 -0.76577313062E+01 -0.51163591287E+02 -0.23033442027E+01  0.51784740191E+02  0.00000000000E+00 0. -1.
         11    1    3    3    0    0 -0.19863188391E+02  0.34985092744E+02 -0.30909810874E+02  0.50733809000E+02  0.00000000000E+00 0.  1.
         21    1    1    2  502  501  0.11767662532E+02 -0.18678825806E+02 -0.48914490201E+02  0.53665666553E+02  0.00000000000E+00 0.  1.
<scales pt_clust_5="13000.00000" pt_clust_6="13000.00000" pt_clust_7="13000.00000" pt_clust_8="13000.00000" pt_clust_9="22.07660"></scales>
<clustering>
<clus scale="   22.077">  1  9  2 -1</clus>
<clus scale="   80.362">  5  6 -1 -1</clus>
<clus scale="   88.847">  2  5  1 -1</clus>
<clus scale="   91.585">  7  8 -1 -1</clus>
<clus scale="   88.847">  2  5  1 -1</clus>
</clustering>
</event>
<event>
 9    2  0.2869112E-005  0.1495009E+03  0.7546771E-02  0.1203920E+00
         -1   -1    0    0    0  501 -0.00000000000E+00  0.00000000000E+00  0.61749847221E+03  0.61749847221E+03  0.00000000000E+00 0.  1.
          2   -1    0    0  502    0  0.00000000000E+00 -0.00000000000E+00 -0.11719906227E+03  0.11719906227E+03  0.00000000000E+00 0. -1.
         24    2    1    2    0    0 -0.38260589327E+02 -0.55467061591E+02  0.35211500062E+03  0.36669255132E+03  0.77058327994E+02 0.  0.
         23    2    1    2    0    0  0.73793978254E+02  0.10171742307E+03 -0.48164110336E+02  0.16317710705E+03  0.92276764991E+02 0.  0.
        -13    1    3    3    0    0  0.47711938640E+01 -0.51912435050E+02  0.12376423791E+03  0.13429539005E+03  0.00000000000E+00 0.  1.
         14    1    3    3    0    0 -0.43031783191E+02 -0.35546265417E+01  0.22835076271E+03  0.23239716127E+03  0.00000000000E+00 0. -1.
        -13    1    4    4    0    0  0.12890638877E+02  0.56544471308E+02  0.19867727396E+02  0.61303934604E+02  0.00000000000E+00 0.  1.
         13    1    4    4    0    0  0.60903339377E+02  0.45172951760E+02 -0.68031837732E+02  0.10187317244E+03  0.00000000000E+00 0. -1.
         21    1    1    2  502  501 -0.35533388926E+02 -0.46250361476E+02  0.19634851965E+03  0.20482787612E+03  0.00000000000E+00 0.  1.
<scales pt_clust_5="13000.00000" pt_clust_6="13000.00000" pt_clust_7="13000.00000" pt_clust_8="13000.00000" pt_clust_9="58.32425"></scales>
<clustering>
<clus scale="   58.324">  1  9  2 -1</clus>
<clus scale="   77.058">  5  6 -1 -1</clus>
<clus scale="   92.277">  7  8 -1 -1</clus>
<clus scale="  140.618">  1  5  2 -1</clus>
<clus scale="  149.501">  2  5  1 -1</clus>
</clustering>
</event>
<event>
 9    2  0.2869112E-005  0.1235818E+03  0.7546771E-02  0.1239816E+00
         -1   -1    0    0    0  501 -0.00000000000E+00  0.00000000000E+00  0.54625605337E+02  0.54625605337E+02  0.00000000000E+00 0.  1.
          2   -1    0    0  502    0  0.00000000000E+00 -0.00000000000E+00 -0.10982528714E+04  0.10982528714E+04  0.00000000000E+00 0. -1.
         23    2    1    2    0    0  0.85972050465E+02  0.49968985140E+01 -0.35356755011E+02  0.13004261188E+03  0.90800981958E+02 0.  0.
         24    2    1    2    0    0 -0.56242005558E+02 -0.34902131785E+02 -0.90722481148E+03  0.91334416677E+03  0.82215487707E+02 0.  0.
        -11    1    4    4    0    0 -0.32025343804E+02 -0.18756607960E+02 -0.12061155612E+03  0.12619263234E+03  0.00000000000E+00 0.  1.
         12    1    4    4    0    0 -0.24216661754E+02 -0.16145523825E+02 -0.78661325536E+03  0.78715153443E+03  0.00000000000E+00 0. -1.
        -11    1    3    3    0    0  0.12964176735E+02  0.36657907922E+02 -0.32062216857E+02  0.50397002306E+02  0.00000000000E+00 0. -1.
         11    1    3    3    0    0  0.73007873730E+02 -0.31661009408E+02 -0.32945381540E+01  0.79645609578E+02  0.00000000000E+00 0.  1.
         21    1    1    2  502  501 -0.29730044907E+02  0.29905233271E+02 -0.10104569959E+03  0.10949169810E+03  0.00000000000E+00 0. -1.
<scales pt_clust_5="13000.00000" pt_clust_6="13000.00000" pt_clust_7="13000.00000" pt_clust_8="13000.00000" pt_clust_9="42.16869"></scales>
<clustering>
<clus scale="   42.169">  2  9  1 -1</clus>
<clus scale="   82.215">  5  6 -1 -1</clus>
<clus scale="   90.801">  7  8 -1 -1</clus>
<clus scale="  117.418">  2  5  1 -1</clus>
<clus scale="   42.169">  2  5  1 -1</clus>
</clustering>
</event>
<event>
 9    2  0.2869112E-005  0.1080058E+03  0.7546771E-02  0.1269292E+00
         -1   -1    0    0    0  501 -0.00000000000E+00  0.00000000000E+00  0.22465608714E+02  0.22465608714E+02  0.00000000000E+00 0.  1.
          2   -1    0    0  502    0  0.00000000000E+00 -0.00000000000E+00 -0.79860422994E+03  0.79860422994E+03  0.00000000000E+00 0. -1.
         24    2    1    2    0    0 -0.58599187090E+01 -0.73674287130E+02 -0.26662812883E+03  0.28810764907E+03  0.80331930975E+02 0.  0.
         23    2    1    2    0    0  0.98155654987E+01  0.46300467455E+02 -0.48515672603E+03  0.49611006508E+03  0.92239195804E+02 0.  0.
        -11    1    3    3    0    0 -0.18826632778E+02 -0.18104415843E+02 -0.15061881465E+02  0.30150824998E+02  0.00000000000E+00 0.  1.
         12    1    3    3    0    0  0.12966714069E+02 -0.55569871287E+02 -0.25156624737E+03  0.25795682407E+03  0.00000000000E+00 0. -1.
        -11    1    4    4    0    0 -0.38740031000E+02  0.13523745006E+02 -0.13539390995E+03  0.14147505975E+03  0.00000000000E+00 0. -1.
         11    1    4    4    0    0  0.48555596498E+02  0.32776722450E+02 -0.34976281608E+03  0.35463500532E+03  0.00000000000E+00 0.  1.
         21    1    1    2  502  501 -0.39556467897E+01  0.27373819674E+02 -0.24353766358E+02  0.36852124510E+02  0.00000000000E+00 0. -1.
<scales pt_clust_5="13000.00000" pt_clust_6="13000.00000" pt_clust_7="13000.00000" pt_clust_8="13000.00000" pt_clust_9="27.65815"></scales>
<clustering>
<clus scale="   27.658">  1  9  2 -1</clus>
<clus scale="   80.332">  5  6 -1 -1</clus>
<clus scale="   92.239">  7  8 -1 -1</clus>
<clus scale="   98.033">  1  5  2 -1</clus>
<clus scale="  108.006">  2  5  1 -1</clus>
</clustering>
</event>
<event>
 9    2  0.2869112E-005  0.1093026E+03  0.7546771E-02  0.1263907E+00
         -1   -1    0    0    0  501 -0.00000000000E+00  0.00000000000E+00  0.21777478996E+02  0.21777478996E+02  0.00000000000E+00 0.  1.
          2   -1    0    0  502    0  0.00000000000E+00 -0.00000000000E+00 -0.11372332583E+04  0.11372332583E+04  0.00000000000E+00 0. -1.
         23    2    1    2    0    0  0.24381767443E+02  0.45708138023E+02 -0.17234026516E+03  0.20209059295E+03  0.91955077605E+02 0.  0.
         24    2    1    2    0    0 -0.60562562000E+01 -0.60997935441E+02 -0.90952644376E+03  0.91571543688E+03  0.86827317626E+02 0.  0.
        -13    1    4    4    0    0  0.20944545770E+02  0.73341302780E+01 -0.82525988635E+02  0.85457605072E+02  0.00000000000E+00 0.  1.
         14    1    4    4    0    0 -0.27000801970E+02 -0.68332065719E+02 -0.82700045512E+03  0.83025783181E+03  0.00000000000E+00 0. -1.
        -13    1    3    3    0    0  0.42656166584E+02 -0.12190418356E+02 -0.82246384502E+02  0.93448502454E+02  0.00000000000E+00 0. -1.
         13    1    3    3    0    0 -0.18274399140E+02  0.57898556379E+02 -0.90093880656E+02  0.10864209049E+03  0.00000000000E+00 0.  1.
         21    1    1    2  502  501 -0.18325511243E+02  0.15289797418E+02 -0.33589070360E+02  0.41204707438E+02  0.00000000000E+00 0. -1.
<scales pt_clust_5="13000.00000" pt_clust_6="13000.00000" pt_clust_7="13000.00000" pt_clust_8="13000.00000" pt_clust_9="23.86634"></scales>
<clustering>
<clus scale="   23.866">  1  9  2 -1</clus>
<clus scale="   86.827">  5  6 -1 -1</clus>
<clus scale="   91.955">  7  8 -1 -1</clus>
<clus scale="  105.025">  2  5  1 -1</clus>
<clus scale="  105.025">  2  5  1 -1</clus>
</clustering>
</event>
<event>
 9    2  0.2869112E-005  0.2168427E+03  0.7546771E-02  0.1164901E+00
         -1   -1    0    0    0  501 -0.00000000000E+00  0.00000000000E+00  0.21843343008E+03  0.21843343008E+03  0.00000000000E+00 0.  1.
          2   -1    0    0  502    0  0.00000000000E+00 -0.00000000000E+00 -0.13156729342E+04  0.13156729342E+04  0.00000000000E+00 0. -1.
         23    2    1    2    0    0 -0.50673715133E+01  0.59247011307E+02  0.59494592512E+02  0.12511927620E+03  0.92624727457E+02 0.  0.
         24    2    1    2    0    0 -0.11914839047E+03 -0.16671594226E+03 -0.12149445592E+04  0.12347241126E+04  0.80391590403E+02 0.  0.
        -11    1    4    4    0    0 -0.42807013101E+02 -0.57687946868E+02 -0.23362958698E+03  0.24442406489E+03  0.00000000000E+00 0.  1.
         12    1    4    4    0    0 -0.76341377370E+02 -0.10902799540E+03 -0.98131497227E+03  0.99030004770E+03  0.00000000000E+00 0. -1.
        -13    1    3    3    0    0  0.10746427062E+02 -0.18899062585E+02 -0.53036941263E+01  0.22378325062E+02  0.00000000000E+00 0. -1.
         13    1    3    3    0    0 -0.15813798575E+02  0.78146073892E+02  0.64798286639E+02  0.10274095114E+03  0.00000000000E+00 0.  1.
         21    1    1    2  502  501  0.12421576198E+03  0.10746893096E+03  0.58210462657E+02  0.17426297544E+03  0.00000000000E+00 0.  1.
<scales pt_clust_5="13000.00000" pt_clust_6="13000.00000" pt_clust_7="13000.00000" pt_clust_8="13000.00000" pt_clust_9="201.39007"></scales>
<clustering>
<clus scale="   80.392">  5  6 -1 -1</clus>
<clus scale="   92.625">  7  8 -1 -1</clus>
<clus scale="  110.069">  1  7  2 -1</clus>
<clus scale="  201.390">  1  9  2 -1</clus>
<clus scale="  216.843">  2  5  1 -1</clus>
</clustering>
</event>
<event>
 9    2  0.2869112E-005  0.1084138E+03  0.7546771E-02  0.1268047E+00
         -1   -1    0    0    0  501 -0.00000000000E+00  0.00000000000E+00  0.13651181784E+03  0.13651181784E+03  0.00000000000E+00 0.  1.
          2   -1    0    0  502    0  0.00000000000E+00 -0.00000000000E+00 -0.11849867817E+04  0.11849867817E+04  0.00000000000E+00 0. -1.
         23    2    1    2    0    0  0.42789257541E+02  0.26443537385E+02  0.80072897117E+02  0.13086588850E+03  0.90465632641E+02 0.  0.
         24    2    1    2    0    0 -0.16968410947E+02  0.58944824723E+02 -0.10880562576E+04  0.10926660920E+04  0.79311723886E+02 0.  0.
        -11    1    4    4    0    0 -0.32321191365E+02  0.15856843020E+02 -0.18607395344E+03  0.18952470823E+03  0.00000000000E+00 0.  1.
         12    1    4    4    0    0  0.15352780417E+02  0.43087981703E+02 -0.90198230415E+03  0.90314138374E+03  0.00000000000E+00 0. -1.
        -11    1    3    3    0    0  0.12371016734E+02  0.57440449326E+02  0.56202615348E+02  0.81309170736E+02  0.00000000000E+00 0.  1.
         11    1    3    3    0    0  0.30418240807E+02 -0.30996911940E+02  0.23870281769E+02  0.49556717762E+02  0.00000000000E+00 0. -1.
         21    1    1    2  502  501 -0.25820846593E+02 -0.85388362108E+02 -0.40491603364E+02  0.97966619036E+02  0.00000000000E+00 0. -1.
<scales pt_clust_5="13000.00000" pt_clust_6="13000.00000" pt_clust_7="13000.00000" pt_clust_8="13000.00000" pt_clust_9="89.20700"></scales>
<clustering>
<clus scale="   79.312">  5  6 -1 -1</clus>
<clus scale="   89.207">  1  9  2 -1</clus>
<clus scale="   90.466">  7  8 -1 -1</clus>
<clus scale="   99.297">  2  5  1 -1</clus>
<clus scale="   99.297">  2  5  1 -1</clus>
</clustering>
</event>
<event>
 9    2  0.2869112E-005  0.1303567E+03  0.7546771E-02  0.1242029E+00
          2   -1    0    0  502    0  0.00000000000E+00  0.00000000000E+00  0.40779633260E+03  0.40779633260E+03  0.00000000000E+00 0. -1.
         -1   -1    0    0    0  501 -0.00000000000E+00 -0.00000000000E+00 -0.41382239594E+03  0.41382239594E+03  0.00000000000E+00 0.  1.
         23    2    1    2    0    0  0.81625465834E+02 -0.49809671373E+01 -0.34585896643E+03  0.37482372517E+03  0.11910866291E+03 0.  0.
         24    2    1    2    0    0 -0.41001753586E+02  0.33170475696E+02  0.37444510162E+03  0.38643824173E+03  0.79648956618E+02 0.  0.
        -11    1    4    4    0    0 -0.51806512900E+02  0.22507595910E+00  0.13687506905E+03  0.14635146041E+03  0.00000000000E+00 0.  1.
         12    1    4    4    0    0  0.10804759315E+02  0.32945399737E+02  0.23757003257E+03  0.24008678132E+03  0.00000000000E+00 0. -1.
        -13    1    3    3    0    0  0.33987529913E+02 -0.46838502974E+02 -0.26912698623E+03  0.27527864478E+03  0.00000000000E+00 0.  1.
         13    1    3    3    0    0  0.47637935921E+02  0.41857535837E+02 -0.76731980201E+02  0.99545080395E+02  0.00000000000E+00 0. -1.
         21    1    1    2  502  501 -0.40623712249E+02 -0.28189508559E+02 -0.34612198521E+02  0.60356761644E+02  0.00000000000E+00 0.  1.
<scales pt_clust_5="13000.00000" pt_clust_6="13000.00000" pt_clust_7="13000.00000" pt_clust_8="13000.00000" pt_clust_9="49.44628"></scales>
<clustering>
<clus scale="   49.446">  2  9  1 -1</clus>
<clus scale="   79.649">  5  6 -1 -1</clus>
<clus scale="   95.655">  1  5  2 -1</clus>
<clus scale="  119.109">  7  8 -1 -1</clus>
<clus scale="   95.655">  1  5  2 -1</clus>
</clustering>
</event>
<event>
 9    2  0.2869112E-005  0.9859219E+02  0.7546771E-02  0.1290185E+00
          2   -1    0    0  502    0  0.00000000000E+00  0.00000000000E+00  0.13375556253E+04  0.13375556253E+04  0.00000000000E+00 0. -1.
         -1   -1    0    0    0  501 -0.00000000000E+00 -0.00000000000E+00 -0.54961656336E+02  0.54961656336E+02  0.00000000000E+00 0.  1.
         23    2    1    2    0    0  0.46135553703E+02 -0.38260761155E+01  0.43022692746E+02  0.11183813899E+03  0.92269654099E+02 0.  0.
         24    2    1    2    0    0 -0.30318729456E+02  0.16240621787E+02  0.12533350287E+04  0.12563124901E+04  0.79305709513E+02 0.  0.
        -11    1    4    4    0    0 -0.20672529337E+02  0.35741220604E+01  0.75245548131E+02  0.78115429534E+02  0.00000000000E+00 0.  1.
         12    1    4    4    0    0 -0.96462001192E+01  0.12666499727E+02  0.11780894806E+04  0.11781970606E+04  0.00000000000E+00 0. -1.
        -11    1    3    3    0    0  0.50527881957E+02 -0.41443372044E+02  0.26523907767E+02  0.70527566417E+02  0.00000000000E+00 0.  1.
         11    1    3    3    0    0 -0.43923282542E+01  0.37617295929E+02  0.16498784979E+02  0.41310572572E+02  0.00000000000E+00 0. -1.
         21    1    1    2  502  501 -0.15816824247E+02 -0.12414545672E+02 -0.13763752463E+02  0.24366652527E+02  0.00000000000E+00 0. -1.
<scales pt_clust_5="13000.00000" pt_clust_6="13000.00000" pt_clust_7="13000.00000" pt_clust_8="13000.00000" pt_clust_9="20.10704"></scales>
<clustering>
<clus scale="   20.107">  2  9  1 -1</clus>
<clus scale="   79.306">  5  6 -1 -1</clus>
<clus scale="   86.580">  1  5  2 -1</clus>
<clus scale="   92.270">  7  8 -1 -1</clus>
<clus scale="   86.580">  1  5  2 -1</clus>
</clustering>
</event>
<event>
 9    2  0.2869112E-005  0.9672053E+02  0.7546771E-02  0.1293256E+00
          2   -1    0    0  502    0  0.00000000000E+00  0.00000000000E+00  0.72549436632E+03  0.72549436632E+03  0.00000000000E+00 0. -1.
         -1   -1    0    0    0  501 -0.00000000000E+00 -0.00000000000E+00 -0.22998402291E+02  0.22998402291E+02  0.00000000000E+00 0.  1.
         23    2    1    2    0    0 -0.38866560069E+02  0.17001946281E+02  0.31582582410E+03  0.33145462004E+03  0.91195056391E+02 0.  0.
         24    2    1    2    0    0  0.28014873395E+02  0.55641360491E+01  0.38219995304E+03  0.39160254859E+03  0.80373871487E+02 0.  0.
        -13    1    4    4    0    0  0.59290899167E-02 -0.35312564318E+02  0.13992372483E+03  0.14431086585E+03  0.00000000000E+00 0.  1.
         14    1    4    4    0    0  0.28008944305E+02  0.40876700368E+02  0.24227622821E+03  0.24729168274E+03  0.00000000000E+00 0. -1.
        -13    1    3    3    0    0 -0.63448955962E+02 -0.20287849275E+01  0.15230986897E+03  0.16500964265E+03  0.00000000000E+00 0.  1.
         13    1    3    3    0    0  0.24582395893E+02  0.19030731209E+02  0.16351595513E+03  0.16644497739E+03  0.00000000000E+00 0. -1.
         21    1    1    2  502  501  0.10851686674E+02 -0.22566082330E+02  0.44701868888E+01  0.25435599978E+02  0.00000000000E+00 0.  1.
<scales pt_clust_5="13000.00000" pt_clust_6="13000.00000" pt_clust_7="13000.00000" pt_clust_8="13000.00000" pt_clust_9="25.03971"></scales>
<clustering>
<clus scale="   25.040">  2  9  1 -1</clus>
<clus scale="   80.374">  5  6 -1 -1</clus>
<clus scale="   86.593">  1  5  2 -1</clus>
<clus scale="   91.195">  7  8 -1 -1</clus>
<clus scale="   86.593">  1  5  2 -1</clus>
</clustering>
</event>
<event>
 9    2  0.2869112E-005  0.9813036E+02  0.7546771E-02  0.1293101E+00
          2   -1    0    0  502    0  0.00000000000E+00  0.00000000000E+00  0.50330446447E+03  0.50330446447E+03  0.00000000000E+00 0. -1.
         -1   -1    0    0    0  501 -0.00000000000E+00 -0.00000000000E+00 -0.31253566045E+02  0.31253566045E+02  0.00000000000E+00 0.  1.
         23    2    1    2    0    0  0.29655130166E+02 -0.42479278564E+02  0.87527299185E+02  0.13481545021E+03  0.88488765724E+02 0.  0.
         24    2    1    2    0    0 -0.35052450803E+02  0.21626860763E+02  0.34496059955E+03  0.35469610051E+03  0.71520018585E+02 0.  0.
        -11    1    4    4    0    0 -0.11552972813E+02  0.45963372654E+02  0.16934826448E+03  0.17585487622E+03  0.00000000000E+00 0.  1.
         12    1    4    4    0    0 -0.23499477990E+02 -0.24336511891E+02  0.17561233507E+03  0.17884122429E+03  0.00000000000E+00 0. -1.
        -13    1    3    3    0    0  0.49307342372E+02 -0.47467433492E+02  0.31713176749E+02  0.75432730519E+02  0.00000000000E+00 0.  1.
         13    1    3    3    0    0 -0.19652212205E+02  0.49881549277E+01  0.55814122436E+02  0.59382719688E+02  0.00000000000E+00 0. -1.
         21    1    1    2  502  501  0.53973206364E+01  0.20852417801E+02  0.39562999687E+02  0.45046479801E+02  0.00000000000E+00 0. -1.
<scales pt_clust_5="13000.00000" pt_clust_6="13000.00000" pt_clust_7="13000.00000" pt_clust_8="13000.00000" pt_clust_9="21.53960"></scales>
<clustering>
<clus scale="   21.540">  2  9  1 -1</clus>
<clus scale="   71.520">  5  6 -1 -1</clus>
<clus scale="   83.153">  1  5  2 -1</clus>
<clus scale="   88.489">  7  8 -1 -1</clus>
<clus scale="   83.153">  1  5  2 -1</clus>
</clustering>
</event>
<event>
 9    2  0.2869112E-005  0.1081343E+03  0.7546771E-02  0.1267352E+00
         -1   -1    0    0    0  501 -0.00000000000E+00  0.00000000000E+00  0.36501228530E+03  0.36501228530E+03  0.00000000000E+00 0.  1.
          2   -1    0    0  502    0  0.00000000000E+00 -0.00000000000E+00 -0.16220304020E+03  0.16220304020E+03  0.00000000000E+00 0. -1.
         23    2    1    2    0    0 -0.52039718115E+02  0.11060488672E+02  0.11347861636E+03  0.15409692826E+03  0.89654895335E+02 0.  0.
         24    2    1    2    0    0  0.12613607836E+02  0.53132003661E+02 -0.11208365415E+03  0.15807698822E+03  0.97177547626E+02 0.  0.
        -13    1    4    4    0    0  0.32338416613E+02 -0.17917568322E+02 -0.28969040266E+02  0.46968263088E+02  0.00000000000E+00 0.  1.
         14    1    4    4    0    0 -0.19724808777E+02  0.71049571983E+02 -0.83114613880E+02  0.11110872513E+03  0.00000000000E+00 0. -1.
        -11    1    3    3    0    0 -0.99483246669E+01  0.46726817345E+02  0.40630819256E+02  0.62715453409E+02  0.00000000000E+00 0. -1.
         11    1    3    3    0    0 -0.42091393448E+02 -0.35666328673E+02  0.72847797105E+02  0.91381474854E+02  0.00000000000E+00 0.  1.
         21    1    1    2  502  501  0.39426110279E+02 -0.64192492333E+02  0.20141428289E+03  0.21504140902E+03  0.00000000000E+00 0.  1.
<scales pt_clust_5="13000.00000" pt_clust_6="13000.00000" pt_clust_7="13000.00000" pt_clust_8="13000.00000" pt_clust_9="75.33322"></scales>
<clustering>
<clus scale="   75.333">  1  9  2 -1</clus>
<clus scale="   89.655">  7  8 -1 -1</clus>
<clus scale="   97.178">  5  6 -1 -1</clus>
<clus scale="  101.428">  1  7  2 -1</clus>
<clus scale="  108.134">  2  5  1 -1</clus>
</clustering>
</event>
<event>
 9    2  0.2869112E-005  0.9250405E+02  0.7546771E-02  0.1302515E+00
         -1   -1    0    0    0  501 -0.00000000000E+00  0.00000000000E+00  0.83305623283E+02  0.83305623283E+02  0.00000000000E+00 0.  1.
          2   -1    0    0  502    0  0.00000000000E+00 -0.00000000000E+00 -0.43323087676E+03  0.43323087676E+03  0.00000000000E+00 0. -1.
         23    2    1    2    0    0  0.81729297220E+01  0.72762934165E+01  0.40234117531E+02  0.10068183613E+03  0.91642275655E+02 0.  0.
         24    2    1    2    0    0 -0.43167507965E+02  0.59738206216E+01 -0.34409370472E+03  0.35650627186E+03  0.82444672182E+02 0.  0.
        -13    1    4    4    0    0 -0.35086776878E+02 -0.33001785316E+02 -0.12770943493E+03  0.13649138989E+03  0.00000000000E+00 0.  1.
         14    1    4    4    0    0 -0.80807310870E+01  0.38975605938E+02 -0.21638426979E+03  0.22001488196E+03  0.00000000000E+00 0. -1.
        -13    1    3    3    0    0 -0.14472992835E+02  0.42897624302E+02  0.47199669465E+01  0.45518697042E+02  0.00000000000E+00 0. -1.
         13    1    3    3    0    0  0.22645922557E+02 -0.35621330886E+02  0.35514150584E+02  0.55163139090E+02  0.00000000000E+00 0.  1.
         21    1    1    2  502  501  0.34994578243E+02 -0.13250114038E+02 -0.46065666287E+02  0.59348392049E+02  0.00000000000E+00 0. -1.
<scales pt_clust_5="13000.00000" pt_clust_6="13000.00000" pt_clust_7="13000.00000" pt_clust_8="13000.00000" pt_clust_9="37.41906"></scales>
<clustering>
<clus scale="   37.419">  2  9  1 -1</clus>
<clus scale="   82.445">  5  6 -1 -1</clus>
<clus scale="   83.402">  2  5  1 -1</clus>
<clus scale="   91.642">  7  8 -1 -1</clus>
<clus scale="   37.419">  2  5  1 -1</clus>
</clustering>
</event>
<event>
 9    2  0.2869112E-005  0.1066846E+03  0.7546771E-02  0.1269970E+00
         -1   -1    0    0    0  501 -0.00000000000E+00  0.00000000000E+00  0.29783077666E+03  0.29783077666E+03  0.00000000000E+00 0.  1.
          2   -1    0    0  502    0  0.00000000000E+00 -0.00000000000E+00 -0.23894312007E+03  0.23894312007E+03  0.00000000000E+00 0. -1.
         23    2    1    2    0    0 -0.14671807452E+02  0.51860964660E+02  0.14644118824E+03  0.18080348815E+03  0.91323918688E+02 0.  0.
         24    2    1    2    0    0  0.58083269054E+02  0.80857066466E+01 -0.19807331372E+03  0.22295619644E+03  0.83889112088E+02 0.  0.
        -13    1    4    4    0    0  0.20515483573E+02  0.43329599839E+02 -0.12201878161E+03  0.13109890295E+03  0.00000000000E+00 0.  1.
         14    1    4    4    0    0  0.37567785482E+02 -0.35243893192E+02 -0.76054532113E+02  0.91857293496E+02  0.00000000000E+00 0. -1.
        -13    1    3    3    0    0 -0.24697841782E+02 -0.11282429084E+02  0.94818761214E+02  0.98629985669E+02  0.00000000000E+00 0. -1.
         13    1    3    3    0    0  0.10026034330E+02  0.63143393744E+02  0.51622427022E+02  0.82173502478E+02  0.00000000000E+00 0.  1.
         21    1    1    2  502  501 -0.43411461602E+02 -0.59946671307E+02  0.11051978208E+03  0.13301421213E+03  0.00000000000E+00 0. -1.
<scales pt_clust_5="13000.00000" pt_clust_6="13000.00000" pt_clust_7="13000.00000" pt_clust_8="13000.00000" pt_clust_9="74.01458"></scales>
<clustering>
<clus scale="   74.015">  1  9  2 -1</clus>
<clus scale="   83.889">  5  6 -1 -1</clus>
<clus scale="   91.324">  7  8 -1 -1</clus>
<clus scale="  100.394">  2  5  1 -1</clus>
<clus scale="  100.394">  2  5  1 -1</clus>
</clustering>
</event>
<event>
 9    2  0.2869112E-005  0.9057662E+02  0.7546771E-02  0.1302285E+00
          2   -1    0    0  502    0  0.00000000000E+00  0.00000000000E+00  0.44801713076E+03  0.44801713076E+03  0.00000000000E+00 0. -1.
         -1   -1    0    0    0  501 -0.00000000000E+00 -0.00000000000E+00 -0.86608138101E+02  0.86608138101E+02  0.00000000000E+00 0.  1.
         23    2    1    2    0    0  0.38186726872E+02  0.29662459818E+02  0.43210091238E+02  0.10657009686E+03  0.84569414846E+02 0.  0.
         24    2    1    2    0    0 -0.22361383676E+01 -0.31887331128E+02  0.36116972787E+03  0.37198479843E+03  0.83110262505E+02 0.  0.
        -13    1    4    4    0    0  0.38743963024E+02 -0.61893256768E+01  0.19548731786E+03  0.19938579154E+03  0.00000000000E+00 0.  1.
         14    1    4    4    0    0 -0.40980101391E+02 -0.25698005451E+02  0.16568241001E+03  0.17259900690E+03  0.00000000000E+00 0. -1.
        -13    1    3    3    0    0 -0.26308669878E+02  0.17232085909E+02  0.17847359194E+02  0.36161016658E+02  0.00000000000E+00 0. -1.
         13    1    3    3    0    0  0.64495396750E+02  0.12430373909E+02  0.25362732044E+02  0.70409080197E+02  0.00000000000E+00 0.  1.
         21    1    1    2  502  501 -0.35950588504E+02  0.22248713095E+01 -0.42970826454E+02  0.56070373570E+02  0.00000000000E+00 0.  1.
<scales pt_clust_5="13000.00000" pt_clust_6="13000.00000" pt_clust_7="13000.00000" pt_clust_8="13000.00000" pt_clust_9="36.01937"></scales>
<clustering>
<clus scale="   36.019">  2  9  1 -1</clus>
<clus scale="   83.110">  5  6 -1 -1</clus>
<clus scale="   84.569">  7  8 -1 -1</clus>
<clus scale="   89.216">  1  5  2 -1</clus>
<clus scale="   89.216">  1  5  2 -1</clus>
</clustering>
</event>
<event>
 9    2  0.2869112E-005  0.1924333E+03  0.7546771E-02  0.1157344E+00
          2   -1    0    0  502    0  0.00000000000E+00  0.00000000000E+00  0.11352981229E+04  0.11352981229E+04  0.00000000000E+00 0. -1.
         -1   -1    0    0    0  501 -0.00000000000E+00 -0.00000000000E+00 -0.20999877615E+03  0.20999877615E+03  0.00000000000E+00 0.  1.
         23    2    1    2    0    0  0.57938011823E+02  0.18051362461E+03  0.11635157544E+03  0.24035769673E+03  0.91061250723E+02 0.  0.
         24    2    1    2    0    0  0.20913301703E+02 -0.16749754534E+03  0.93618164832E+03  0.95468805443E+03  0.80625112377E+02 0.  0.
        -11    1    4    4    0    0  0.33220327595E+02 -0.77042626479E+02  0.28353060012E+03  0.29568354311E+03  0.00000000000E+00 0.  1.
         12    1    4    4    0    0 -0.12307025892E+02 -0.90454918860E+02  0.65265104820E+03  0.65900451132E+03  0.00000000000E+00 0. -1.
        -13    1    3    3    0    0  0.21067342397E+02  0.92173078410E+02  0.66807587525E+01  0.94785768113E+02  0.00000000000E+00 0.  1.
         13    1    3    3    0    0  0.36870669426E+02  0.88340546205E+02  0.10967081669E+03  0.14557192861E+03  0.00000000000E+00 0. -1.
         21    1    1    2  502  501 -0.78851313526E+02 -0.13016079276E+02 -0.12723387704E+03  0.15025114786E+03  0.00000000000E+00 0.  1.
<scales pt_clust_5="13000.00000" pt_clust_6="13000.00000" pt_clust_7="13000.00000" pt_clust_8="13000.00000" pt_clust_9="79.91838"></scales>
<clustering>
<clus scale="   79.918">  2  9  1 -1</clus>
<clus scale="   80.625">  5  6 -1 -1</clus>
<clus scale="   91.061">  7  8 -1 -1</clus>
<clus scale="  187.720">  1  5  2 -1</clus>
<clus scale="  187.720">  1  5  2 -1</clus>
</clustering>
</event>
<event>
 9    2  0.4857878E-005  0.1228494E+03  0.7546771E-02  0.1245082E+00
         -1   -1    0    0    0  501 -0.00000000000E+00  0.00000000000E+00  0.25756689249E+03  0.25756689249E+03  0.00000000000E+00 0.  1.
          2   -1    0    0  502    0  0.00000000000E+00 -0.00000000000E+00 -0.23117533807E+03  0.23117533807E+03  0.00000000000E+00 0. -1.
         24    2    1    2    0    0 -0.18373796042E+02 -0.54570632281E+02  0.18874416545E+03  0.21117883590E+03  0.75210308141E+02 0.  0.
         23    2    1    2    0    0  0.28703361302E+02  0.73001857172E+02 -0.19948517464E+03  0.23484059923E+03  0.95930276995E+02 0.  0.
        -13    1    3    3    0    0  0.17092154744E+02 -0.13666664871E+02  0.12780343980E+03  0.12966355967E+03  0.00000000000E+00 0.  1.
         14    1    3    3    0    0 -0.35465950786E+02 -0.40903967409E+02  0.60940725651E+02  0.81515276224E+02  0.00000000000E+00 0. -1.
        -11    1    4    4    0    0 -0.94909120004E+01  0.22543621429E+02  0.11246034790E+01  0.24485853277E+02  0.00000000000E+00 0.  1.
         11    1    4    4    0    0  0.38194273302E+02  0.50458235743E+02 -0.20060977812E+03  0.21035474595E+03  0.00000000000E+00 0. -1.
         21    1    1    2  502  501 -0.10329565259E+02 -0.18431224891E+02  0.37132563611E+02  0.42722795435E+02  0.00000000000E+00 0.  1.
<scales pt_clust_5="13000.00000" pt_clust_6="13000.00000" pt_clust_7="13000.00000" pt_clust_8="13000.00000" pt_clust_9="21.12842"></scales>
<clustering>
<clus scale="   21.128">  1  9  2 -1</clus>
<clus scale="   75.210">  5  6 -1 -1</clus>
<clus scale="   95.930">  7  8 -1 -1</clus>
<clus scale="  107.452">  1  5  2 -1</clus>
<clus scale="  122.849">  2  5  1 -1</clus>
</clustering>
</event>
<event>
 9    2  0.2869112E-005  0.9271585E+02  0.7546771E-02  0.1304338E+00
          2   -1    0    0  502    0  0.00000000000E+00  0.00000000000E+00  0.18093547886E+03  0.18093547886E+03  0.00000000000E+00 0. -1.
         -1   -1    0    0    0  501 -0.00000000000E+00 -0.00000000000E+00 -0.91634459867E+02  0.91634459867E+02  0.00000000000E+00 0.  1.
         23    2    1    2    0    0  0.33319045073E+02 -0.67566373650E+01 -0.21608626688E+02  0.99607250397E+02  0.91098082697E+02 0.  0.
         24    2    1    2    0    0 -0.17309123786E+01 -0.20594246492E+02  0.10207483324E+03  0.13025513765E+03  0.78230494413E+02 0.  0.
        -13    1    4    4    0    0 -0.26491314340E+02  0.14898206728E+02  0.70232754047E+02  0.76527028168E+02  0.00000000000E+00 0.  1.
         14    1    4    4    0    0  0.24760401961E+02 -0.35492453220E+02  0.31842079193E+02  0.53728109479E+02  0.00000000000E+00 0. -1.
        -11    1    3    3    0    0  0.55227689614E+02 -0.30824109950E+02 -0.22273273411E+02  0.67054620741E+02  0.00000000000E+00 0.  1.
         11    1    3    3    0    0 -0.21908644540E+02  0.24067472585E+02  0.66464672288E+00  0.32552629656E+02  0.00000000000E+00 0. -1.
         21    1    1    2  502  501 -0.31588132695E+02  0.27350883856E+02  0.88348124453E+01  0.42707550689E+02  0.00000000000E+00 0. -1.
<scales pt_clust_5="13000.00000" pt_clust_6="13000.00000" pt_clust_7="13000.00000" pt_clust_8="13000.00000" pt_clust_9="41.78374"></scales>
<clustering>
<clus scale="   41.784">  2  9  1 -1</clus>
<clus scale="   78.230">  5  6 -1 -1</clus>
<clus scale="   80.109">  1  5  2 -1</clus>
<clus scale="   91.098">  7  8 -1 -1</clus>
<clus scale="   80.109">  1  5  2 -1</clus>
</clustering>
</event>
<event>
 9    2  0.2869112E-005  0.9447235E+02  0.7546771E-02  0.1296887E+00
         -1   -1    0    0    0  501 -0.00000000000E+00  0.00000000000E+00  0.49614394701E+02  0.49614394701E+02  0.00000000000E+00 0.  1.
          2   -1    0    0  502    0  0.00000000000E+00 -0.00000000000E+00 -0.29940652700E+03  0.29940652700E+03  0.00000000000E+00 0. -1.
         24    2    1    2    0    0  0.92443181615E+01  0.90921405389E+01 -0.71158566226E+02  0.10887167440E+03  0.81371834822E+02 0.  0.
         23    2    1    2    0    0 -0.39709949614E+02 -0.15243624807E+02 -0.18365797657E+03  0.20866528059E+03  0.89452215001E+02 0.  0.
        -13    1    3    3    0    0  0.36721254512E+01 -0.20222393053E+02  0.96676511893E+01  0.22713281702E+02  0.00000000000E+00 0.  1.
         14    1    3    3    0    0  0.55721927103E+01  0.29314533592E+02 -0.80826217416E+02  0.86158392703E+02  0.00000000000E+00 0. -1.
        -13    1    4    4    0    0  0.27000699935E+02 -0.16803803698E+02 -0.69597350558E+02  0.76519257840E+02  0.00000000000E+00 0.  1.
         13    1    4    4    0    0 -0.66710649548E+02  0.15601788919E+01 -0.11406062602E+03  0.13214602275E+03  0.00000000000E+00 0. -1.
         21    1    1    2  502  501  0.30465631452E+02  0.61514842676E+01  0.50244105045E+01  0.31483966704E+02  0.00000000000E+00 0.  1.
<scales pt_clust_5="13000.00000" pt_clust_6="13000.00000" pt_clust_7="13000.00000" pt_clust_8="13000.00000" pt_clust_9="31.08047"></scales>
<clustering>
<clus scale="   31.080">  1  9  2 -1</clus>
<clus scale="   81.372">  5  6 -1 -1</clus>
<clus scale="   86.860">  1  5  2 -1</clus>
<clus scale="   89.452">  7  8 -1 -1</clus>
<clus scale="   94.472">  2  5  1 -1</clus>
</clustering>
</event>
<event>
 9    2  0.2869112E-005  0.9699898E+02  0.7546771E-02  0.1287653E+00
          2   -1    0    0  502    0  0.00000000000E+00  0.00000000000E+00  0.30173789019E+03  0.30173789019E+03  0.00000000000E+00 0. -1.
         -1   -1    0    0    0  501 -0.00000000000E+00 -0.00000000000E+00 -0.46866107616E+02  0.46866107616E+02  0.00000000000E+00 0.  1.
         23    2    1    2    0    0  0.22080122669E+02  0.31020403325E+02  0.49183545883E+02  0.10993259151E+03  0.90644118678E+02 0.  0.
         24    2    1    2    0    0 -0.26263282186E+00 -0.28005795006E+02  0.18385407355E+03  0.20765816063E+03  0.92386134165E+02 0.  0.
        -13    1    4    4    0    0  0.92184841074E+01 -0.23867989602E+02  0.21682316473E+01  0.25678056884E+02  0.00000000000E+00 0.  1.
         14    1    4    4    0    0 -0.94811169293E+01 -0.41378054046E+01  0.18168584191E+03  0.18198010375E+03  0.00000000000E+00 0. -1.
        -13    1    3    3    0    0  0.70747724073E+01 -0.31096837093E+02  0.28483900591E+02  0.42759774025E+02  0.00000000000E+00 0. -1.
         13    1    3    3    0    0  0.15005350262E+02  0.62117240418E+02  0.20699645293E+02  0.67172817485E+02  0.00000000000E+00 0.  1.
         21    1    1    2  502  501 -0.21817489847E+02 -0.30146083191E+01  0.21834163139E+02  0.31013245662E+02  0.00000000000E+00 0.  1.
<scales pt_clust_5="13000.00000" pt_clust_6="13000.00000" pt_clust_7="13000.00000" pt_clust_8="13000.00000" pt_clust_9="22.02478"></scales>
<clustering>
<clus scale="   22.025">  2  9  1 -1</clus>
<clus scale="   90.644">  7  8 -1 -1</clus>
<clus scale="   92.386">  5  6 -1 -1</clus>
<clus scale="   95.341">  2  7  1 -1</clus>
<clus scale="   96.999">  1  5  2 -1</clus>
</clustering>
</event>
<event>
 9    2  0.2869112E-005  0.3120700E+03  0.7546771E-02  0.1079718E+00
         -1   -1    0    0    0  501 -0.00000000000E+00  0.00000000000E+00  0.11496653081E+03  0.11496653081E+03  0.00000000000E+00 0.  1.
          2   -1    0    0  502    0  0.00000000000E+00 -0.00000000000E+00 -0.12978428221E+04  0.12978428221E+04  0.00000000000E+00 0. -1.
         23    2    1    2    0    0 -0.14416482748E+03 -0.26162019694E+03 -0.25007851182E+03  0.40028557168E+03  0.91981801986E+02 0.  0.
         24    2    1    2    0    0  0.16538190426E+03  0.24825865615E+03 -0.93737258910E+03  0.98703605871E+03  0.81174354202E+02 0.  0.
        -11    1    4    4    0    0  0.74235286311E+02  0.13049692716E+03 -0.34536061720E+03  0.37658237033E+03  0.00000000000E+00 0.  1.
         12    1    4    4    0    0  0.91146617949E+02  0.11776172900E+03 -0.59201197189E+03  0.61045368837E+03  0.00000000000E+00 0. -1.
        -11    1    3    3    0    0 -0.44307717072E+02 -0.16102852404E+03 -0.10401410105E+03  0.19675439656E+03  0.00000000000E+00 0.  1.
         11    1    3    3    0    0 -0.99857110410E+02 -0.10059167290E+03 -0.14606441077E+03  0.20353117513E+03  0.00000000000E+00 0. -1.
         21    1    1    2  502  501 -0.21217076778E+02  0.13361540782E+02  0.45748095737E+01  0.25487722568E+02  0.00000000000E+00 0. -1.
<scales pt_clust_5="13000.00000" pt_clust_6="13000.00000" pt_clust_7="13000.00000" pt_clust_8="13000.00000" pt_clust_9="25.07379"></scales>
<clustering>
<clus scale="   25.074">  1  9  2 -1</clus>
<clus scale="   81.174">  5  6 -1 -1</clus>
<clus scale="   91.982">  7  8 -1 -1</clus>
<clus scale="  309.057">  2  5  1 -1</clus>
<clus scale="  309.057">  2  5  1 -1</clus>
</clustering>
</event>
<event>
 9    2  0.4454772E-005  0.1223272E+03  0.7546771E-02  0.1242271E+00
         -3   -1    0    0    0  501 -0.00000000000E+00  0.00000000000E+00  0.60394275879E+03  0.60394275879E+03  0.00000000000E+00 0.  1.
          4   -1    0    0  502    0  0.00000000000E+00 -0.00000000000E+00 -0.10183959822E+03  0.10183959822E+03  0.00000000000E+00 0. -1.
         24    2    1    2    0    0 -0.68363654883E+02 -0.20344105684E+02  0.52032276846E+03  0.53152692308E+03  0.81838955522E+02 0.  0.
         23    2    1    2    0    0  0.82054710935E+02 -0.14908454249E+01 -0.50489107247E+02  0.13295736262E+03  0.91615021238E+02 0.  0.
        -11    1    3    3    0    0 -0.81095922842E+02 -0.24706297251E+02  0.50010218054E+03  0.50723676997E+03  0.00000000000E+00 0.  1.
         12    1    3    3    0    0  0.12732267959E+02  0.43621915675E+01  0.20220587919E+02  0.24290153117E+02  0.00000000000E+00 0. -1.
        -11    1    4    4    0    0  0.54556609680E+02  0.43822028668E+02 -0.29826276303E+02  0.76068394320E+02  0.00000000000E+00 0. -1.
         11    1    4    4    0    0  0.27498101256E+02 -0.45312874093E+02 -0.20662830944E+02  0.56888968296E+02  0.00000000000E+00 0.  1.
         21    1    1    2  502  501 -0.13691056053E+02  0.21834951109E+02  0.32269499350E+02  0.41298071312E+02  0.00000000000E+00 0.  1.
<scales pt_clust_5="13000.00000" pt_clust_6="13000.00000" pt_clust_7="13000.00000" pt_clust_8="13000.00000" pt_clust_9="25.77227"></scales>
<clustering>
<clus scale="   25.772">  1  9  2 -1</clus>
<clus scale="   81.839">  5  6 -1 -1</clus>
<clus scale="   91.615">  7  8 -1 -1</clus>
<clus scale="  115.188">  1  5  2 -1</clus>
<clus scale="  122.327">  2  5  1 -1</clus>
</clustering>
</event>
<event>
 9    2  0.2869112E-005  0.1706264E+03  0.7546771E-02  0.1178420E+00
         -1   -1    0    0    0  501 -0.00000000000E+00  0.00000000000E+00  0.14200510150E+03  0.14200510150E+03  0.00000000000E+00 0.  1.
          2   -1    0    0  502    0  0.00000000000E+00 -0.00000000000E+00 -0.43791039824E+03  0.43791039824E+03  0.00000000000E+00 0. -1.
         23    2    1    2    0    0  0.14995248800E+03 -0.11572455026E+03 -0.74773492585E+02  0.22304448096E+03  0.90993654188E+02 0.  0.
         24    2    1    2    0    0 -0.56308376427E+02  0.12114536289E+03 -0.21054706547E+03  0.26247482429E+03  0.81952025033E+02 0.  0.
        -11    1    4    4    0    0 -0.28585084033E+02 -0.26675080516E+01 -0.27506671798E+02  0.39759773915E+02  0.00000000000E+00 0.  1.
         12    1    4    4    0    0 -0.27723292394E+02  0.12381287094E+03 -0.18304039367E+03  0.22271505038E+03  0.00000000000E+00 0. -1.
        -13    1    3    3    0    0  0.15301612747E+02 -0.20740985900E+02 -0.50215063519E+02  0.56443604182E+02  0.00000000000E+00 0. -1.
         13    1    3    3    0    0  0.13465087525E+03 -0.94983564356E+02 -0.24558429066E+02  0.16660087677E+03  0.00000000000E+00 0.  1.
         21    1    1    2  502  501 -0.93644111570E+02 -0.54208126290E+01 -0.10584738689E+02  0.94396194491E+02  0.00000000000E+00 0.  1.
<scales pt_clust_5="13000.00000" pt_clust_6="13000.00000" pt_clust_7="13000.00000" pt_clust_8="13000.00000" pt_clust_9="93.80088"></scales>
<clustering>
<clus scale="   81.952">  5  6 -1 -1</clus>
<clus scale="   90.994">  7  8 -1 -1</clus>
<clus scale="   93.801">  1  9  2 -1</clus>
<clus scale="  165.981">  2  5  1 -1</clus>
<clus scale="  165.981">  2  5  1 -1</clus>
</clustering>
</event>
<event>
 9    2  0.2869112E-005  0.1206818E+03  0.7546771E-02  0.1245222E+00
          2   -1    0    0  502    0  0.00000000000E+00  0.00000000000E+00  0.13683855005E+03  0.13683855005E+03  0.00000000000E+00 0. -1.
         -1   -1    0    0    0  501 -0.00000000000E+00 -0.00000000000E+00 -0.28791485291E+03  0.28791485291E+03  0.00000000000E+00 0.  1.
         24    2    1    2    0    0 -0.97993992918E+01  0.50575338448E+02 -0.15069027824E+03  0.17823637777E+03  0.80042197111E+02 0.  0.
         23    2    1    2    0    0 -0.33519673771E+02 -0.80621236886E+02  0.80963410732E+02  0.14957875239E+03  0.90528321099E+02 0.  0.
        -11    1    3    3    0    0 -0.13858450503E+02  0.33507211740E+02 -0.15579955382E+03  0.15996340475E+03  0.00000000000E+00 0.  1.
         12    1    3    3    0    0  0.40590512109E+01  0.17068126709E+02  0.51092755769E+01  0.18272973020E+02  0.00000000000E+00 0. -1.
        -13    1    4    4    0    0 -0.12022575387E+02 -0.77064522492E+02  0.14108217242E+02  0.79262379094E+02  0.00000000000E+00 0.  1.
         13    1    4    4    0    0 -0.21497098383E+02 -0.35567143937E+01  0.66855193490E+02  0.70316373291E+02  0.00000000000E+00 0. -1.
         21    1    1    2  502  501  0.43319073062E+02  0.30045898438E+02 -0.81349435347E+02  0.96938272809E+02  0.00000000000E+00 0.  1.
<scales pt_clust_5="13000.00000" pt_clust_6="13000.00000" pt_clust_7="13000.00000" pt_clust_8="13000.00000" pt_clust_9="52.71905"></scales>
<clustering>
<clus scale="   52.719">  2  9  1 -1</clus>
<clus scale="   80.042">  5  6 -1 -1</clus>
<clus scale="   90.528">  7  8 -1 -1</clus>
<clus scale="  113.029">  2  5  1 -1</clus>
<clus scale="  120.682">  1  5  2 -1</clus>
</clustering>
</event>
<event>
 9    2  0.2869112E-005  0.9073875E+02  0.7546771E-02  0.1309332E+00
          2   -1    0    0  502    0  0.00000000000E+00  0.00000000000E+00  0.47682016655E+03  0.47682016655E+03  0.00000000000E+00 0. -1.
         -1   -1    0    0    0  501 -0.00000000000E+00 -0.00000000000E+00 -0.10295733156E+03  0.10295733156E+03  0.00000000000E+00 0.  1.
         23    2    1    2    0    0  0.48200022104E+01  0.17944545736E+02 -0.86310961445E+01  0.92507193627E+02  0.90210010028E+02 0.  0.
         24    2    1    2    0    0  0.10139630643E+02 -0.24056955748E+01  0.42897583159E+03  0.43602761183E+03  0.77402937388E+02 0.  0.
        -13    1    4    4    0    0 -0.17373153155E+02  0.16214155970E+02  0.47548102712E+02  0.53155878093E+02  0.00000000000E+00 0.  1.
         14    1    4    4    0    0  0.27512783797E+02 -0.18619851545E+02  0.38142772887E+03  0.38287173374E+03  0.00000000000E+00 0. -1.
        -13    1    3    3    0    0  0.22875563330E+02  0.31069614222E+02  0.29333054529E+02  0.48466900185E+02  0.00000000000E+00 0. -1.
         13    1    3    3    0    0 -0.18055561120E+02 -0.13125068486E+02 -0.37964150673E+02  0.44040293442E+02  0.00000000000E+00 0.  1.
         21    1    1    2  502  501 -0.14959632853E+02 -0.15538850161E+02 -0.46481900454E+02  0.51242692642E+02  0.00000000000E+00 0.  1.
<scales pt_clust_5="13000.00000" pt_clust_6="13000.00000" pt_clust_7="13000.00000" pt_clust_8="13000.00000" pt_clust_9="21.56957"></scales>
<clustering>
<clus scale="   21.570">  2  9  1 -1</clus>
<clus scale="   77.403">  5  6 -1 -1</clus>
<clus scale="   78.019">  1  5  2 -1</clus>
<clus scale="   90.210">  7  8 -1 -1</clus>
<clus scale="   78.019">  1  5  2 -1</clus>
</clustering>
</event>
<event>
 9    2  0.2869112E-005  0.1011364E+03  0.7546771E-02  0.1279319E+00
         -1   -1    0    0    0  501 -0.00000000000E+00  0.00000000000E+00  0.11122445842E+03  0.11122445842E+03  0.00000000000E+00 0.  1.
          2   -1    0    0  502    0  0.00000000000E+00 -0.00000000000E+00 -0.17892926884E+03  0.17892926884E+03  0.00000000000E+00 0. -1.
         23    2    1    2    0    0  0.37504837766E+02 -0.64346252480E+02  0.35549452936E+02  0.11669749102E+03  0.82507501133E+02 0.  0.
         24    2    1    2    0    0 -0.86921383047E+01  0.54793677657E+02 -0.10536494701E+03  0.14302798749E+03  0.79229620522E+02 0.  0.
        -13    1    4    4    0    0 -0.29139267689E+02  0.36744423801E+02 -0.15931744582E+02  0.49528477539E+02  0.00000000000E+00 0.  1.
         14    1    4    4    0    0  0.20447129384E+02  0.18049253856E+02 -0.89433202429E+02  0.93499509953E+02  0.00000000000E+00 0. -1.
        -13    1    3    3    0    0 -0.24203966236E+02 -0.68305220248E+01  0.16911263692E+02  0.30306416026E+02  0.00000000000E+00 0.  1.
         13    1    3    3    0    0  0.61708804001E+02 -0.57515730455E+02  0.18638189244E+02  0.86391074998E+02  0.00000000000E+00 0. -1.
         21    1    1    2  502  501 -0.28812699461E+02  0.95525748229E+01  0.21106836596E+01  0.30428248742E+02  0.00000000000E+00 0.  1.
<scales pt_clust_5="13000.00000" pt_clust_6="13000.00000" pt_clust_7="13000.00000" pt_clust_8="13000.00000" pt_clust_9="30.35496"></scales>
<clustering>
<clus scale="   30.355">  1  9  2 -1</clus>
<clus scale="   79.230">  5  6 -1 -1</clus>
<clus scale="   82.508">  7  8 -1 -1</clus>
<clus scale="   98.481">  2  5  1 -1</clus>
<clus scale="   98.481">  2  5  1 -1</clus>
</clustering>
</event>
<event>
 9    2  0.2869112E-005  0.1001711E+03  0.7546771E-02  0.1286354E+00
         -1   -1    0    0    0  501 -0.00000000000E+00  0.00000000000E+00  0.11188088800E+03  0.11188088800E+03  0.00000000000E+00 0.  1.
          2   -1    0    0  502    0  0.00000000000E+00 -0.00000000000E+00 -0.27646019780E+03  0.27646019780E+03  0.00000000000E+00 0. -1.
         23    2    1    2    0    0  0.26538048540E+02 -0.25575604873E+02 -0.72465926153E+02  0.12336418488E+03  0.92784869856E+02 0.  0.
         24    2    1    2    0    0 -0.39009131612E+02 -0.38533676257E+02 -0.14930479628E+03  0.17816454282E+03  0.80275311096E+02 0.  0.
        -13    1    4    4    0    0 -0.22379257686E+02 -0.77317858153E+01  0.11365381716E+01  0.23704501798E+02  0.00000000000E+00 0.  1.
         14    1    4    4    0    0 -0.16629873926E+02 -0.30801890442E+02 -0.15044133445E+03  0.15446004102E+03  0.00000000000E+00 0. -1.
        -13    1    3    3    0    0  0.56647730199E+02 -0.22161700952E+02 -0.22360399117E+02  0.64808130466E+02  0.00000000000E+00 0. -1.
         13    1    3    3    0    0 -0.30109681659E+02 -0.34139039210E+01 -0.50105527036E+02  0.58556054419E+02  0.00000000000E+00 0.  1.
         21    1    1    2  502  501  0.12471083072E+02  0.64109281129E+02  0.57191412635E+02  0.86812358101E+02  0.00000000000E+00 0.  1.
<scales pt_clust_5="13000.00000" pt_clust_6="13000.00000" pt_clust_7="13000.00000" pt_clust_8="13000.00000" pt_clust_9="65.31101"></scales>
<clustering>
<clus scale="   65.311">  1  9  2 -1</clus>
<clus scale="   80.275">  5  6 -1 -1</clus>
<clus scale="   88.709">  2  5  1 -1</clus>
<clus scale="   92.785">  7  8 -1 -1</clus>
<clus scale="   88.709">  2  5  1 -1</clus>
</clustering>
</event>
<event>
 9    2  0.2869112E-005  0.1626839E+03  0.7546771E-02  0.1187442E+00
          2   -1    0    0  502    0  0.00000000000E+00  0.00000000000E+00  0.48486545263E+03  0.48486545263E+03  0.00000000000E+00 0. -1.
         -1   -1    0    0    0  501 -0.00000000000E+00 -0.00000000000E+00 -0.10491340237E+03  0.10491340237E+03  0.00000000000E+00 0.  1.
         24    2    1    2    0    0  0.10197737273E+03  0.10898547804E+03  0.41213790886E+02  0.17498441306E+03  0.81509197529E+02 0.  0.
         23    2    1    2    0    0 -0.92637056924E+02 -0.90676235350E+02  0.35462415371E+03  0.38881692268E+03  0.92825131263E+02 0.  0.
        -11    1    3    3    0    0  0.11381348201E+03  0.10702914706E+03  0.31111084078E+02  0.15930049140E+03  0.00000000000E+00 0.  1.
         12    1    3    3    0    0 -0.11836109281E+02  0.19563309846E+01  0.10102706808E+02  0.15683921661E+02  0.00000000000E+00 0. -1.
        -11    1    4    4    0    0 -0.59145460034E+01 -0.38048756173E+02  0.30297956770E+02  0.48996488498E+02  0.00000000000E+00 0.  1.
         11    1    4    4    0    0 -0.86722510920E+02 -0.52627479177E+02  0.32432619694E+03  0.33982043418E+03  0.00000000000E+00 0. -1.
         21    1    1    2  502  501 -0.93403158068E+01 -0.18309242694E+02 -0.15885894340E+02  0.25977519249E+02  0.00000000000E+00 0. -1.
<scales pt_clust_5="13000.00000" pt_clust_6="13000.00000" pt_clust_7="13000.00000" pt_clust_8="13000.00000" pt_clust_9="20.55407"></scales>
<clustering>
<clus scale="   20.554">  2  9  1 -1</clus>
<clus scale="   81.509">  5  6 -1 -1</clus>
<clus scale="   92.825">  7  8 -1 -1</clus>
<clus scale="  156.503">  2  5  1 -1</clus>
<clus scale="  162.684">  1  5  2 -1</clus>
</clustering>
</event>
<event>
 9    2  0.2869112E-005  0.1023843E+03  0.7546771E-02  0.1281610E+00
         -1   -1    0    0    0  501 -0.00000000000E+00  0.00000000000E+00  0.68756516828E+02  0.68756516828E+02  0.00000000000E+00 0.  1.
          2   -1    0    0  502    0  0.00000000000E+00 -0.00000000000E+00 -0.32523941599E+03  0.32523941599E+03  0.00000000000E+00 0. -1.
         23    2    1    2    0    0  0.33704897267E+02 -0.50932117503E+02 -0.42128917900E+02  0.11777261132E+03  0.91462787851E+02 0.  0.
         24    2    1    2    0    0  0.71065576663E+01  0.44822389862E+02 -0.21672943631E+03  0.23488875470E+03  0.78367906236E+02 0.  0.
        -11    1    4    4    0    0 -0.15674088081E+02  0.42807406417E+02 -0.54485766038E+02  0.71041183704E+02  0.00000000000E+00 0.  1.
         12    1    4    4    0    0  0.22780645747E+02  0.20149834452E+01 -0.16224367027E+03  0.16384757100E+03  0.00000000000E+00 0. -1.
        -11    1    3    3    0    0  0.47011204819E+02  0.23041880268E+01 -0.41721400032E+02  0.62897041915E+02  0.00000000000E+00 0. -1.
         11    1    3    3    0    0 -0.13306307552E+02 -0.53236305530E+02 -0.40751786782E+00  0.54875569409E+02  0.00000000000E+00 0.  1.
         21    1    1    2  502  501 -0.40811454934E+02  0.61097276407E+01  0.23754550433E+01  0.41334566797E+02  0.00000000000E+00 0. -1.
<scales pt_clust_5="13000.00000" pt_clust_6="13000.00000" pt_clust_7="13000.00000" pt_clust_8="13000.00000" pt_clust_9="41.26625"></scales>
<clustering>
<clus scale="   41.266">  1  9  2 -1</clus>
<clus scale="   78.368">  5  6 -1 -1</clus>
<clus scale="   90.877">  2  5  1 -1</clus>
<clus scale="   91.463">  7  8 -1 -1</clus>
<clus scale="   90.877">  2  5  1 -1</clus>
</clustering>
</event>
<event>
 9    2  0.2869112E-005  0.9781284E+02  0.7546771E-02  0.1290362E+00
         -1   -1    0    0    0  501 -0.00000000000E+00  0.00000000000E+00  0.22022758849E+03  0.22022758849E+03  0.00000000000E+00 0.  1.
          2   -1    0    0  502    0  0.00000000000E+00 -0.00000000000E+00 -0.17287853927E+03  0.17287853927E+03  0.00000000000E+00 0. -1.
         23    2    1    2    0    0 -0.31543144468E+02 -0.16572524012E+01  0.16404986799E+03  0.19000080944E+03  0.90499900285E+02 0.  0.
         24    2    1    2    0    0  0.26736721209E+02 -0.27365000878E+02 -0.13983464253E+03  0.16568117248E+03  0.80204913371E+02 0.  0.
        -13    1    4    4    0    0  0.10802406947E+02  0.28307873560E+02 -0.38810740045E+02  0.49237193708E+02  0.00000000000E+00 0.  1.
         14    1    4    4    0    0  0.15934314262E+02 -0.55672874438E+02 -0.10102390249E+03  0.11644397878E+03  0.00000000000E+00 0. -1.
        -13    1    3    3    0    0 -0.78980087091E+01 -0.33519588372E+02  0.18403269931E+02  0.39046404320E+02  0.00000000000E+00 0. -1.
         13    1    3    3    0    0 -0.23645135759E+02  0.31862335970E+02  0.14564659806E+03  0.15095440512E+03  0.00000000000E+00 0.  1.
         21    1    1    2  502  501  0.48064232587E+01  0.29022253279E+02  0.23133823760E+02  0.37424145837E+02  0.00000000000E+00 0. -1.
<scales pt_clust_5="13000.00000" pt_clust_6="13000.00000" pt_clust_7="13000.00000" pt_clust_8="13000.00000" pt_clust_9="29.41756"></scales>
<clustering>
<clus scale="   29.418">  1  9  2 -1</clus>
<clus scale="   80.205">  5  6 -1 -1</clus>
<clus scale="   88.374">  2  5  1 -1</clus>
<clus scale="   90.500">  7  8 -1 -1</clus>
<clus scale="   88.374">  2  5  1 -1</clus>
</clustering>
</event>
<event>
 9    2  0.2869112E-005  0.1470846E+03  0.7546771E-02  0.1206229E+00
         -1   -1    0    0    0  501 -0.00000000000E+00  0.00000000000E+00  0.46076948083E+02  0.46076948083E+02  0.00000000000E+00 0.  1.
          2   -1    0    0  502    0  0.00000000000E+00 -0.00000000000E+00 -0.13222811518E+04  0.13222811518E+04  0.00000000000E+00 0. -1.
         23    2    1    2    0    0 -0.15231499961E+03 -0.58274060138E+02 -0.30688678450E+03  0.35938169731E+03  0.91542234347E+02 0.  0.
         24    2    1    2    0    0  0.97595851163E+02  0.42499567268E+02 -0.93057465637E+03  0.94009954504E+03  0.80540673710E+02 0.  0.
        -11    1    4    4    0    0  0.28142938798E+02  0.18884517344E+02 -0.87422267205E+02  0.93761947521E+02  0.00000000000E+00 0.  1.
         12    1    4    4    0    0  0.69452912364E+02  0.23615049924E+02 -0.84315238916E+03  0.84633759752E+03  0.00000000000E+00 0. -1.
        -11    1    3    3    0    0 -0.29217223117E+02 -0.33586131121E+01 -0.64723482282E+01  0.30113413959E+02  0.00000000000E+00 0. -1.
         11    1    3    3    0    0 -0.12309777649E+03 -0.54915447026E+02 -0.30041443628E+03  0.32926828335E+03  0.00000000000E+00 0.  1.
         21    1    1    2  502  501  0.54719148443E+02  0.15774492870E+02 -0.38742762852E+02  0.68876857543E+02  0.00000000000E+00 0. -1.
<scales pt_clust_5="13000.00000" pt_clust_6="13000.00000" pt_clust_7="13000.00000" pt_clust_8="13000.00000" pt_clust_9="56.94752"></scales>
<clustering>
<clus scale="   56.948">  1  9  2 -1</clus>
<clus scale="   80.541">  5  6 -1 -1</clus>
<clus scale="   91.542">  7  8 -1 -1</clus>
<clus scale="  140.502">  2  5  1 -1</clus>
<clus scale="  140.502">  2  5  1 -1</clus>
</clustering>
</event>
<event>
 9    2  0.2869112E-005  0.9684246E+02  0.7546771E-02  0.1294017E+00
          2   -1    0    0  502    0  0.00000000000E+00  0.00000000000E+00  0.11682995001E+04  0.11682995001E+04  0.00000000000E+00 0. -1.
         -1   -1    0    0    0  501 -0.00000000000E+00 -0.00000000000E+00 -0.77781360957E+02  0.77781360957E+02  0.00000000000E+00 0.  1.
         23    2    1    2    0    0 -0.18943052927E+02 -0.30726642022E+02 -0.27070712316E+02  0.10360935201E+03  0.93269011869E+02 0.  0.
         24    2    1    2    0    0 -0.19477596693E+02  0.18020269989E+02  0.10903896784E+04  0.10937129895E+04  0.80958914616E+02 0.  0.
        -11    1    4    4    0    0 -0.33971952085E+02 -0.65541681728E+00  0.19008457079E+03  0.19309755864E+03  0.00000000000E+00 0.  1.
         12    1    4    4    0    0  0.14494355392E+02  0.18675686806E+02  0.90030510759E+03  0.90061543090E+03  0.00000000000E+00 0. -1.
        -11    1    3    3    0    0 -0.28754081562E+02 -0.12710734230E+01 -0.54853936626E+02  0.61946486563E+02  0.00000000000E+00 0.  1.
         11    1    3    3    0    0  0.98110286353E+01 -0.29455568599E+02  0.27783224310E+02  0.41662865449E+02  0.00000000000E+00 0. -1.
         21    1    1    2  502  501  0.38420649620E+02  0.12706372034E+02  0.27199173054E+02  0.48758519484E+02  0.00000000000E+00 0. -1.
<scales pt_clust_5="13000.00000" pt_clust_6="13000.00000" pt_clust_7="13000.00000" pt_clust_8="13000.00000" pt_clust_9="40.46725"></scales>
<clustering>
<clus scale="   40.467">  2  9  1 -1</clus>
<clus scale="   80.959">  5  6 -1 -1</clus>
<clus scale="   85.051">  1  5  2 -1</clus>
<clus scale="   93.269">  7  8 -1 -1</clus>
<clus scale="   85.051">  1  5  2 -1</clus>
</clustering>
</event>
<event>
 9    2  0.2869112E-005  0.1162922E+03  0.7546771E-02  0.1253296E+00
          2   -1    0    0  502    0  0.00000000000E+00  0.00000000000E+00  0.11147192395E+04  0.11147192395E+04  0.00000000000E+00 0. -1.
         -1   -1    0    0    0  501 -0.00000000000E+00 -0.00000000000E+00 -0.39724023740E+02  0.39724023740E+02  0.00000000000E+00 0.  1.
         23    2    1    2    0    0 -0.65075822457E+02 -0.60709706698E+02  0.24527037225E+03  0.27661593758E+03  0.91860166898E+02 0.  0.
         24    2    1    2    0    0  0.59568970890E+02  0.32894242294E+02  0.84080934646E+03  0.84738242982E+03  0.80412261477E+02 0.  0.
        -13    1    4    4    0    0  0.47853410847E+02  0.51488079892E+02  0.40764949006E+03  0.41366541800E+03  0.00000000000E+00 0.  1.
         14    1    4    4    0    0  0.11715560043E+02 -0.18593837598E+02  0.43315985640E+03  0.43371701182E+03  0.00000000000E+00 0. -1.
        -11    1    3    3    0    0 -0.19609588182E+02  0.17123826950E+02  0.11686761832E+03  0.11973220791E+03  0.00000000000E+00 0.  1.
         11    1    3    3    0    0 -0.45466234275E+02 -0.77833533647E+02  0.12840275393E+03  0.15688372967E+03  0.00000000000E+00 0. -1.
         21    1    1    2  502  501  0.55068515678E+01  0.27815464404E+02 -0.11084502990E+02  0.30444895807E+02  0.00000000000E+00 0.  1.
<scales pt_clust_5="13000.00000" pt_clust_6="13000.00000" pt_clust_7="13000.00000" pt_clust_8="13000.00000" pt_clust_9="28.35534"></scales>
<clustering>
<clus scale="   28.355">  2  9  1 -1</clus>
<clus scale="   80.412">  5  6 -1 -1</clus>
<clus scale="   91.860">  7  8 -1 -1</clus>
<clus scale="  107.479">  1  5  2 -1</clus>
<clus scale="  107.479">  1  5  2 -1</clus>
</clustering>
</event>
<event>
 9    2  0.2869112E-005  0.2009180E+03  0.7546771E-02  0.1160733E+00
         -1   -1    0    0    0  501 -0.00000000000E+00  0.00000000000E+00  0.27499340955E+03  0.27499340955E+03  0.00000000000E+00 0.  1.
          2   -1    0    0  502    0  0.00000000000E+00 -0.00000000000E+00 -0.30645097387E+03  0.30645097387E+03  0.00000000000E+00 0. -1.
         24    2    1    2    0    0  0.18909390066E+03  0.10603722503E+01  0.58519373110E+02  0.21387638282E+03  0.80999768159E+02 0.  0.
         23    2    1    2    0    0 -0.29353536241E+02  0.11916706128E+03 -0.11640986989E+02  0.15283993786E+03  0.90344426730E+02 0.  0.
        -11    1    3    3    0    0  0.56496083299E+02  0.14554520466E+02  0.55555309260E+02  0.80560746528E+02  0.00000000000E+00 0.  1.
         12    1    3    3    0    0  0.13259781736E+03 -0.13494148216E+02  0.29640638503E+01  0.13331563629E+03  0.00000000000E+00 0. -1.
        -11    1    4    4    0    0 -0.52752738857E+02  0.31131175474E+02 -0.27633395993E+01  0.61315883661E+02  0.00000000000E+00 0.  1.
         11    1    4    4    0    0  0.23399202616E+02  0.88035885810E+02 -0.88776473897E+01  0.91524054197E+02  0.00000000000E+00 0. -1.
         21    1    1    2  502  501 -0.15974036442E+03 -0.12022743353E+03 -0.78335950447E+02  0.21472806275E+03  0.00000000000E+00 0. -1.
<scales pt_clust_5="13000.00000" pt_clust_6="13000.00000" pt_clust_7="13000.00000" pt_clust_8="13000.00000" pt_clust_9="183.86706"></scales>
<clustering>
<clus scale="   81.000">  5  6 -1 -1</clus>
<clus scale="   90.344">  7  8 -1 -1</clus>
<clus scale="  152.396">  2  7  1 -1</clus>
<clus scale="  183.867">  2  9  1 -1</clus>
<clus scale="  152.396">  2  5  1 -1</clus>
</clustering>
</event>
<event>
 9    2  0.2869112E-005  0.1034335E+03  0.7546771E-02  0.1278284E+00
         -1   -1    0    0    0  501 -0.00000000000E+00  0.00000000000E+00  0.30008671603E+02  0.30008671603E+02  0.00000000000E+00 0.  1.
          2   -1    0    0  502    0  0.00000000000E+00 -0.00000000000E+00 -0.57131008170E+03  0.57131008170E+03  0.00000000000E+00 0. -1.
         23    2    1    2    0    0  0.40591925658E+02 -0.15766179405E+02 -0.10634853958E+03  0.14680520374E+03  0.91353593980E+02 0.  0.
         24    2    1    2    0    0 -0.50278414736E+02  0.41541789472E+02 -0.36290916851E+03  0.37738699678E+03  0.80400506780E+02 0.  0.
        -13    1    4    4    0    0 -0.16065158525E+02  0.28916772601E+02 -0.37765649106E+02  0.50204714006E+02  0.00000000000E+00 0.  1.
         14    1    4    4    0    0 -0.34213256211E+02  0.12625016871E+02 -0.32514351940E+03  0.32718228277E+03  0.00000000000E+00 0. -1.
        -11    1    3    3    0    0  0.59622412310E+02 -0.36675737557E+02 -0.90435956934E+02  0.11436172472E+03  0.00000000000E+00 0.  1.
         11    1    3    3    0    0 -0.19030486652E+02  0.20909558152E+02 -0.15912582645E+02  0.32443479018E+02  0.00000000000E+00 0. -1.
         21    1    1    2  502  501  0.96864890778E+01 -0.25775610067E+02 -0.72043702017E+02  0.77126552790E+02  0.00000000000E+00 0.  1.
<scales pt_clust_5="13000.00000" pt_clust_6="13000.00000" pt_clust_7="13000.00000" pt_clust_8="13000.00000" pt_clust_9="27.53562"></scales>
<clustering>
<clus scale="   27.536">  2  9  1 -1</clus>
<clus scale="   80.401">  5  6 -1 -1</clus>
<clus scale="   91.354">  7  8 -1 -1</clus>
<clus scale="   93.900">  2  5  1 -1</clus>
<clus scale="   27.536">  2  5  1 -1</clus>
</clustering>
</event>
<event>
 9    2  0.2869112E-005  0.1131201E+03  0.7546771E-02  0.1258490E+00
          2   -1    0    0  502    0  0.00000000000E+00  0.00000000000E+00  0.22436063839E+03  0.22436063839E+03  0.00000000000E+00 0. -1.
         -1   -1    0    0    0  501 -0.00000000000E+00 -0.00000000000E+00 -0.80192611289E+02  0.80192611289E+02  0.00000000000E+00 0.  1.
         23    2    1    2    0    0 -0.49288378772E+02  0.18348443643E+02  0.49794279372E+01  0.10492448088E+03  0.90655073325E+02 0.  0.
         24    2    1    2    0    0  0.66428863887E+02 -0.31062621228E+02  0.14092117507E+03  0.17821736153E+03  0.80777286238E+02 0.  0.
        -13    1    4    4    0    0  0.43370118585E+02  0.50926013465E+00  0.14256068136E+02  0.45655908825E+02  0.00000000000E+00 0.  1.
         14    1    4    4    0    0  0.23058745302E+02 -0.31571881363E+02  0.12666510694E+03  0.13256145271E+03  0.00000000000E+00 0. -1.
        -13    1    3    3    0    0 -0.56427469131E+02 -0.24371245374E+02  0.41274075881E+01  0.61603996356E+02  0.00000000000E+00 0. -1.
         13    1    3    3    0    0  0.71390903586E+01  0.42719689017E+02  0.85202034910E+00  0.43320484526E+02  0.00000000000E+00 0.  1.
         21    1    1    2  502  501 -0.17140485115E+02  0.12714177585E+02 -0.17325759152E+01  0.21411407262E+02  0.00000000000E+00 0.  1.
<scales pt_clust_5="13000.00000" pt_clust_6="13000.00000" pt_clust_7="13000.00000" pt_clust_8="13000.00000" pt_clust_9="21.34119"></scales>
<clustering>
<clus scale="   21.341">  2  9  1 -1</clus>
<clus scale="   80.777">  5  6 -1 -1</clus>
<clus scale="   90.655">  7  8 -1 -1</clus>
<clus scale="  105.370">  1  5  2 -1</clus>
<clus scale="  105.370">  1  5  2 -1</clus>
</clustering>
</event>
<event>
 9    2  0.2869112E-005  0.1296821E+03  0.7546771E-02  0.1230571E+00
         -1   -1    0    0    0  501 -0.00000000000E+00  0.00000000000E+00  0.13048893657E+03  0.13048893657E+03  0.00000000000E+00 0.  1.
          2   -1    0    0  502    0  0.00000000000E+00 -0.00000000000E+00 -0.18159277419E+03  0.18159277419E+03  0.00000000000E+00 0. -1.
         23    2    1    2    0    0 -0.77845544986E+02  0.63524105243E+02 -0.20252624284E+02  0.13687697099E+03  0.90718771899E+02 0.  0.
         24    2    1    2    0    0  0.82418899058E+02 -0.34233345176E+02 -0.59356920137E+02  0.13407762569E+03  0.80552895030E+02 0.  0.
        -11    1    4    4    0    0  0.75012059287E+02 -0.12348713049E+02 -0.63885343052E+01  0.76289665900E+02  0.00000000000E+00 0.  1.
         12    1    4    4    0    0  0.74068397708E+01 -0.21884632127E+02 -0.52968385832E+02  0.57787959787E+02  0.00000000000E+00 0. -1.
        -11    1    3    3    0    0  0.20139164910E+02  0.17650622315E+02 -0.82528813405E+01  0.28022142706E+02  0.00000000000E+00 0.  1.
         11    1    3    3    0    0 -0.97984709896E+02  0.45873482927E+02 -0.11999742943E+02  0.10885482828E+03  0.00000000000E+00 0. -1.
         21    1    1    2  502  501 -0.45733540722E+01 -0.29290760066E+02  0.28505706801E+02  0.41127114085E+02  0.00000000000E+00 0. -1.
<scales pt_clust_5="13000.00000" pt_clust_6="13000.00000" pt_clust_7="13000.00000" pt_clust_8="13000.00000" pt_clust_9="29.64564"></scales>
<clustering>
<clus scale="   29.646">  1  9  2 -1</clus>
<clus scale="   80.553">  5  6 -1 -1</clus>
<clus scale="   90.719">  7  8 -1 -1</clus>
<clus scale="  122.786">  2  5  1 -1</clus>
<clus scale="  122.786">  2  5  1 -1</clus>
</clustering>
</event>
<event>
 9    2  0.2869112E-005  0.9298794E+02  0.7546771E-02  0.1302863E+00
          2   -1    0    0  502    0  0.00000000000E+00  0.00000000000E+00  0.12779450304E+04  0.12779450304E+04  0.00000000000E+00 0. -1.
         -1   -1    0    0    0  501 -0.00000000000E+00 -0.00000000000E+00 -0.23607093825E+02  0.23607093825E+02  0.00000000000E+00 0.  1.
         23    2    1    2    0    0  0.28454665003E+02 -0.14072251978E+02  0.10347064084E+03  0.14184504413E+03  0.91685041266E+02 0.  0.
         24    2    1    2    0    0 -0.12178067921E+02 -0.95943518246E+01  0.10822499384E+04  0.10853204047E+04  0.80094286767E+02 0.  0.
        -13    1    4    4    0    0 -0.21100054319E+02  0.21917433356E+01  0.74482395397E+02  0.77444452708E+02  0.00000000000E+00 0.  1.
         14    1    4    4    0    0  0.89219863979E+01 -0.11786095160E+02  0.10077675430E+04  0.10078759520E+04  0.00000000000E+00 0. -1.
        -13    1    3    3    0    0  0.57016310434E+02  0.11852406176E+02  0.57553605597E+02  0.81876472230E+02  0.00000000000E+00 0.  1.
         13    1    3    3    0    0 -0.28561645430E+02 -0.25924658154E+02  0.45917035247E+02  0.59968571902E+02  0.00000000000E+00 0. -1.
         21    1    1    2  502  501 -0.16276597083E+02  0.23666603803E+02  0.68617357291E+02  0.74386675351E+02  0.00000000000E+00 0. -1.
<scales pt_clust_5="13000.00000" pt_clust_6="13000.00000" pt_clust_7="13000.00000" pt_clust_8="13000.00000" pt_clust_9="28.72344"></scales>
<clustering>
<clus scale="   28.723">  2  9  1 -1</clus>
<clus scale="   80.094">  5  6 -1 -1</clus>
<clus scale="   81.583">  1  5  2 -1</clus>
<clus scale="   91.685">  7  8 -1 -1</clus>
<clus scale="   81.583">  1  5  2 -1</clus>
</clustering>
</event>
<event>
 9    2  0.2869112E-005  0.1495915E+03  0.7546771E-02  0.1202986E+00
          2   -1    0    0  502    0  0.00000000000E+00  0.00000000000E+00  0.10053168688E+04  0.10053168688E+04  0.00000000000E+00 0. -1.
         -1   -1    0    0    0  501 -0.00000000000E+00 -0.00000000000E+00 -0.46045644860E+02  0.46045644860E+02  0.00000000000E+00 0.  1.
         23    2    1    2    0    0 -0.14799578704E+03 -0.40989436454E+01  0.19451024213E+03  0.26107476654E+03  0.91685577432E+02 0.  0.
         24    2    1    2    0    0  0.11173419606E+03  0.11386070472E+02  0.71507923030E+03  0.72835002332E+03  0.80878165703E+02 0.  0.
        -11    1    4    4    0    0  0.23987643609E+02  0.32696501817E+02  0.12530857538E+03  0.13170689937E+03  0.00000000000E+00 0.  1.
         12    1    4    4    0    0  0.87746552455E+02 -0.21310431344E+02  0.58977065492E+03  0.59664312395E+03  0.00000000000E+00 0. -1.
        -13    1    3    3    0    0 -0.51032231823E+02  0.42268816423E+02  0.82871479766E+02  0.10610666183E+03  0.00000000000E+00 0. -1.
         13    1    3    3    0    0 -0.96963555213E+02 -0.46367760069E+02  0.11163876237E+03  0.15496810471E+03  0.00000000000E+00 0.  1.
         21    1    1    2  502  501  0.36261590971E+02 -0.72871268270E+01  0.49681751496E+02  0.61937723795E+02  0.00000000000E+00 0. -1.
<scales pt_clust_5="13000.00000" pt_clust_6="13000.00000" pt_clust_7="13000.00000" pt_clust_8="13000.00000" pt_clust_9="36.98655"></scales>
<clustering>
<clus scale="   36.987">  2  9  1 -1</clus>
<clus scale="   80.878">  5  6 -1 -1</clus>
<clus scale="   91.686">  7  8 -1 -1</clus>
<clus scale="  143.222">  1  5  2 -1</clus>
<clus scale="  143.222">  1  5  2 -1</clus>
</clustering>
</event>
<event>
 9    2  0.2869112E-005  0.1026706E+03  0.7546771E-02  0.1284573E+00
          2   -1    0    0  502    0  0.00000000000E+00  0.00000000000E+00  0.52073136420E+03  0.52073136420E+03  0.00000000000E+00 0. -1.
         -1   -1    0    0    0  501 -0.00000000000E+00 -0.00000000000E+00 -0.32321561236E+02  0.32321561236E+02  0.00000000000E+00 0.  1.
         24    2    1    2    0    0  0.56606237416E+02 -0.64562186009E+01  0.10817300544E+03  0.14611546447E+03  0.80014879736E+02 0.  0.
         23    2    1    2    0    0 -0.17325713519E+02  0.57419092447E+01  0.31762041334E+03  0.33301668334E+03  0.98408508495E+02 0.  0.
        -13    1    3    3    0    0  0.18313136761E+02 -0.38025233352E+02  0.24414567681E+02  0.48758183565E+02  0.00000000000E+00 0.  1.
         14    1    3    3    0    0  0.38293100656E+02  0.31569014751E+02  0.83758437756E+02  0.97357280906E+02  0.00000000000E+00 0. -1.
        -13    1    4    4    0    0  0.15438087539E+02 -0.40510745670E+02  0.13230987537E+03  0.13923131178E+03  0.00000000000E+00 0.  1.
         13    1    4    4    0    0 -0.32763801058E+02  0.46252654915E+02  0.18531053797E+03  0.19378537156E+03  0.00000000000E+00 0. -1.
         21    1    1    2  502  501 -0.39280523898E+02  0.71430935623E+00  0.62616384189E+02  0.73920777623E+02  0.00000000000E+00 0.  1.
<scales pt_clust_5="13000.00000" pt_clust_6="13000.00000" pt_clust_7="13000.00000" pt_clust_8="13000.00000" pt_clust_9="39.28702"></scales>
<clustering>
<clus scale="   39.287">  2  9  1 -1</clus>
<clus scale="   80.015">  5  6 -1 -1</clus>
<clus scale="   85.202">  2  5  1 -1</clus>
<clus scale="   98.409">  7  8 -1 -1</clus>
<clus scale="  102.671">  1  5  2 -1</clus>
</clustering>
</event>
<event>
 9    2  0.2869112E-005  0.9910263E+02  0.7546771E-02  0.1293652E+00
          2   -1    0    0  502    0  0.00000000000E+00  0.00000000000E+00  0.17255515819E+03  0.17255515819E+03  0.00000000000E+00 0. -1.
         -1   -1    0    0    0  501 -0.00000000000E+00 -0.00000000000E+00 -0.72688504572E+02  0.72688504572E+02  0.00000000000E+00 0.  1.
         23    2    1    2    0    0 -0.75959462986E+01  0.42088998833E+02 -0.14522710462E+02  0.71442080905E+02  0.55352322281E+02 0.  0.
         24    2    1    2    0    0  0.14001460635E+02 -0.63148799783E+02  0.11074770506E+03  0.15148998150E+03  0.80624738804E+02 0.  0.
        -13    1    4    4    0    0 -0.22900517453E+02 -0.19668904867E+02  0.39837069432E+01  0.30449457127E+02  0.00000000000E+00 0.  1.
         14    1    4    4    0    0  0.36901978089E+02 -0.43479894916E+02  0.10676399811E+03  0.12104052438E+03  0.00000000000E+00 0. -1.
        -11    1    3    3    0    0  0.18026197924E+02  0.36516966577E+02 -0.18835421732E+02  0.44868761644E+02  0.00000000000E+00 0.  1.
         11    1    3    3    0    0 -0.25622144223E+02  0.55720322554E+01  0.43127112697E+01  0.26573319261E+02  0.00000000000E+00 0. -1.
         21    1    1    2  502  501 -0.64055143369E+01  0.21059800951E+02  0.36416590293E+01  0.22311600357E+02  0.00000000000E+00 0.  1.
<scales pt_clust_5="13000.00000" pt_clust_6="13000.00000" pt_clust_7="13000.00000" pt_clust_8="13000.00000" pt_clust_9="22.01240"></scales>
<clustering>
<clus scale="   22.012">  2  9  1 -1</clus>
<clus scale="   55.352">  7  8 -1 -1</clus>
<clus scale="   79.905">  2  7  1 -1</clus>
<clus scale="   80.625">  5  6 -1 -1</clus>
<clus scale="   99.103">  1  5  2 -1</clus>
</clustering>
</event>
<event>
 9    2  0.2869112E-005  0.1666743E+03  0.7546771E-02  0.1182870E+00
         -3   -1    0    0    0  501 -0.00000000000E+00  0.00000000000E+00  0.54385709697E+03  0.54385709697E+03  0.00000000000E+00 0.  1.
          4   -1    0    0  502    0  0.00000000000E+00 -0.00000000000E+00 -0.86094675158E+02  0.86094675158E+02  0.00000000000E+00 0. -1.
         24    2    1    2    0    0  0.10194582425E+03  0.64718768970E+02  0.32818014803E+03  0.35877443775E+03  0.80221053866E+02 0.  0.
         23    2    1    2    0    0 -0.10949937444E+03 -0.96818287791E+02  0.41356572263E+02  0.17699023527E+03  0.90836575563E+02 0.  0.
        -13    1    3    3    0    0  0.97364211874E+02  0.24616670164E+02  0.26904310327E+03  0.28717583746E+03  0.00000000000E+00 0.  1.
         14    1    3    3    0    0  0.45816123747E+01  0.40102098806E+02  0.59137044763E+02  0.71598600293E+02  0.00000000000E+00 0. -1.
        -11    1    4    4    0    0 -0.67222827701E+02 -0.87535250876E+00  0.17395863223E+02  0.69442716417E+02  0.00000000000E+00 0.  1.
         11    1    4    4    0    0 -0.42276546736E+02 -0.95942935282E+02  0.23960709040E+02  0.10754751886E+03  0.00000000000E+00 0. -1.
         21    1    1    2  502  501  0.75535501885E+01  0.32099518821E+02  0.88225701513E+02  0.94187099098E+02  0.00000000000E+00 0.  1.
<scales pt_clust_5="13000.00000" pt_clust_6="13000.00000" pt_clust_7="13000.00000" pt_clust_8="13000.00000" pt_clust_9="32.97628"></scales>
<clustering>
<clus scale="   32.976">  1  9  2 -1</clus>
<clus scale="   80.221">  5  6 -1 -1</clus>
<clus scale="   90.837">  7  8 -1 -1</clus>
<clus scale="  161.135">  1  5  2 -1</clus>
<clus scale="  166.674">  2  5  1 -1</clus>
</clustering>
</event>
<event>
 9    2  0.2869112E-005  0.9348561E+02  0.7546771E-02  0.1301560E+00
          2   -1    0    0  502    0  0.00000000000E+00  0.00000000000E+00  0.40006632415E+03  0.40006632415E+03  0.00000000000E+00 0. -1.
         -1   -1    0    0    0  501 -0.00000000000E+00 -0.00000000000E+00 -0.49680292612E+02  0.49680292612E+02  0.00000000000E+00 0.  1.
         23    2    1    2    0    0 -0.37285898202E+02 -0.58537192112E+01  0.70391027736E+02  0.12272259953E+03  0.93174220774E+02 0.  0.
         24    2    1    2    0    0  0.53257611948E+00 -0.39013547089E+01  0.27700654328E+03  0.28888087830E+03  0.81878157161E+02 0.  0.
        -13    1    4    4    0    0  0.29076667020E+01  0.23189226173E+02  0.20956028968E+02  0.31390283310E+02  0.00000000000E+00 0.  1.
         14    1    4    4    0    0 -0.23750905825E+01 -0.27090580882E+02  0.25605051431E+03  0.25749059499E+03  0.00000000000E+00 0. -1.
        -11    1    3    3    0    0 -0.10632649463E+02  0.26722135627E+02  0.75053406123E+02  0.80374993236E+02  0.00000000000E+00 0.  1.
         11    1    3    3    0    0 -0.26653248738E+02 -0.32575854838E+02 -0.46623783871E+01  0.42347606296E+02  0.00000000000E+00 0. -1.
         21    1    1    2  502  501  0.36753322082E+02  0.97550739201E+01  0.29884605211E+01  0.38143138932E+02  0.00000000000E+00 0.  1.
<scales pt_clust_5="13000.00000" pt_clust_6="13000.00000" pt_clust_7="13000.00000" pt_clust_8="13000.00000" pt_clust_9="38.02589"></scales>
<clustering>
<clus scale="   38.026">  2  9  1 -1</clus>
<clus scale="   81.878">  5  6 -1 -1</clus>
<clus scale="   82.232">  1  5  2 -1</clus>
<clus scale="   93.174">  7  8 -1 -1</clus>
<clus scale="   82.232">  1  5  2 -1</clus>
</clustering>
</event>
<event>
 9    2  0.2869112E-005  0.1075143E+03  0.7546771E-02  0.1268044E+00
          2   -1    0    0  502    0  0.00000000000E+00  0.00000000000E+00  0.64642470175E+03  0.64642470175E+03  0.00000000000E+00 0. -1.
         -1   -1    0    0    0  501 -0.00000000000E+00 -0.00000000000E+00 -0.59849070128E+02  0.59849070128E+02  0.00000000000E+00 0.  1.
         23    2    1    2    0    0  0.72379185659E+02  0.89934085521E+01  0.43833028642E+02  0.12356962481E+03  0.89601840723E+02 0.  0.
         24    2    1    2    0    0 -0.43044079584E+02 -0.14204028583E+02  0.54261690706E+03  0.55290960379E+03  0.96027990313E+02 0.  0.
        -11    1    4    4    0    0 -0.10850389024E+02 -0.27863408176E+02  0.44778312375E+02  0.53844198539E+02  0.00000000000E+00 0.  1.
         12    1    4    4    0    0 -0.32193690560E+02  0.13659379593E+02  0.49783859468E+03  0.49906540525E+03  0.00000000000E+00 0. -1.
        -11    1    3    3    0    0  0.47383184487E+02  0.23187135426E+02 -0.17709047135E+02  0.55645482942E+02  0.00000000000E+00 0.  1.
         11    1    3    3    0    0  0.24996001172E+02 -0.14193726874E+02  0.61542075777E+02  0.67924141865E+02  0.00000000000E+00 0. -1.
         21    1    1    2  502  501 -0.29335106075E+02  0.52106200309E+01  0.12569591797E+00  0.29794543276E+02  0.00000000000E+00 0. -1.
<scales pt_clust_5="13000.00000" pt_clust_6="13000.00000" pt_clust_7="13000.00000" pt_clust_8="13000.00000" pt_clust_9="29.79428"></scales>
<clustering>
<clus scale="   29.794">  2  9  1 -1</clus>
<clus scale="   89.602">  7  8 -1 -1</clus>
<clus scale="   96.028">  5  6 -1 -1</clus>
<clus scale="  101.816">  2  7  1 -1</clus>
<clus scale="  107.514">  1  5  2 -1</clus>
</clustering>
</event>
<event>
 9    2  0.2869112E-005  0.9447430E+02  0.7546771E-02  0.1294972E+00
         -1   -1    0    0    0  501 -0.00000000000E+00  0.00000000000E+00  0.27304751207E+02  0.27304751207E+02  0.00000000000E+00 0.  1.
          2   -1    0    0  502    0  0.00000000000E+00 -0.00000000000E+00 -0.13023369608E+04  0.13023369608E+04  0.00000000000E+00 0. -1.
         23    2    1    2    0    0  0.35677612565E+02  0.54971817643E+02 -0.11062034399E+03  0.15456353381E+03  0.85780141670E+02 0.  0.
         24    2    1    2    0    0 -0.99048830846E+01 -0.36349160902E+02 -0.10961820646E+04  0.10998030650E+04  0.80822612665E+02 0.  0.
        -13    1    4    4    0    0 -0.31068618729E+02 -0.17760952885E+02 -0.19987525982E+03  0.20305376136E+03  0.00000000000E+00 0.  1.
         14    1    4    4    0    0  0.21163735644E+02 -0.18588208017E+02 -0.89630680483E+03  0.89674930363E+03  0.00000000000E+00 0. -1.
        -11    1    3    3    0    0  0.16701778296E+02  0.22090158023E+02  0.89557215402E+01  0.29105487937E+02  0.00000000000E+00 0.  1.
         11    1    3    3    0    0  0.18975834269E+02  0.32881659620E+02 -0.11957606553E+03  0.12545804587E+03  0.00000000000E+00 0. -1.
         21    1    1    2  502  501 -0.25772729480E+02 -0.18622656741E+02 -0.68229800924E+02  0.75275113172E+02  0.00000000000E+00 0.  1.
<scales pt_clust_5="13000.00000" pt_clust_6="13000.00000" pt_clust_7="13000.00000" pt_clust_8="13000.00000" pt_clust_9="31.79681"></scales>
<clustering>
<clus scale="   31.797">  1  9  2 -1</clus>
<clus scale="   80.823">  5  6 -1 -1</clus>
<clus scale="   85.780">  7  8 -1 -1</clus>
<clus scale="   89.997">  2  5  1 -1</clus>
<clus scale="   89.997">  2  5  1 -1</clus>
</clustering>
</event>
<event>
 9    2  0.2869112E-005  0.1269565E+03  0.7546771E-02  0.1235513E+00
         -1   -1    0    0    0  501 -0.00000000000E+00  0.00000000000E+00  0.16195974253E+03  0.16195974253E+03  0.00000000000E+00 0.  1.
          2   -1    0    0  502    0  0.00000000000E+00 -0.00000000000E+00 -0.12461626423E+03  0.12461626423E+03  0.00000000000E+00 0. -1.
         24    2    1    2    0    0 -0.87247897099E+01  0.10201183387E+03  0.52531353514E+02  0.13848490659E+03  0.77045376541E+02 0.  0.
         23    2    1    2    0    0 -0.12594815374E+00 -0.70454157346E+02 -0.15999149347E+02  0.11530572731E+03  0.89864530376E+02 0.  0.
        -13    1    3    3    0    0 -0.37405018342E+02  0.42386766306E+02  0.44708822026E+01  0.56707690331E+02  0.00000000000E+00 0.  1.
         14    1    3    3    0    0  0.28680228632E+02  0.59625067565E+02  0.48060471312E+02  0.81777216260E+02  0.00000000000E+00 0. -1.
        -13    1    4    4    0    0 -0.15126019733E+02 -0.48391126398E+02  0.32309316386E+02  0.60119793017E+02  0.00000000000E+00 0.  1.
         13    1    4    4    0    0  0.15000071579E+02 -0.22063030948E+02 -0.48308465733E+02  0.55185934290E+02  0.00000000000E+00 0. -1.
         21    1    1    2  502  501  0.88507378636E+01 -0.31557676524E+02  0.81127413369E+00  0.32785372868E+02  0.00000000000E+00 0.  1.
<scales pt_clust_5="13000.00000" pt_clust_6="13000.00000" pt_clust_7="13000.00000" pt_clust_8="13000.00000" pt_clust_9="32.77533"></scales>
<clustering>
<clus scale="   32.775">  2  9  1 -1</clus>
<clus scale="   77.045">  5  6 -1 -1</clus>
<clus scale="   89.865">  7  8 -1 -1</clus>
<clus scale="  118.230">  1  5  2 -1</clus>
<clus scale="   32.775">  2  5  1 -1</clus>
</clustering>
</event>
<event>
 9    2  0.2869112E-005  0.9133242E+02  0.7546771E-02  0.1306106E+00
         -1   -1    0    0    0  501 -0.00000000000E+00  0.00000000000E+00  0.57674054124E+02  0.57674054124E+02  0.00000000000E+00 0.  1.
          2   -1    0    0  502    0  0.00000000000E+00 -0.00000000000E+00 -0.28973970604E+03  0.28973970604E+03  0.00000000000E+00 0. -1.
         24    2    1    2    0    0 -0.67015949551E+01 -0.50697057075E+02 -0.81518677280E+02  0.12498818851E+03  0.79759949536E+02 0.  0.
         23    2    1    2    0    0  0.24443087470E+01 -0.94745859070E+01 -0.13044011052E+03  0.15884069067E+03  0.90111043488E+02 0.  0.
        -11    1    3    3    0    0 -0.51655113151E+01  0.21548587424E+02 -0.23666491245E+02  0.32421087813E+02  0.00000000000E+00 0.  1.
         12    1    3    3    0    0 -0.15360836400E+01 -0.72245644499E+02 -0.57852186035E+02  0.92567100695E+02  0.00000000000E+00 0. -1.
        -11    1    4    4    0    0  0.37889258445E+02 -0.18504321711E+02 -0.29454770086E+02  0.51435292440E+02  0.00000000000E+00 0.  1.
         11    1    4    4    0    0 -0.35444949698E+02  0.90297358041E+01 -0.10098534043E+03  0.10740539823E+03  0.00000000000E+00 0. -1.
         21    1    1    2  502  501  0.42572862081E+01  0.60171642982E+02 -0.20106864120E+02  0.63584880984E+02  0.00000000000E+00 0.  1.
<scales pt_clust_5="13000.00000" pt_clust_6="13000.00000" pt_clust_7="13000.00000" pt_clust_8="13000.00000" pt_clust_9="60.32206"></scales>
<clustering>
<clus scale="   60.322">  1  9  2 -1</clus>
<clus scale="   79.760">  5  6 -1 -1</clus>
<clus scale="   81.137">  1  5  2 -1</clus>
<clus scale="   90.111">  7  8 -1 -1</clus>
<clus scale="   91.332">  2  5  1 -1</clus>
</clustering>
</event>
<event>
 9    2  0.2869112E-005  0.9379970E+02  0.7546771E-02  0.1300325E+00
          2   -1    0    0  502    0  0.00000000000E+00  0.00000000000E+00  0.83241016784E+03  0.83241016784E+03  0.00000000000E+00 0. -1.
         -1   -1    0    0    0  501 -0.00000000000E+00 -0.00000000000E+00 -0.24312262773E+02  0.24312262773E+02  0.00000000000E+00 0.  1.
         23    2    1    2    0    0  0.80619291051E+01  0.18254836316E+02  0.17644682829E+03  0.19939334986E+03  0.90697249158E+02 0.  0.
         24    2    1    2    0    0 -0.27750460856E+02  0.18333983503E+01  0.62182036444E+03  0.62753279979E+03  0.79770920467E+02 0.  0.
        -13    1    4    4    0    0 -0.20124220533E+02  0.36213664023E+02  0.20005706550E+03  0.20430184329E+03  0.00000000000E+00 0.  1.
         14    1    4    4    0    0 -0.76262403226E+01 -0.34380265673E+02  0.42176329894E+03  0.42323095650E+03  0.00000000000E+00 0. -1.
        -11    1    3    3    0    0  0.35019904614E+02 -0.17643075418E+02  0.12552775518E+03  0.13151003441E+03  0.00000000000E+00 0. -1.
         11    1    3    3    0    0 -0.26957975509E+02  0.35897911734E+02  0.50919073107E+02  0.67883315450E+02  0.00000000000E+00 0.  1.
         21    1    1    2  502  501  0.19688531751E+02 -0.20088234666E+02  0.98307123436E+01  0.29796280971E+02  0.00000000000E+00 0.  1.
<scales pt_clust_5="13000.00000" pt_clust_6="13000.00000" pt_clust_7="13000.00000" pt_clust_8="13000.00000" pt_clust_9="28.12784"></scales>
<clustering>
<clus scale="   28.128">  2  9  1 -1</clus>
<clus scale="   79.771">  5  6 -1 -1</clus>
<clus scale="   83.281">  1  5  2 -1</clus>
<clus scale="   90.697">  7  8 -1 -1</clus>
<clus scale="   83.281">  1  5  2 -1</clus>
</clustering>
</event>
<event>
 9    2  0.2869112E-005  0.1914507E+03  0.7546771E-02  0.1162777E+00
          2   -1    0    0  502    0  0.00000000000E+00  0.00000000000E+00  0.32584604360E+03  0.32584604360E+03  0.00000000000E+00 0. -1.
         -1   -1    0    0    0  501 -0.00000000000E+00 -0.00000000000E+00 -0.19537710425E+03  0.19537710425E+03  0.00000000000E+00 0.  1.
         23    2    1    2    0    0 -0.11155044603E+03 -0.19172427730E+02 -0.47282440225E+02  0.17399661576E+03  0.12340222505E+03 0.  0.
         24    2    1    2    0    0  0.15421036811E+03  0.20279213410E+02  0.22361292825E+03  0.28458169533E+03  0.82413078495E+02 0.  0.
        -11    1    4    4    0    0  0.60191205070E+02  0.86353265438E+01  0.27401727190E+02  0.66696361860E+02  0.00000000000E+00 0.  1.
         12    1    4    4    0    0  0.94019163040E+02  0.11643886866E+02  0.19621120106E+03  0.21788533347E+03  0.00000000000E+00 0. -1.
        -13    1    3    3    0    0 -0.13552379034E+03 -0.12161060414E+01 -0.28051091534E+02  0.13840173553E+03  0.00000000000E+00 0.  1.
         13    1    3    3    0    0  0.23973344307E+02 -0.17956321689E+02 -0.19231348691E+02  0.35594880226E+02  0.00000000000E+00 0. -1.
         21    1    1    2  502  501 -0.42659922076E+02 -0.11067856802E+01 -0.45861548678E+02  0.62644836764E+02  0.00000000000E+00 0.  1.
<scales pt_clust_5="13000.00000" pt_clust_6="13000.00000" pt_clust_7="13000.00000" pt_clust_8="13000.00000" pt_clust_9="42.67428"></scales>
<clustering>
<clus scale="   42.674">  2  9  1 -1</clus>
<clus scale="   82.413">  5  6 -1 -1</clus>
<clus scale="  123.402">  7  8 -1 -1</clus>
<clus scale="  167.980">  1  5  2 -1</clus>
<clus scale="  167.980">  1  5  2 -1</clus>
</clustering>
</event>
<event>
 9    2  0.2869112E-005  0.9863367E+02  0.7546771E-02  0.1287745E+00
         -1   -1    0    0    0  501 -0.00000000000E+00  0.00000000000E+00  0.11369263715E+03  0.11369263715E+03  0.00000000000E+00 0.  1.
          2   -1    0    0  502    0  0.00000000000E+00 -0.00000000000E+00 -0.27156473542E+03  0.27156473542E+03  0.00000000000E+00 0. -1.
         23    2    1    2    0    0 -0.47748076145E+02 -0.25703026638E+02  0.65794689438E+02  0.12397149939E+03  0.89997039667E+02 0.  0.
         24    2    1    2    0    0  0.38775195640E+02  0.65123886524E+01 -0.22253777046E+03  0.24007107054E+03  0.81025506040E+02 0.  0.
        -11    1    4    4    0    0 -0.21428044569E+02  0.14333612388E+02 -0.38975087750E+02  0.46729765709E+02  0.00000000000E+00 0.  1.
         12    1    4    4    0    0  0.60203240209E+02 -0.78212237360E+01 -0.18356268271E+03  0.19334130483E+03  0.00000000000E+00 0. -1.
        -11    1    3    3    0    0 -0.38925317947E+01  0.22119351240E+02  0.53373772469E+02  0.57906623892E+02  0.00000000000E+00 0.  1.
         11    1    3    3    0    0 -0.43855544350E+02 -0.47822377878E+02  0.12420916969E+02  0.66064875497E+02  0.00000000000E+00 0. -1.
         21    1    1    2  502  501  0.89728805045E+01  0.19190637986E+02 -0.11290172499E+01  0.21214802634E+02  0.00000000000E+00 0. -1.
<scales pt_clust_5="13000.00000" pt_clust_6="13000.00000" pt_clust_7="13000.00000" pt_clust_8="13000.00000" pt_clust_9="21.18474"></scales>
<clustering>
<clus scale="   21.185">  1  9  2 -1</clus>
<clus scale="   81.026">  5  6 -1 -1</clus>
<clus scale="   89.997">  7  8 -1 -1</clus>
<clus scale="   90.522">  2  5  1 -1</clus>
<clus scale="   90.522">  2  5  1 -1</clus>
</clustering>
</event>
<event>
 9    2  0.2869112E-005  0.9796916E+02  0.7546771E-02  0.1290340E+00
          4   -1    0    0  502    0  0.00000000000E+00  0.00000000000E+00  0.52307829207E+03  0.52307829207E+03  0.00000000000E+00 0. -1.
         -3   -1    0    0    0  501 -0.00000000000E+00 -0.00000000000E+00 -0.29143972661E+02  0.29143972661E+02  0.00000000000E+00 0.  1.
         23    2    1    2    0    0  0.53925365587E+02 -0.11551883106E+02  0.25602891814E+03  0.27751711344E+03  0.91779901213E+02 0.  0.
         24    2    1    2    0    0 -0.12112201006E+02  0.19057061266E+02  0.20293730154E+03  0.21968300639E+03  0.81038249882E+02 0.  0.
        -11    1    4    4    0    0 -0.27325558273E+02 -0.19990722515E+02  0.45203225023E+02  0.56476957019E+02  0.00000000000E+00 0.  1.
         12    1    4    4    0    0  0.15213357267E+02  0.39047783781E+02  0.15773407651E+03  0.16320604937E+03  0.00000000000E+00 0. -1.
        -13    1    3    3    0    0  0.15708153158E+02 -0.35398646555E+02  0.35837019560E+02  0.52764592526E+02  0.00000000000E+00 0.  1.
         13    1    3    3    0    0  0.38217212429E+02  0.23846763449E+02  0.22019189858E+03  0.22475252091E+03  0.00000000000E+00 0. -1.
         21    1    1    2  502  501 -0.41813164581E+02 -0.75051781602E+01  0.34968099728E+02  0.55022144907E+02  0.00000000000E+00 0.  1.
<scales pt_clust_5="13000.00000" pt_clust_6="13000.00000" pt_clust_7="13000.00000" pt_clust_8="13000.00000" pt_clust_9="42.48139"></scales>
<clustering>
<clus scale="   42.481">  2  9  1 -1</clus>
<clus scale="   81.038">  5  6 -1 -1</clus>
<clus scale="   87.986">  1  5  2 -1</clus>
<clus scale="   91.780">  7  8 -1 -1</clus>
<clus scale="   87.986">  1  5  2 -1</clus>
</clustering>
</event>
<event>
 9    2  0.2869112E-005  0.8977900E+02  0.7546771E-02  0.1304836E+00
          4   -1    0    0  502    0  0.00000000000E+00  0.00000000000E+00  0.82046666890E+03  0.82046666890E+03  0.00000000000E+00 0. -1.
         -3   -1    0    0    0  501 -0.00000000000E+00 -0.00000000000E+00 -0.64976057086E+02  0.64976057086E+02  0.00000000000E+00 0.  1.
         23    2    1    2    0    0  0.21977028621E+02 -0.68011861417E+02  0.51013784314E+02  0.12117975657E+03  0.83507629180E+02 0.  0.
         24    2    1    2    0    0 -0.26378566077E+02  0.16563286411E+02  0.70725046630E+03  0.71255201822E+03  0.80975214560E+02 0.  0.
        -11    1    4    4    0    0  0.30109593781E+01  0.21647406812E+02  0.49318279265E+02  0.53944126351E+02  0.00000000000E+00 0.  1.
         12    1    4    4    0    0 -0.29389525455E+02 -0.50841204013E+01  0.65793218704E+03  0.65860789186E+03  0.00000000000E+00 0. -1.
        -11    1    3    3    0    0 -0.23609676925E+02 -0.13486328958E+02  0.41300750068E+02  0.49447445530E+02  0.00000000000E+00 0. -1.
         11    1    3    3    0    0  0.45586705546E+02 -0.54525532459E+02  0.97130342457E+01  0.71732311037E+02  0.00000000000E+00 0.  1.
         21    1    1    2  502  501  0.44015374560E+01  0.51448575006E+02 -0.27736388020E+01  0.51710951203E+02  0.00000000000E+00 0. -1.
<scales pt_clust_5="13000.00000" pt_clust_6="13000.00000" pt_clust_7="13000.00000" pt_clust_8="13000.00000" pt_clust_9="51.63651"></scales>
<clustering>
<clus scale="   51.637">  2  9  1 -1</clus>
<clus scale="   80.975">  5  6 -1 -1</clus>
<clus scale="   83.508">  7  8 -1 -1</clus>
<clus scale="   87.428">  1  5  2 -1</clus>
<clus scale="   87.428">  1  5  2 -1</clus>
</clustering>
</event>
<event>
 9    2  0.2869112E-005  0.1518829E+03  0.7546771E-02  0.1199005E+00
          2   -1    0    0  502    0  0.00000000000E+00  0.00000000000E+00  0.60533842817E+03  0.60533842817E+03  0.00000000000E+00 0. -1.
         -1   -1    0    0    0  501 -0.00000000000E+00 -0.00000000000E+00 -0.58401827842E+02  0.58401827842E+02  0.00000000000E+00 0.  1.
         23    2    1    2    0    0  0.11909656010E+03 -0.56112446329E+02  0.12059196194E+03  0.19878294122E+03  0.87405029465E+02 0.  0.
         24    2    1    2    0    0 -0.11660972672E+03  0.36252623253E+02  0.41806156035E+03  0.44329614458E+03  0.82607036650E+02 0.  0.
        -11    1    4    4    0    0 -0.69281290019E+02 -0.10897350259E+02  0.13131388259E+03  0.14886902011E+03  0.00000000000E+00 0.  1.
         12    1    4    4    0    0 -0.47328436699E+02  0.47149973512E+02  0.28674767776E+03  0.29442712447E+03  0.00000000000E+00 0. -1.
        -13    1    3    3    0    0  0.86518614910E+02  0.64653825006E+01  0.57050916913E+02  0.10383679029E+03  0.00000000000E+00 0.  1.
         13    1    3    3    0    0  0.32577945187E+02 -0.62577828829E+02  0.63541045030E+02  0.94946150933E+02  0.00000000000E+00 0. -1.
         21    1    1    2  502  501 -0.24868333793E+01  0.19859823076E+02  0.82830780334E+01  0.21661170203E+02  0.00000000000E+00 0.  1.
<scales pt_clust_5="13000.00000" pt_clust_6="13000.00000" pt_clust_7="13000.00000" pt_clust_8="13000.00000" pt_clust_9="20.01492"></scales>
<clustering>
<clus scale="   20.015">  2  9  1 -1</clus>
<clus scale="   82.607">  5  6 -1 -1</clus>
<clus scale="   87.405">  7  8 -1 -1</clus>
<clus scale="  149.173">  1  5  2 -1</clus>
<clus scale="  149.173">  1  5  2 -1</clus>
</clustering>
</event>
<event>
 9    2  0.2869112E-005  0.1211704E+03  0.7546771E-02  0.1244291E+00
          2   -1    0    0  502    0  0.00000000000E+00  0.00000000000E+00  0.47126336076E+03  0.47126336076E+03  0.00000000000E+00 0. -1.
         -1   -1    0    0    0  501 -0.00000000000E+00 -0.00000000000E+00 -0.76708746951E+02  0.76708746951E+02  0.00000000000E+00 0.  1.
         24    2    1    2    0    0 -0.54738042731E+02  0.18156531145E+02 -0.12966503858E+02  0.99246093390E+02  0.79722919450E+02 0.  0.
         23    2    1    2    0    0  0.71916485863E+02 -0.46147435117E+02  0.39423699991E+03  0.41329922505E+03  0.89954825469E+02 0.  0.
        -13    1    3    3    0    0 -0.46090844525E+02 -0.75439863279E+01 -0.39603787352E+02  0.61235101464E+02  0.00000000000E+00 0.  1.
         14    1    3    3    0    0 -0.86471982067E+01  0.25700517473E+02  0.26637283494E+02  0.38010991926E+02  0.00000000000E+00 0. -1.
        -13    1    4    4    0    0 -0.33333573741E+01  0.21905207824E+02  0.57991685333E+02  0.62080471720E+02  0.00000000000E+00 0.  1.
         13    1    4    4    0    0  0.75249843237E+02 -0.68052642941E+02  0.33624531457E+03  0.35121875333E+03  0.00000000000E+00 0. -1.
         21    1    1    2  502  501 -0.17178443131E+02  0.27990903972E+02  0.13284117764E+02  0.35426789275E+02  0.00000000000E+00 0.  1.
<scales pt_clust_5="13000.00000" pt_clust_6="13000.00000" pt_clust_7="13000.00000" pt_clust_8="13000.00000" pt_clust_9="32.84189"></scales>
<clustering>
<clus scale="   32.842">  2  9  1 -1</clus>
<clus scale="   79.723">  5  6 -1 -1</clus>
<clus scale="   89.955">  7  8 -1 -1</clus>
<clus scale="  113.781">  2  5  1 -1</clus>
<clus scale="  121.170">  1  5  2 -1</clus>
</clustering>
</event>
<event>
 9    2  0.2869112E-005  0.2180432E+03  0.7546771E-02  0.1136217E+00
          2   -1    0    0  502    0  0.00000000000E+00  0.00000000000E+00  0.10980126792E+04  0.10980126792E+04  0.00000000000E+00 0. -1.
         -1   -1    0    0    0  501 -0.00000000000E+00 -0.00000000000E+00 -0.76043232270E+02  0.76043232270E+02  0.00000000000E+00 0.  1.
         24    2    1    2    0    0  0.93566824271E+02  0.22335811134E+03  0.67172639854E+03  0.71855421419E+03  0.80375417422E+02 0.  0.
         23    2    1    2    0    0 -0.67762509745E+02 -0.13681844964E+03  0.30800100811E+03  0.35580532995E+03  0.91770179999E+02 0.  0.
        -13    1    3    3    0    0  0.27054316367E+02  0.69336897239E+01  0.57433889787E+02  0.63864417192E+02  0.00000000000E+00 0.  1.
         14    1    3    3    0    0  0.66512507904E+02  0.21642442162E+03  0.61429250875E+03  0.65468979700E+03  0.00000000000E+00 0. -1.
        -13    1    4    4    0    0 -0.26549155163E+02 -0.36536278241E+02  0.19110677275E+03  0.19637096491E+03  0.00000000000E+00 0. -1.
         13    1    4    4    0    0 -0.41213354583E+02 -0.10028217140E+03  0.11689423536E+03  0.15943436504E+03  0.00000000000E+00 0.  1.
         21    1    1    2  502  501 -0.25804314526E+02 -0.86539661695E+02  0.42242040306E+02  0.99696367355E+02  0.00000000000E+00 0.  1.
<scales pt_clust_5="13000.00000" pt_clust_6="13000.00000" pt_clust_7="13000.00000" pt_clust_8="13000.00000" pt_clust_9="90.30490"></scales>
<clustering>
<clus scale="   80.375">  5  6 -1 -1</clus>
<clus scale="   90.305">  2  9  1 -1</clus>
<clus scale="   91.770">  7  8 -1 -1</clus>
<clus scale="  213.498">  2  5  1 -1</clus>
<clus scale="  218.043">  1  5  2 -1</clus>
</clustering>
</event>
<event>
 9    2  0.2869112E-005  0.9974578E+02  0.7546771E-02  0.1286108E+00
          2   -1    0    0  502    0  0.00000000000E+00  0.00000000000E+00  0.55891057387E+03  0.55891057387E+03  0.00000000000E+00 0. -1.
         -1   -1    0    0    0  501 -0.00000000000E+00 -0.00000000000E+00 -0.46411765039E+02  0.46411765039E+02  0.00000000000E+00 0.  1.
         23    2    1    2    0    0  0.44302978187E+02  0.29860643769E+02  0.55632489384E+02  0.11941159775E+03  0.91157796587E+02 0.  0.
         24    2    1    2    0    0 -0.24294104151E+02 -0.30523152500E+02  0.45718884513E+03  0.46588830423E+03  0.80674689810E+02 0.  0.
        -13    1    4    4    0    0  0.28531598595E+02 -0.36328910306E+01  0.11125341232E+03  0.11491114727E+03  0.00000000000E+00 0.  1.
         14    1    4    4    0    0 -0.52825702746E+02 -0.26890261469E+02  0.34593543281E+03  0.35097715696E+03  0.00000000000E+00 0. -1.
        -13    1    3    3    0    0  0.18159269097E+02  0.14016416786E+02  0.78147679524E+02  0.81444943420E+02  0.00000000000E+00 0. -1.
         13    1    3    3    0    0  0.26143709090E+02  0.15844226984E+02 -0.22515190139E+02  0.37966654326E+02  0.00000000000E+00 0.  1.
         21    1    1    2  502  501 -0.20008874036E+02  0.66250873064E+00 -0.32252567809E+00  0.20022436935E+02  0.00000000000E+00 0. -1.
<scales pt_clust_5="13000.00000" pt_clust_6="13000.00000" pt_clust_7="13000.00000" pt_clust_8="13000.00000" pt_clust_9="20.01984"></scales>
<clustering>
<clus scale="   20.020">  2  9  1 -1</clus>
<clus scale="   80.675">  5  6 -1 -1</clus>
<clus scale="   90.266">  1  5  2 -1</clus>
<clus scale="   91.158">  7  8 -1 -1</clus>
<clus scale="   90.266">  1  5  2 -1</clus>
</clustering>
</event>
<event>
 9    2  0.2869112E-005  0.9275641E+02  0.7546771E-02  0.1301548E+00
         -1   -1    0    0    0  501 -0.00000000000E+00  0.00000000000E+00  0.67643739404E+02  0.67643739404E+02  0.00000000000E+00 0.  1.
          2   -1    0    0  502    0  0.00000000000E+00 -0.00000000000E+00 -0.49239357348E+03  0.49239357348E+03  0.00000000000E+00 0. -1.
         23    2    1    2    0    0  0.97225360924E+01 -0.17955932864E+02 -0.42989567173E+02  0.10405549775E+03  0.92533780282E+02 0.  0.
         24    2    1    2    0    0  0.86773205125E+01 -0.19252112434E+01 -0.40896560303E+03  0.41758982472E+03  0.83960674830E+02 0.  0.
        -13    1    4    4    0    0 -0.35944981414E+02 -0.68082433556E+01 -0.13056466526E+03  0.13559323612E+03  0.00000000000E+00 0.  1.
         14    1    4    4    0    0  0.44622301926E+02  0.48830321122E+01 -0.27840093777E+03  0.28199658860E+03  0.00000000000E+00 0. -1.
        -11    1    3    3    0    0 -0.18879411331E+01  0.29696628345E+02  0.10433244597E+02  0.31532628333E+02  0.00000000000E+00 0.  1.
         11    1    3    3    0    0  0.11610477225E+02 -0.47652561209E+02 -0.53422811770E+02  0.72522869418E+02  0.00000000000E+00 0. -1.
         21    1    1    2  502  501 -0.18399856605E+02  0.19881144107E+02  0.27205336128E+02  0.38391990414E+02  0.00000000000E+00 0. -1.
<scales pt_clust_5="13000.00000" pt_clust_6="13000.00000" pt_clust_7="13000.00000" pt_clust_8="13000.00000" pt_clust_9="27.08901"></scales>
<clustering>
<clus scale="   27.089">  1  9  2 -1</clus>
<clus scale="   83.961">  5  6 -1 -1</clus>
<clus scale="   84.206">  2  5  1 -1</clus>
<clus scale="   92.534">  7  8 -1 -1</clus>
<clus scale="   84.206">  2  5  1 -1</clus>
</clustering>
</event>
<event>
 9    2  0.2869112E-005  0.9164326E+02  0.7546771E-02  0.1305528E+00
          2   -1    0    0  502    0  0.00000000000E+00  0.00000000000E+00  0.73404448434E+03  0.73404448434E+03  0.00000000000E+00 0. -1.
         -1   -1    0    0    0  501 -0.00000000000E+00 -0.00000000000E+00 -0.16244824118E+03  0.16244824118E+03  0.00000000000E+00 0.  1.
         23    2    1    2    0    0 -0.96483076629E+01 -0.13215711519E+02 -0.14286466046E+03  0.16973621351E+03  0.90179410615E+02 0.  0.
         24    2    1    2    0    0 -0.85001630707E+01  0.23014532471E+02  0.68892405911E+03  0.69393099892E+03  0.79510694662E+02 0.  0.
        -13    1    4    4    0    0  0.27443131690E+02  0.41573468926E+00  0.10713491879E+03  0.11059470664E+03  0.00000000000E+00 0.  1.
         14    1    4    4    0    0 -0.35943294761E+02  0.22598797782E+02  0.58178914032E+03  0.58333629229E+03  0.00000000000E+00 0. -1.
        -13    1    3    3    0    0  0.21842304644E+02 -0.33099167744E+02 -0.11916972909E+03  0.12559484666E+03  0.00000000000E+00 0.  1.
         13    1    3    3    0    0 -0.31490612306E+02  0.19883456225E+02 -0.23694931369E+02  0.44141366851E+02  0.00000000000E+00 0. -1.
         21    1    1    2  502  501  0.18148470734E+02 -0.97988209522E+01  0.25536844504E+02  0.32825513084E+02  0.00000000000E+00 0.  1.
<scales pt_clust_5="13000.00000" pt_clust_6="13000.00000" pt_clust_7="13000.00000" pt_clust_8="13000.00000" pt_clust_9="20.62484"></scales>
<clustering>
<clus scale="   20.625">  1  9  2 -1</clus>
<clus scale="   79.511">  5  6 -1 -1</clus>
<clus scale="   81.167">  1  5  2 -1</clus>
<clus scale="   90.179">  7  8 -1 -1</clus>
<clus scale="   20.625">  1  5  2 -1</clus>
</clustering>
</event>
<event>
 9    2  0.2869112E-005  0.1103742E+03  0.7546771E-02  0.1265716E+00
          2   -1    0    0  502    0  0.00000000000E+00  0.00000000000E+00  0.53781941515E+03  0.53781941515E+03  0.00000000000E+00 0. -1.
         -1   -1    0    0    0  501 -0.00000000000E+00 -0.00000000000E+00 -0.86755769142E+02  0.86755769142E+02  0.00000000000E+00 0.  1.
         23    2    1    2    0    0  0.29160729113E+02  0.87878202129E+02  0.10295251619E+03  0.16550284042E+03  0.90658938132E+02 0.  0.
         24    2    1    2    0    0 -0.36433050571E+02 -0.45512965800E+02  0.38850704160E+03  0.40008480623E+03  0.75705571588E+02 0.  0.
        -11    1    4    4    0    0  0.14160403534E+02 -0.42429533930E+02  0.17157855855E+03  0.17731323733E+03  0.00000000000E+00 0.  1.
         12    1    4    4    0    0 -0.50593454104E+02 -0.30834318702E+01  0.21692848305E+03  0.22277156890E+03  0.00000000000E+00 0. -1.
        -11    1    3    3    0    0  0.38410897341E+02 -0.15954378558E+01  0.20939398067E+02  0.43776715819E+02  0.00000000000E+00 0.  1.
         11    1    3    3    0    0 -0.92501682287E+01  0.89473639985E+02  0.82013118126E+02  0.12172612460E+03  0.00000000000E+00 0. -1.
         21    1    1    2  502  501  0.72723214581E+01 -0.42365236329E+02 -0.40395911789E+02  0.58987537649E+02  0.00000000000E+00 0.  1.
<scales pt_clust_5="13000.00000" pt_clust_6="13000.00000" pt_clust_7="13000.00000" pt_clust_8="13000.00000" pt_clust_9="42.98488"></scales>
<clustering>
<clus scale="   42.985">  2  9  1 -1</clus>
<clus scale="   75.706">  5  6 -1 -1</clus>
<clus scale="   90.659">  7  8 -1 -1</clus>
<clus scale="   98.462">  1  5  2 -1</clus>
<clus scale="   98.462">  1  5  2 -1</clus>
</clustering>
</event>
<event>
 9    2  0.2869112E-005  0.1900390E+03  0.7546771E-02  0.1159493E+00
         -1   -1    0    0    0  501 -0.00000000000E+00  0.00000000000E+00  0.37933648053E+03  0.37933648053E+03  0.00000000000E+00 0.  1.
          2   -1    0    0  502    0  0.00000000000E+00 -0.00000000000E+00 -0.33543818793E+03  0.33543818793E+03  0.00000000000E+00 0. -1.
         23    2    1    2    0    0  0.18407469145E+01  0.23813918908E+03  0.19578818917E+03  0.32131753992E+03  0.90544379795E+02 0.  0.
         24    2    1    2    0    0 -0.82393702493E+02 -0.13828815002E+03 -0.18798507500E+03  0.26018346063E+03  0.80278951884E+02 0.  0.
        -11    1    4    4    0    0 -0.17090754409E+02 -0.26956522378E+02  0.28444551096E+00  0.31919099207E+02  0.00000000000E+00 0.  1.
         12    1    4    4    0    0 -0.65302948084E+02 -0.11133162764E+03 -0.18826952051E+03  0.22826436142E+03  0.00000000000E+00 0. -1.
        -11    1    3    3    0    0 -0.21685673497E+02  0.10140220647E+02  0.30272398635E+02  0.38594178692E+02  0.00000000000E+00 0. -1.
         11    1    3    3    0    0  0.23526420411E+02  0.22799896843E+03  0.16551579054E+03  0.28272336122E+03  0.00000000000E+00 0.  1.
         21    1    1    2  502  501  0.80552955578E+02 -0.99851039059E+02  0.36095178429E+02  0.13327366791E+03  0.00000000000E+00 0. -1.
<scales pt_clust_5="13000.00000" pt_clust_6="13000.00000" pt_clust_7="13000.00000" pt_clust_8="13000.00000" pt_clust_9="128.29267"></scales>
<clustering>
<clus scale="   80.279">  5  6 -1 -1</clus>
<clus scale="   90.544">  7  8 -1 -1</clus>
<clus scale="  128.293">  1  9  2 -1</clus>
<clus scale="  185.368">  2  5  1 -1</clus>
<clus scale="  185.368">  2  5  1 -1</clus>
</clustering>
</event>
<event>
 9    2  0.2869112E-005  0.1035846E+03  0.7546771E-02  0.1277543E+00
         -1   -1    0    0    0  501 -0.00000000000E+00  0.00000000000E+00  0.41878382295E+02  0.41878382295E+02  0.00000000000E+00 0.  1.
          2   -1    0    0  502    0  0.00000000000E+00 -0.00000000000E+00 -0.38593173163E+03  0.38593173163E+03  0.00000000000E+00 0. -1.
         24    2    1    2    0    0  0.42309500407E+02  0.13325516412E+02 -0.62689970467E+02  0.11065023524E+03  0.79660397616E+02 0.  0.
         23    2    1    2    0    0 -0.64557271469E+02 -0.33162375884E+02 -0.23763125565E+03  0.26423575458E+03  0.89914047099E+02 0.  0.
        -11    1    3    3    0    0  0.10014095942E+02 -0.33049220409E+02 -0.20901285607E+02  0.40365787831E+02  0.00000000000E+00 0.  1.
         12    1    3    3    0    0  0.32295404464E+02  0.46374736820E+02 -0.41788684860E+02  0.70284447405E+02  0.00000000000E+00 0. -1.
        -11    1    4    4    0    0 -0.72415072112E+02 -0.53265168942E+02 -0.21461913863E+03  0.23268540040E+03  0.00000000000E+00 0.  1.
         11    1    4    4    0    0  0.78578006422E+01  0.20102793058E+02 -0.23012117017E+02  0.31550354186E+02  0.00000000000E+00 0. -1.
         21    1    1    2  502  501  0.22247771063E+02  0.19836859472E+02 -0.43732123221E+02  0.52924124106E+02  0.00000000000E+00 0. -1.
<scales pt_clust_5="13000.00000" pt_clust_6="13000.00000" pt_clust_7="13000.00000" pt_clust_8="13000.00000" pt_clust_9="29.80712"></scales>
<clustering>
<clus scale="   29.807">  2  9  1 -1</clus>
<clus scale="   79.660">  5  6 -1 -1</clus>
<clus scale="   89.914">  7  8 -1 -1</clus>
<clus scale="   94.821">  1  5  2 -1</clus>
<clus scale="   29.807">  2  5  1 -1</clus>
</clustering>
</event>
<event>
 9    2  0.2869112E-005  0.9217229E+02  0.7546771E-02  0.1303966E+00
         -1   -1    0    0    0  501 -0.00000000000E+00  0.00000000000E+00  0.62846050989E+03  0.62846050989E+03  0.00000000000E+00 0.  1.
          2   -1    0    0  502    0  0.00000000000E+00 -0.00000000000E+00 -0.11989233586E+03  0.11989233586E+03  0.00000000000E+00 0. -1.
         23    2    1    2    0    0  0.28207501013E+02  0.62560640224E+02  0.12654824792E+03  0.17033179533E+03  0.91043751193E+02 0.  0.
         24    2    1    2    0    0 -0.98093513838E+01 -0.19949801097E+01 -0.78534538674E+02  0.11313707980E+03  0.80821542558E+02 0.  0.
        -13    1    4    4    0    0  0.10315463179E+02 -0.31271382001E+02 -0.75866265145E+01  0.33791493230E+02  0.00000000000E+00 0.  1.
         14    1    4    4    0    0 -0.20124814562E+02  0.29276401891E+02 -0.70947912160E+02  0.79345586573E+02  0.00000000000E+00 0. -1.
        -11    1    3    3    0    0  0.42185164315E+02  0.14407800376E+02  0.10805585885E+03  0.11688986881E+03  0.00000000000E+00 0.  1.
         11    1    3    3    0    0 -0.13977663302E+02  0.48152839848E+02  0.18492389076E+02  0.53441926523E+02  0.00000000000E+00 0. -1.
         21    1    1    2  502  501 -0.18398149629E+02 -0.60565660114E+02  0.46055446479E+03  0.46488397061E+03  0.00000000000E+00 0.  1.
<scales pt_clust_5="13000.00000" pt_clust_6="13000.00000" pt_clust_7="13000.00000" pt_clust_8="13000.00000" pt_clust_9="63.29843"></scales>
<clustering>
<clus scale="   63.298">  1  9  2 -1</clus>
<clus scale="   80.822">  5  6 -1 -1</clus>
<clus scale="   82.091">  2  5  1 -1</clus>
<clus scale="   91.044">  7  8 -1 -1</clus>
<clus scale="   82.091">  2  5  1 -1</clus>
</clustering>
</event>
<event>
 9    2  0.2869112E-005  0.1145905E+03  0.7546771E-02  0.1264802E+00
          2   -1    0    0  502    0  0.00000000000E+00  0.00000000000E+00  0.62528046816E+03  0.62528046816E+03  0.00000000000E+00 0. -1.
         -1   -1    0    0    0  501 -0.00000000000E+00 -0.00000000000E+00 -0.16702018609E+03  0.16702018609E+03  0.00000000000E+00 0.  1.
         23    2    1    2    0    0  0.47272132205E+02 -0.21977671206E+02 -0.10547239467E+03  0.15727534778E+03  0.10437162673E+03 0.  0.
         24    2    1    2    0    0  0.41978437718E+02  0.26227191361E+02  0.53279667959E+03  0.54046972190E+03  0.76060263639E+02 0.  0.
        -11    1    4    4    0    0  0.25669237828E+02 -0.11885683609E+02  0.65621328653E+02  0.71458645521E+02  0.00000000000E+00 0.  1.
         12    1    4    4    0    0  0.16309199890E+02  0.38112874970E+02  0.46717535094E+03  0.46901107638E+03  0.00000000000E+00 0. -1.
        -13    1    3    3    0    0  0.78792159695E+02 -0.58491173611E+01 -0.86323707557E+02  0.11702221622E+03  0.00000000000E+00 0.  1.
         13    1    3    3    0    0 -0.31520027489E+02 -0.16128553845E+02 -0.19148687116E+02  0.40253131559E+02  0.00000000000E+00 0. -1.
         21    1    1    2  502  501 -0.89250569924E+02 -0.42495201545E+01  0.30935997154E+02  0.94555584569E+02  0.00000000000E+00 0. -1.
<scales pt_clust_5="13000.00000" pt_clust_6="13000.00000" pt_clust_7="13000.00000" pt_clust_8="13000.00000" pt_clust_9="89.35168"></scales>
<clustering>
<clus scale="   76.060">  5  6 -1 -1</clus>
<clus scale="   89.352">  2  9  1 -1</clus>
<clus scale="   89.570">  1  5  2 -1</clus>
<clus scale="  104.372">  7  8 -1 -1</clus>
<clus scale="   89.570">  1  5  2 -1</clus>
</clustering>
</event>
<event>
 9    2  0.2869112E-005  0.9120243E+02  0.7546771E-02  0.1306862E+00
          2   -1    0    0  502    0  0.00000000000E+00  0.00000000000E+00  0.13117701476E+03  0.13117701476E+03  0.00000000000E+00 0. -1.
         -1   -1    0    0    0  501 -0.00000000000E+00 -0.00000000000E+00 -0.32613206250E+03  0.32613206250E+03  0.00000000000E+00 0.  1.
         23    2    1    2    0    0  0.12800070579E+02 -0.45622606385E+02 -0.20446275475E+03  0.22854686711E+03  0.90462082486E+02 0.  0.
         24    2    1    2    0    0  0.12873411689E+02 -0.62063411312E+01  0.95519799684E+02  0.12511160677E+03  0.79527596589E+02 0.  0.
        -13    1    4    4    0    0  0.25159759813E+02 -0.34057678392E+02  0.80967568424E+02  0.91371144832E+02  0.00000000000E+00 0.  1.
         14    1    4    4    0    0 -0.12286348123E+02  0.27851337261E+02  0.14552231259E+02  0.33740461942E+02  0.00000000000E+00 0. -1.
        -13    1    3    3    0    0 -0.22852737541E+02 -0.50811898830E+02 -0.16918639398E+03  0.17812392480E+03  0.00000000000E+00 0.  1.
         13    1    3    3    0    0  0.35652808120E+02  0.51892924456E+01 -0.35276360761E+02  0.50422942313E+02  0.00000000000E+00 0. -1.
         21    1    1    2  502  501 -0.25673482268E+02  0.51828947516E+02 -0.86012092677E+02  0.10365060337E+03  0.00000000000E+00 0. -1.
<scales pt_clust_5="13000.00000" pt_clust_6="13000.00000" pt_clust_7="13000.00000" pt_clust_8="13000.00000" pt_clust_9="57.83915"></scales>
<clustering>
<clus scale="   57.839">  2  9  1 -1</clus>
<clus scale="   79.528">  5  6 -1 -1</clus>
<clus scale="   80.369">  1  5  2 -1</clus>
<clus scale="   90.462">  7  8 -1 -1</clus>
<clus scale="   80.369">  1  5  2 -1</clus>
</clustering>
</event>
<event>
 9    2  0.2869112E-005  0.1089911E+03  0.7546771E-02  0.1263628E+00
          2   -1    0    0  502    0  0.00000000000E+00  0.00000000000E+00  0.70936909334E+03  0.70936909334E+03  0.00000000000E+00 0. -1.
         -1   -1    0    0    0  501 -0.00000000000E+00 -0.00000000000E+00 -0.27496649454E+02  0.27496649454E+02  0.00000000000E+00 0.  1.
         23    2    1    2    0    0  0.53875830782E+02 -0.42145740575E+02  0.16282499076E+03  0.19856009497E+03  0.90748361463E+02 0.  0.
         24    2    1    2    0    0 -0.29348869792E+02  0.43344782127E+02  0.48243424214E+03  0.49422008630E+03  0.93651318285E+02 0.  0.
        -11    1    4    4    0    0 -0.15229464062E+01 -0.28666204308E+02  0.98337023985E+02  0.10244140238E+03  0.00000000000E+00 0.  1.
         12    1    4    4    0    0 -0.27825923385E+02  0.72010986435E+02  0.38409721816E+03  0.39177868392E+03  0.00000000000E+00 0. -1.
        -11    1    3    3    0    0  0.63142958837E+02  0.55459567895E+01  0.75044786685E+02  0.98231924016E+02  0.00000000000E+00 0. -1.
         11    1    3    3    0    0 -0.92671280550E+01 -0.47691697364E+02  0.87780204071E+02  0.10032817095E+03  0.00000000000E+00 0.  1.
         21    1    1    2  502  501 -0.24526960991E+02 -0.11990415524E+01  0.36613210989E+02  0.44085561526E+02  0.00000000000E+00 0.  1.
<scales pt_clust_5="13000.00000" pt_clust_6="13000.00000" pt_clust_7="13000.00000" pt_clust_8="13000.00000" pt_clust_9="24.55625"></scales>
<clustering>
<clus scale="   24.556">  2  9  1 -1</clus>
<clus scale="   90.748">  7  8 -1 -1</clus>
<clus scale="   93.651">  5  6 -1 -1</clus>
<clus scale="  106.507">  2  7  1 -1</clus>
<clus scale="  108.991">  1  5  2 -1</clus>
</clustering>
</event>
<event>
 9    2  0.2869112E-005  0.1151428E+03  0.7546771E-02  0.1254003E+00
         -1   -1    0    0    0  501 -0.00000000000E+00  0.00000000000E+00  0.83241768446E+02  0.83241768446E+02  0.00000000000E+00 0.  1.
          2   -1    0    0  502    0  0.00000000000E+00 -0.00000000000E+00 -0.42450816798E+03  0.42450816798E+03  0.00000000000E+00 0. -1.
         23    2    1    2    0    0  0.63277183656E+02 -0.53451725325E+02 -0.19189487756E+03  0.22779060956E+03  0.90574990259E+02 0.  0.
         24    2    1    2    0    0 -0.57458466437E+02  0.27388535777E+02 -0.19834020220E+03  0.22418227995E+03  0.82868881849E+02 0.  0.
        -13    1    4    4    0    0 -0.61892646250E+02 -0.11591719337E+02 -0.98461319338E+02  0.11687471507E+03  0.00000000000E+00 0.  1.
         14    1    4    4    0    0  0.44341798123E+01  0.38980255114E+02 -0.99878882858E+02  0.10730756488E+03  0.00000000000E+00 0. -1.
        -11    1    3    3    0    0  0.29033716444E+02 -0.59184107009E+02 -0.52894146030E+02  0.84519263469E+02  0.00000000000E+00 0.  1.
         11    1    3    3    0    0  0.34243467212E+02  0.57323816834E+01 -0.13900073153E+03  0.14327134610E+03  0.00000000000E+00 0. -1.
         21    1    1    2  502  501 -0.58187172191E+01  0.26063189548E+02  0.48968680222E+02  0.55777046911E+02  0.00000000000E+00 0.  1.
<scales pt_clust_5="13000.00000" pt_clust_6="13000.00000" pt_clust_7="13000.00000" pt_clust_8="13000.00000" pt_clust_9="26.70482"></scales>
<clustering>
<clus scale="   26.705">  1  9  2 -1</clus>
<clus scale="   82.869">  5  6 -1 -1</clus>
<clus scale="   90.575">  7  8 -1 -1</clus>
<clus scale="  109.185">  2  5  1 -1</clus>
<clus scale="  109.185">  2  5  1 -1</clus>
</clustering>
</event>
<event>
 9    2  0.2869112E-005  0.1434700E+03  0.7546771E-02  0.1209860E+00
         -1   -1    0    0    0  501 -0.00000000000E+00  0.00000000000E+00  0.11583554931E+03  0.11583554931E+03  0.00000000000E+00 0.  1.
          2   -1    0    0  502    0  0.00000000000E+00 -0.00000000000E+00 -0.64192400480E+03  0.64192400480E+03  0.00000000000E+00 0. -1.
         23    2    1    2    0    0 -0.89917296090E+02  0.73671119587E+02  0.54079240712E+02  0.15498181918E+03  0.87076093173E+02 0.  0.
         24    2    1    2    0    0  0.71352136586E+02 -0.54414336879E+02 -0.54660020595E+03  0.55985611765E+03  0.81332895416E+02 0.  0.
        -11    1    4    4    0    0  0.21829310565E+02 -0.24300234776E+02 -0.48988748870E+02  0.58880537750E+02  0.00000000000E+00 0.  1.
         12    1    4    4    0    0  0.49522826021E+02 -0.30114102103E+02 -0.49761145708E+03  0.50097557990E+03  0.00000000000E+00 0. -1.
        -11    1    3    3    0    0 -0.71522081434E+02  0.61830312191E+02  0.78000017521E+02  0.12256589400E+03  0.00000000000E+00 0.  1.
         11    1    3    3    0    0 -0.18395214656E+02  0.11840807396E+02 -0.23920776810E+02  0.32415925179E+02  0.00000000000E+00 0. -1.
         21    1    1    2  502  501  0.18565159504E+02 -0.19256782708E+02 -0.33567490262E+02  0.42921617283E+02  0.00000000000E+00 0. -1.
<scales pt_clust_5="13000.00000" pt_clust_6="13000.00000" pt_clust_7="13000.00000" pt_clust_8="13000.00000" pt_clust_9="26.74862"></scales>
<clustering>
<clus scale="   26.749">  2  9  1 -1</clus>
<clus scale="   81.333">  5  6 -1 -1</clus>
<clus scale="   87.076">  7  8 -1 -1</clus>
<clus scale="  140.059">  2  5  1 -1</clus>
<clus scale="   26.749">  2  5  1 -1</clus>
</clustering>
</event>
<event>
 9    2  0.2869112E-005  0.1003373E+03  0.7546771E-02  0.1291859E+00
         -1   -1    0    0    0  501 -0.00000000000E+00  0.00000000000E+00  0.15822569610E+03  0.15822569610E+03  0.00000000000E+00 0.  1.
          2   -1    0    0  502    0  0.00000000000E+00 -0.00000000000E+00 -0.13706256237E+03  0.13706256237E+03  0.00000000000E+00 0. -1.
         23    2    1    2    0    0  0.13020917407E+02  0.29628853298E+02  0.11021646877E+03  0.14975147014E+03  0.96075072648E+02 0.  0.
         24    2    1    2    0    0  0.86684284608E+01 -0.28039647472E+02 -0.93953130284E+02  0.12324415966E+03  0.74165819063E+02 0.  0.
        -11    1    4    4    0    0  0.29613075074E+02  0.73699683761E+01 -0.14531390072E+02  0.33799585006E+02  0.00000000000E+00 0.  1.
         12    1    4    4    0    0 -0.20944646613E+02 -0.35409615848E+02 -0.79421740212E+02  0.89444574651E+02  0.00000000000E+00 0. -1.
        -11    1    3    3    0    0  0.52243520151E+02  0.14419474607E+02  0.84681825282E+02  0.10054013218E+03  0.00000000000E+00 0.  1.
         11    1    3    3    0    0 -0.39222602744E+02  0.15209378691E+02  0.25534643488E+02  0.49211337964E+02  0.00000000000E+00 0. -1.
         21    1    1    2  502  501 -0.21689345868E+02 -0.15892058257E+01  0.48997952505E+01  0.22292628666E+02  0.00000000000E+00 0. -1.
<scales pt_clust_5="13000.00000" pt_clust_6="13000.00000" pt_clust_7="13000.00000" pt_clust_8="13000.00000" pt_clust_9="21.74749"></scales>
<clustering>
<clus scale="   21.747">  1  9  2 -1</clus>
<clus scale="   74.166">  5  6 -1 -1</clus>
<clus scale="   79.610">  2  5  1 -1</clus>
<clus scale="   96.075">  7  8 -1 -1</clus>
<clus scale="   79.610">  2  5  1 -1</clus>
</clustering>
</event>
<event>
 9    2  0.2869112E-005  0.1656426E+03  0.7546771E-02  0.1188746E+00
          2   -1    0    0  502    0  0.00000000000E+00  0.00000000000E+00  0.15475032945E+03  0.15475032945E+03  0.00000000000E+00 0. -1.
         -1   -1    0    0    0  501 -0.00000000000E+00 -0.00000000000E+00 -0.38850441446E+03  0.38850441446E+03  0.00000000000E+00 0.  1.
         23    2    1    2    0    0 -0.72252284533E+02 -0.11287328629E+03 -0.54956727480E+02  0.17425833473E+03  0.96875971989E+02 0.  0.
         24    2    1    2    0    0 -0.76870070459E+02  0.90677222807E+02 -0.12579373054E+02  0.14458927837E+03  0.81341578085E+02 0.  0.
        -13    1    4    4    0    0  0.14723057014E+02  0.31212111868E+02  0.11285946800E+01  0.34528800458E+02  0.00000000000E+00 0.  1.
         14    1    4    4    0    0 -0.91593127474E+02  0.59465110938E+02 -0.13707967734E+02  0.11006047791E+03  0.00000000000E+00 0. -1.
        -11    1    3    3    0    0  0.85956063134E+01 -0.26701249920E+02  0.19890022780E+02  0.34386831802E+02  0.00000000000E+00 0. -1.
         11    1    3    3    0    0 -0.80847890846E+02 -0.86172036367E+02 -0.74846750259E+02  0.13987150292E+03  0.00000000000E+00 0.  1.
         21    1    1    2  502  501  0.14912235499E+03  0.22196063481E+02 -0.16621798448E+03  0.22440713081E+03  0.00000000000E+00 0.  1.
<scales pt_clust_5="13000.00000" pt_clust_6="13000.00000" pt_clust_7="13000.00000" pt_clust_8="13000.00000" pt_clust_9="134.35966"></scales>
<clustering>
<clus scale="   81.342">  5  6 -1 -1</clus>
<clus scale="   96.876">  7  8 -1 -1</clus>
<clus scale="  144.041">  1  5  2 -1</clus>
<clus scale="  134.360">  2  9  1 -1</clus>
<clus scale="  144.041">  1  5  2 -1</clus>
</clustering>
</event>
<event>
 9    2  0.2869112E-005  0.8826460E+02  0.7546771E-02  0.1312932E+00
          2   -1    0    0  502    0  0.00000000000E+00  0.00000000000E+00  0.20632836634E+03  0.20632836634E+03  0.00000000000E+00 0. -1.
         -1   -1    0    0    0  501 -0.00000000000E+00 -0.00000000000E+00 -0.28817900743E+03  0.28817900743E+03  0.00000000000E+00 0.  1.
         24    2    1    2    0    0 -0.40101211448E+02  0.13163326944E+02 -0.90537638876E+02  0.12604275337E+03  0.76865670407E+02 0.  0.
         23    2    1    2    0    0  0.20340669380E+01  0.22394755216E+02  0.17386829148E+03  0.19526431877E+03  0.85978537523E+02 0.  0.
        -11    1    3    3    0    0  0.19807672780E+02  0.16061850093E+02 -0.40847852484E+02  0.48154688058E+02  0.00000000000E+00 0.  1.
         12    1    3    3    0    0 -0.59908884228E+02 -0.28985231482E+01 -0.49689786392E+02  0.77888065309E+02  0.00000000000E+00 0. -1.
        -11    1    4    4    0    0  0.47259732166E+01 -0.24323278322E+02  0.12565778816E+03  0.12807746256E+03  0.00000000000E+00 0.  1.
         11    1    4    4    0    0 -0.26919062787E+01  0.46718033538E+02  0.48210503314E+02  0.67186856206E+02  0.00000000000E+00 0. -1.
         21    1    1    2  502  501  0.38067144510E+02 -0.35558082160E+02 -0.16518129369E+03  0.17320030162E+03  0.00000000000E+00 0.  1.
<scales pt_clust_5="13000.00000" pt_clust_6="13000.00000" pt_clust_7="13000.00000" pt_clust_8="13000.00000" pt_clust_9="52.09112"></scales>
<clustering>
<clus scale="   52.091">  2  9  1 -1</clus>
<clus scale="   76.866">  5  6 -1 -1</clus>
<clus scale="   79.414">  2  5  1 -1</clus>
<clus scale="   85.979">  7  8 -1 -1</clus>
<clus scale="   88.265">  1  5  2 -1</clus>
</clustering>
</event>
<event>
 9    2  0.2869112E-005  0.1049617E+03  0.7546771E-02  0.1274999E+00
         -1   -1    0    0    0  501 -0.00000000000E+00  0.00000000000E+00  0.47588179449E+02  0.47588179449E+02  0.00000000000E+00 0.  1.
          2   -1    0    0  502    0  0.00000000000E+00 -0.00000000000E+00 -0.83689118116E+03  0.83689118116E+03  0.00000000000E+00 0. -1.
         23    2    1    2    0    0 -0.96616532168E+01  0.17465385069E+02 -0.19105905132E+02  0.95731446400E+02  0.91657443781E+02 0.  0.
         24    2    1    2    0    0  0.33428996376E+02 -0.42146336212E+02 -0.72772270462E+03  0.73417585247E+03  0.80870489522E+02 0.  0.
        -11    1    4    4    0    0  0.38816200742E+02  0.10985106354E+02 -0.22145563593E+03  0.22509990824E+03  0.00000000000E+00 0.  1.
         12    1    4    4    0    0 -0.53872043664E+01 -0.53131442565E+02 -0.50626706869E+03  0.50907594423E+03  0.00000000000E+00 0. -1.
        -11    1    3    3    0    0 -0.48817844494E+01  0.53694592889E+02  0.11924144144E+01  0.53929240464E+02  0.00000000000E+00 0.  1.
         11    1    3    3    0    0 -0.47798687674E+01 -0.36229207820E+02 -0.20298319546E+02  0.41802205936E+02  0.00000000000E+00 0. -1.
         21    1    1    2  502  501 -0.23767343159E+02  0.24680951142E+02 -0.42474391963E+02  0.54572061742E+02  0.00000000000E+00 0.  1.
<scales pt_clust_5="13000.00000" pt_clust_6="13000.00000" pt_clust_7="13000.00000" pt_clust_8="13000.00000" pt_clust_9="34.26421"></scales>
<clustering>
<clus scale="   34.264">  1  9  2 -1</clus>
<clus scale="   80.870">  5  6 -1 -1</clus>
<clus scale="   91.657">  7  8 -1 -1</clus>
<clus scale="   95.686">  2  5  1 -1</clus>
<clus scale="   95.686">  2  5  1 -1</clus>
</clustering>
</event>
<event>
 9    2  0.2869112E-005  0.4015932E+03  0.7546771E-02  0.1043229E+00
          4   -1    0    0  502    0  0.00000000000E+00  0.00000000000E+00  0.16212339027E+04  0.16212339027E+04  0.00000000000E+00 0. -1.
         -3   -1    0    0    0  501 -0.00000000000E+00 -0.00000000000E+00 -0.11213977935E+03  0.11213977935E+03  0.00000000000E+00 0.  1.
         24    2    1    2    0    0 -0.14296350665E+03  0.71612640020E+01  0.10648716304E+03  0.19537919401E+03  0.79647131931E+02 0.  0.
         23    2    1    2    0    0 -0.12611157728E+03  0.17220011248E+03  0.25244992426E+03  0.34324216570E+03  0.92342901160E+02 0.  0.
        -11    1    3    3    0    0 -0.76896131944E+02 -0.31457278313E+02  0.77284690814E+02  0.11347025558E+03  0.00000000000E+00 0.  1.
         12    1    3    3    0    0 -0.66067374705E+02  0.38618542315E+02  0.29202472222E+02  0.81908938431E+02  0.00000000000E+00 0. -1.
        -11    1    4    4    0    0 -0.11988546172E+03  0.90432372688E+02  0.17262642586E+03  0.22880214349E+03  0.00000000000E+00 0.  1.
         11    1    4    4    0    0 -0.62261155541E+01  0.81767739794E+02  0.79823498400E+02  0.11444002221E+03  0.00000000000E+00 0. -1.
         21    1    1    2  502  501  0.26907508393E+03 -0.17936137648E+03  0.11501570360E+04  0.11947523223E+04  0.00000000000E+00 0. -1.
<scales pt_clust_5="13000.00000" pt_clust_6="13000.00000" pt_clust_7="13000.00000" pt_clust_8="13000.00000" pt_clust_9="323.37579"></scales>
<clustering>
<clus scale="   79.647">  5  6 -1 -1</clus>
<clus scale="   92.343">  7  8 -1 -1</clus>
<clus scale="  163.434">  5  7 -1 -1</clus>
<clus scale="  323.376">  1  9  2 -1</clus>
<clus scale="  323.376">  1  5  2 -1</clus>
</clustering>
</event>
<event>
 9    2  0.2869112E-005  0.9462443E+02  0.7546771E-02  0.1295974E+00
         -1   -1    0    0    0  501 -0.00000000000E+00  0.00000000000E+00  0.87444671493E+02  0.87444671493E+02  0.00000000000E+00 0.  1.
          2   -1    0    0  502    0  0.00000000000E+00 -0.00000000000E+00 -0.57790480327E+03  0.57790480327E+03  0.00000000000E+00 0. -1.
         23    2    1    2    0    0  0.37253284106E+02  0.32195775840E+02 -0.37461241518E+02  0.10836647892E+03  0.88969511508E+02 0.  0.
         24    2    1    2    0    0  0.21640007984E+02 -0.27750565868E+02 -0.48272037562E+03  0.49086532471E+03  0.81801113146E+02 0.  0.
        -13    1    4    4    0    0  0.34569851973E+02  0.18277550438E+02 -0.16515969309E+03  0.16972586055E+03  0.00000000000E+00 0.  1.
         14    1    4    4    0    0 -0.12929843989E+02 -0.46028116306E+02 -0.31756068252E+03  0.32113946416E+03  0.00000000000E+00 0. -1.
        -11    1    3    3    0    0  0.53245832030E+02 -0.10193515293E+02 -0.31419880385E+02  0.62659678151E+02  0.00000000000E+00 0. -1.
         11    1    3    3    0    0 -0.15992547924E+02  0.42389291133E+02 -0.60413611329E+01  0.45706800765E+02  0.00000000000E+00 0.  1.
         21    1    1    2  502  501 -0.58893292090E+02 -0.44452099716E+01  0.29721485359E+02  0.66117671139E+02  0.00000000000E+00 0.  1.
<scales pt_clust_5="13000.00000" pt_clust_6="13000.00000" pt_clust_7="13000.00000" pt_clust_8="13000.00000" pt_clust_9="59.06081"></scales>
<clustering>
<clus scale="   59.061">  1  9  2 -1</clus>
<clus scale="   81.801">  5  6 -1 -1</clus>
<clus scale="   87.918">  2  5  1 -1</clus>
<clus scale="   88.970">  7  8 -1 -1</clus>
<clus scale="   87.918">  2  5  1 -1</clus>
</clustering>
</event>
<event>
 9    2  0.2869112E-005  0.1532947E+03  0.7546771E-02  0.1208635E+00
         -1   -1    0    0    0  501 -0.00000000000E+00  0.00000000000E+00  0.57013486849E+03  0.57013486849E+03  0.00000000000E+00 0.  1.
          2   -1    0    0  502    0  0.00000000000E+00 -0.00000000000E+00 -0.27752874652E+03  0.27752874652E+03  0.00000000000E+00 0. -1.
         23    2    1    2    0    0 -0.59705025409E+01 -0.74169080485E+02  0.20801807851E+03  0.23908927320E+03  0.91408206254E+02 0.  0.
         24    2    1    2    0    0 -0.12181924590E+03  0.48969520970E+02 -0.22486017575E+03  0.27283122874E+03  0.81466791271E+02 0.  0.
        -13    1    4    4    0    0 -0.40600893243E+02 -0.11684329260E+02 -0.25951691146E+02  0.49582722351E+02  0.00000000000E+00 0.  1.
         14    1    4    4    0    0 -0.81218352661E+02  0.60653850230E+02 -0.19890848460E+03  0.22324850639E+03  0.00000000000E+00 0. -1.
        -13    1    3    3    0    0 -0.39832854715E+02 -0.40070596095E+02  0.55579016822E+02  0.79254880588E+02  0.00000000000E+00 0. -1.
         13    1    3    3    0    0  0.33862352174E+02 -0.34098484389E+02  0.15243906169E+03  0.15983439261E+03  0.00000000000E+00 0.  1.
         21    1    1    2  502  501  0.12778974845E+03  0.25199559515E+02  0.30944821920E+03  0.33574311307E+03  0.00000000000E+00 0. -1.
<scales pt_clust_5="13000.00000" pt_clust_6="13000.00000" pt_clust_7="13000.00000" pt_clust_8="13000.00000" pt_clust_9="129.85536"></scales>
<clustering>
<clus scale="   81.467">  5  6 -1 -1</clus>
<clus scale="   91.408">  7  8 -1 -1</clus>
<clus scale="  117.865">  1  7  2 -1</clus>
<clus scale="  129.855">  1  9  2 -1</clus>
<clus scale="  153.295">  2  5  1 -1</clus>
</clustering>
</event>
<event>
 9    2  0.2869112E-005  0.1038371E+03  0.7546771E-02  0.1277484E+00
          2   -1    0    0  502    0  0.00000000000E+00  0.00000000000E+00  0.13958096991E+04  0.13958096991E+04  0.00000000000E+00 0. -1.
         -1   -1    0    0    0  501 -0.00000000000E+00 -0.00000000000E+00 -0.23842981871E+02  0.23842981871E+02  0.00000000000E+00 0.  1.
         23    2    1    2    0    0  0.43622815825E+02  0.92075411477E+02  0.31442936089E+03  0.34308761159E+03  0.91991601701E+02 0.  0.
         24    2    1    2    0    0 -0.34938650844E+02 -0.22113097122E+02  0.89222308487E+03  0.89684598718E+03  0.80999957818E+02 0.  0.
        -11    1    4    4    0    0 -0.27038520549E+02 -0.29405672690E+02  0.17337801863E+03  0.17792052305E+03  0.00000000000E+00 0.  1.
         12    1    4    4    0    0 -0.79001302952E+01  0.72925755676E+01  0.71884506624E+03  0.71892546413E+03  0.00000000000E+00 0. -1.
        -11    1    3    3    0    0 -0.27524315490E+02  0.12666094073E+02  0.80239598860E+02  0.85769523185E+02  0.00000000000E+00 0. -1.
         11    1    3    3    0    0  0.71147131314E+02  0.79409317404E+02  0.23418976203E+03  0.25731808841E+03  0.00000000000E+00 0.  1.
         21    1    1    2  502  501 -0.86841649807E+01 -0.69962314355E+02  0.16531427147E+03  0.17971908219E+03  0.00000000000E+00 0.  1.
<scales pt_clust_5="13000.00000" pt_clust_6="13000.00000" pt_clust_7="13000.00000" pt_clust_8="13000.00000" pt_clust_9="70.49922"></scales>
<clustering>
<clus scale="   70.499">  2  9  1 -1</clus>
<clus scale="   81.000">  5  6 -1 -1</clus>
<clus scale="   91.992">  7  8 -1 -1</clus>
<clus scale="   94.237">  1  5  2 -1</clus>
<clus scale="   94.237">  1  5  2 -1</clus>
</clustering>
</event>
<event>
 9    2  0.2869112E-005  0.1024780E+03  0.7546771E-02  0.1281503E+00
         -1   -1    0    0    0  501 -0.00000000000E+00  0.00000000000E+00  0.68011482640E+02  0.68011482640E+02  0.00000000000E+00 0.  1.
          2   -1    0    0  502    0  0.00000000000E+00 -0.00000000000E+00 -0.28257943466E+03  0.28257943466E+03  0.00000000000E+00 0. -1.
         24    2    1    2    0    0 -0.22280162114E+01  0.40851331507E+02 -0.35327794987E+02  0.95083770452E+02  0.78224516378E+02 0.  0.
         23    2    1    2    0    0 -0.50133308866E+02 -0.29208506481E+02 -0.16922284488E+03  0.20093966311E+03  0.91508969358E+02 0.  0.
        -13    1    3    3    0    0  0.37543235348E+02  0.18355227472E+02 -0.10532446009E+02  0.43096882891E+02  0.00000000000E+00 0.  1.
         14    1    3    3    0    0 -0.39771251560E+02  0.22496104035E+02 -0.24795348979E+02  0.51986887562E+02  0.00000000000E+00 0. -1.
        -11    1    4    4    0    0 -0.38037386676E+00 -0.51441924189E+02 -0.10336683408E+03  0.11546046352E+03  0.00000000000E+00 0.  1.
         11    1    4    4    0    0 -0.49752934999E+02  0.22233417709E+02 -0.65856010798E+02  0.85479199588E+02  0.00000000000E+00 0. -1.
         21    1    1    2  502  501  0.52361325077E+02 -0.11642825027E+02 -0.10017312151E+02  0.54567483735E+02  0.00000000000E+00 0.  1.
<scales pt_clust_5="13000.00000" pt_clust_6="13000.00000" pt_clust_7="13000.00000" pt_clust_8="13000.00000" pt_clust_9="53.64013"></scales>
<clustering>
<clus scale="   53.640">  1  9  2 -1</clus>
<clus scale="   78.225">  5  6 -1 -1</clus>
<clus scale="   90.813">  1  5  2 -1</clus>
<clus scale="   91.509">  7  8 -1 -1</clus>
<clus scale="  102.478">  2  5  1 -1</clus>
</clustering>
</event>
<event>
 9    2  0.2869112E-005  0.1008649E+03  0.7546771E-02  0.1278725E+00
          4   -1    0    0  502    0  0.00000000000E+00  0.00000000000E+00  0.20850616946E+03  0.20850616946E+03  0.00000000000E+00 0. -1.
         -3   -1    0    0    0  501 -0.00000000000E+00 -0.00000000000E+00 -0.12195901880E+03  0.12195901880E+03  0.00000000000E+00 0.  1.
         24    2    1    2    0    0  0.62400897403E+01 -0.54515136766E+01 -0.86900174205E+01  0.91401685592E+02  0.90609569059E+02 0.  0.
         23    2    1    2    0    0  0.28095730845E+00  0.57440045947E+02  0.13542157160E+03  0.17303231436E+03  0.91113895438E+02 0.  0.
        -13    1    3    3    0    0  0.45644763205E+02 -0.93454180429E+01 -0.19264709063E+02  0.50417360718E+02  0.00000000000E+00 0.  1.
         14    1    3    3    0    0 -0.39404673465E+02  0.38939043662E+01  0.10574691643E+02  0.40984324875E+02  0.00000000000E+00 0. -1.
        -13    1    4    4    0    0 -0.31759332552E+02  0.24009037963E+02  0.11631422812E+03  0.12293937030E+03  0.00000000000E+00 0. -1.
         13    1    4    4    0    0  0.32040289861E+02  0.33431007984E+02  0.19107343486E+02  0.50092944056E+02  0.00000000000E+00 0.  1.
         21    1    1    2  502  501 -0.65210470488E+01 -0.51988532270E+02 -0.40184403525E+02  0.66031188304E+02  0.00000000000E+00 0.  1.
<scales pt_clust_5="13000.00000" pt_clust_6="13000.00000" pt_clust_7="13000.00000" pt_clust_8="13000.00000" pt_clust_9="52.39591"></scales>
<clustering>
<clus scale="   52.396">  2  9  1 -1</clus>
<clus scale="   90.610">  5  6 -1 -1</clus>
<clus scale="   91.114">  7  8 -1 -1</clus>
<clus scale="  100.410">  2  5  1 -1</clus>
<clus scale="  100.865">  1  5  2 -1</clus>
</clustering>
</event>
<event>
 9    2  0.2869112E-005  0.9916810E+02  0.7546771E-02  0.1287452E+00
         -1   -1    0    0    0  501 -0.00000000000E+00  0.00000000000E+00  0.11352856634E+03  0.11352856634E+03  0.00000000000E+00 0.  1.
          2   -1    0    0  502    0  0.00000000000E+00 -0.00000000000E+00 -0.12178432764E+03  0.12178432764E+03  0.00000000000E+00 0. -1.
         23    2    1    2    0    0 -0.32987946660E+02  0.20599074590E+02  0.28219167718E+01  0.98261169729E+02  0.90192947415E+02 0.  0.
         24    2    1    2    0    0  0.47245657336E+02  0.15616174971E+02 -0.22570106183E+02  0.96469677503E+02  0.79504540289E+02 0.  0.
        -13    1    4    4    0    0  0.11415355794E+02 -0.25712651835E+02 -0.30163904537E+02  0.41246962909E+02  0.00000000000E+00 0.  1.
         14    1    4    4    0    0  0.35830301542E+02  0.41328826805E+02  0.75937983542E+01  0.55222714594E+02  0.00000000000E+00 0. -1.
        -11    1    3    3    0    0 -0.63661237198E+01 -0.32644963378E+02 -0.14471110212E+02  0.36271672086E+02  0.00000000000E+00 0. -1.
         11    1    3    3    0    0 -0.26621822940E+02  0.53244037968E+02  0.17293026984E+02  0.61989497643E+02  0.00000000000E+00 0.  1.
         21    1    1    2  502  501 -0.14257710676E+02 -0.36215249561E+02  0.11492428110E+02  0.40582046749E+02  0.00000000000E+00 0.  1.
<scales pt_clust_5="13000.00000" pt_clust_6="13000.00000" pt_clust_7="13000.00000" pt_clust_8="13000.00000" pt_clust_9="38.92077"></scales>
<clustering>
<clus scale="   38.921">  1  9  2 -1</clus>
<clus scale="   79.505">  5  6 -1 -1</clus>
<clus scale="   89.557">  2  5  1 -1</clus>
<clus scale="   90.193">  7  8 -1 -1</clus>
<clus scale="   89.557">  2  5  1 -1</clus>
</clustering>
</event>
<event>
 9    2  0.2869112E-005  0.1819651E+03  0.7546771E-02  0.1188970E+00
         -1   -1    0    0    0  501 -0.00000000000E+00  0.00000000000E+00  0.34406414222E+03  0.34406414222E+03  0.00000000000E+00 0.  1.
          2   -1    0    0  502    0  0.00000000000E+00 -0.00000000000E+00 -0.34112040473E+03  0.34112040473E+03  0.00000000000E+00 0. -1.
         24    2    1    2    0    0 -0.62115925459E+02  0.36893966741E+02  0.11152475086E+03  0.15532715867E+03  0.80431357002E+02 0.  0.
         23    2    1    2    0    0  0.15291933338E+03  0.58553167608E+02 -0.26553684205E+03  0.32494143844E+03  0.90908349277E+02 0.  0.
        -13    1    3    3    0    0 -0.75324432188E+02  0.35229887211E+02  0.11466986167E+03  0.14164777518E+03  0.00000000000E+00 0.  1.
         14    1    3    3    0    0  0.13208506728E+02  0.16640795305E+01 -0.31451108146E+01  0.13679383492E+02  0.00000000000E+00 0. -1.
        -13    1    4    4    0    0  0.77307590093E+01 -0.20140563234E+02 -0.39450089158E+02  0.44963501385E+02  0.00000000000E+00 0.  1.
         13    1    4    4    0    0  0.14518857437E+03  0.78693730841E+02 -0.22608675289E+03  0.27997793705E+03  0.00000000000E+00 0. -1.
         21    1    1    2  502  501 -0.90803407924E+02 -0.95447134349E+02  0.15695582868E+03  0.20491594985E+03  0.00000000000E+00 0.  1.
<scales pt_clust_5="13000.00000" pt_clust_6="13000.00000" pt_clust_7="13000.00000" pt_clust_8="13000.00000" pt_clust_9="157.62923"></scales>
<clustering>
<clus scale="   80.431">  5  6 -1 -1</clus>
<clus scale="   90.908">  7  8 -1 -1</clus>
<clus scale="  108.115">  1  5  2 -1</clus>
<clus scale="  157.629">  1  9  2 -1</clus>
<clus scale="  181.965">  2  5  1 -1</clus>
</clustering>
</event>
<event>
 9    2  0.2869112E-005  0.1111027E+03  0.7546771E-02  0.1269108E+00
          4   -1    0    0  502    0  0.00000000000E+00  0.00000000000E+00  0.82620047909E+02  0.82620047909E+02  0.00000000000E+00 0. -1.
         -3   -1    0    0    0  501 -0.00000000000E+00 -0.00000000000E+00 -0.41209107462E+03  0.41209107462E+03  0.00000000000E+00 0.  1.
         23    2    1    2    0    0 -0.50804700047E+02 -0.10964009706E+02 -0.27395882341E+03  0.29349787992E+03  0.91576424564E+02 0.  0.
         24    2    1    2    0    0 -0.31510374486E+02 -0.26816793306E+02  0.77826230167E+01  0.90717108695E+02  0.80355338873E+02 0.  0.
        -11    1    4    4    0    0 -0.35278736466E+02 -0.48739400736E+01  0.38715821587E+02  0.52604746740E+02  0.00000000000E+00 0.  1.
         12    1    4    4    0    0  0.37683619794E+01 -0.21942853233E+02 -0.30933198570E+02  0.38112361955E+02  0.00000000000E+00 0. -1.
        -11    1    3    3    0    0 -0.78724624089E+01  0.33937776996E+02 -0.49027079401E+02  0.60144849209E+02  0.00000000000E+00 0. -1.
         11    1    3    3    0    0 -0.42932237638E+02 -0.44901786702E+02 -0.22493174401E+03  0.23335303071E+03  0.00000000000E+00 0.  1.
         21    1    1    2  502  501  0.82315074533E+02  0.37780803012E+02 -0.63294826314E+02  0.11049613391E+03  0.00000000000E+00 0. -1.
<scales pt_clust_5="13000.00000" pt_clust_6="13000.00000" pt_clust_7="13000.00000" pt_clust_8="13000.00000" pt_clust_9="62.90924"></scales>
<clustering>
<clus scale="   80.355">  5  6 -1 -1</clus>
<clus scale="   90.383">  1  5  2 -1</clus>
<clus scale="   62.909">  1  9  2 -1</clus>
<clus scale="   91.576">  7  8 -1 -1</clus>
<clus scale="   90.383">  1  5  2 -1</clus>
</clustering>
</event>
<event>
 9    2  0.2869112E-005  0.9743332E+02  0.7546771E-02  0.1287440E+00
         -3   -1    0    0    0  501 -0.00000000000E+00  0.00000000000E+00  0.33790448534E+03  0.33790448534E+03  0.00000000000E+00 0.  1.
          4   -1    0    0  502    0  0.00000000000E+00 -0.00000000000E+00 -0.47591644653E+02  0.47591644653E+02  0.00000000000E+00 0. -1.
         24    2    1    2    0    0  0.44990311829E+02 -0.17209107119E+01  0.21663287017E+03  0.23684490279E+03  0.84490341763E+02 0.  0.
         23    2    1    2    0    0 -0.36428692350E+02  0.22262909766E+02  0.34438194548E+02  0.10353812450E+03  0.87814960027E+02 0.  0.
        -13    1    3    3    0    0  0.47990975400E+02 -0.33921489445E+02  0.17173486918E+03  0.18151216615E+03  0.00000000000E+00 0.  1.
         14    1    3    3    0    0 -0.30006635709E+01  0.32200578733E+02  0.44898000982E+02  0.55332736647E+02  0.00000000000E+00 0. -1.
        -13    1    4    4    0    0  0.27865047889E+02 -0.16218602041E+01  0.29475260342E+01  0.28067405190E+02  0.00000000000E+00 0.  1.
         13    1    4    4    0    0 -0.64293740239E+02  0.23884769970E+02  0.31490668514E+02  0.75470719314E+02  0.00000000000E+00 0. -1.
         21    1    1    2  502  501 -0.85616194788E+01 -0.20541999054E+02  0.39241775973E+02  0.45113102695E+02  0.00000000000E+00 0. -1.
<scales pt_clust_5="13000.00000" pt_clust_6="13000.00000" pt_clust_7="13000.00000" pt_clust_8="13000.00000" pt_clust_9="22.25478"></scales>
<clustering>
<clus scale="   22.255">  1  9  2 -1</clus>
<clus scale="   84.490">  5  6 -1 -1</clus>
<clus scale="   87.815">  7  8 -1 -1</clus>
<clus scale="   94.448">  1  5  2 -1</clus>
<clus scale="   97.433">  2  5  1 -1</clus>
</clustering>
</event>
<event>
 9    2  0.2869112E-005  0.1127378E+03  0.7546771E-02  0.1261907E+00
          2   -1    0    0  502    0  0.00000000000E+00  0.00000000000E+00  0.87779625632E+02  0.87779625632E+02  0.00000000000E+00 0. -1.
         -1   -1    0    0    0  501 -0.00000000000E+00 -0.00000000000E+00 -0.29770334689E+03  0.29770334689E+03  0.00000000000E+00 0.  1.
         24    2    1    2    0    0  0.49003982178E+02 -0.32991807719E+02 -0.21387807534E+03  0.23554041641E+03  0.79029152859E+02 0.  0.
         23    2    1    2    0    0 -0.70538157898E+02  0.18776427508E+02  0.16875902512E+02  0.12108490250E+03  0.95123980039E+02 0.  0.
        -11    1    3    3    0    0  0.63040550816E+02 -0.17238744860E+02 -0.19969394968E+03  0.21011653650E+03  0.00000000000E+00 0.  1.
         12    1    3    3    0    0 -0.14036568638E+02 -0.15753062860E+02 -0.14184125662E+02  0.25423879904E+02  0.00000000000E+00 0. -1.
        -11    1    4    4    0    0  0.21760851255E+02 -0.29161985788E+01 -0.74766476483E+01  0.23193514645E+02  0.00000000000E+00 0.  1.
         11    1    4    4    0    0 -0.92299009153E+02  0.21692626087E+02  0.24352550160E+02  0.97891387856E+02  0.00000000000E+00 0. -1.
         21    1    1    2  502  501  0.21534175720E+02  0.14215380212E+02 -0.12921548427E+02  0.28857653617E+02  0.00000000000E+00 0. -1.
<scales pt_clust_5="13000.00000" pt_clust_6="13000.00000" pt_clust_7="13000.00000" pt_clust_8="13000.00000" pt_clust_9="25.80306"></scales>
<clustering>
<clus scale="   25.803">  1  9  2 -1</clus>
<clus scale="   79.029">  5  6 -1 -1</clus>
<clus scale="   95.124">  7  8 -1 -1</clus>
<clus scale="   99.533">  2  5  1 -1</clus>
<clus scale="   25.803">  1  5  2 -1</clus>
</clustering>
</event>
<event>
 9    2  0.2869112E-005  0.1296788E+03  0.7546771E-02  0.1229710E+00
         -1   -1    0    0    0  501 -0.00000000000E+00  0.00000000000E+00  0.32568413266E+03  0.32568413266E+03  0.00000000000E+00 0.  1.
          2   -1    0    0  502    0  0.00000000000E+00 -0.00000000000E+00 -0.96561802129E+02  0.96561802129E+02  0.00000000000E+00 0. -1.
         23    2    1    2    0    0  0.85712335695E+02  0.23679728108E+02  0.21557906380E+03  0.24965169511E+03  0.89130814592E+02 0.  0.
         24    2    1    2    0    0 -0.10769331930E+03 -0.42906075324E+02  0.50610620026E+01  0.14218430931E+03  0.82170439598E+02 0.  0.
        -11    1    4    4    0    0 -0.60880607086E+01 -0.30924991415E+02  0.22061238844E+02  0.38472299601E+02  0.00000000000E+00 0.  1.
         12    1    4    4    0    0 -0.10160525859E+03 -0.11981083908E+02 -0.17000176842E+02  0.10371200971E+03  0.00000000000E+00 0. -1.
        -11    1    3    3    0    0  0.31162547490E+02  0.20827909073E+02  0.12742822558E+02  0.39588959183E+02  0.00000000000E+00 0. -1.
         11    1    3    3    0    0  0.54549788205E+02  0.28518190350E+01  0.20283624124E+03  0.21006273593E+03  0.00000000000E+00 0.  1.
         21    1    1    2  502  501  0.21980983608E+02  0.19226347216E+02  0.84822047245E+01  0.30409930362E+02  0.00000000000E+00 0. -1.
<scales pt_clust_5="13000.00000" pt_clust_6="13000.00000" pt_clust_7="13000.00000" pt_clust_8="13000.00000" pt_clust_9="29.20301"></scales>
<clustering>
<clus scale="   29.203">  2  9  1 -1</clus>
<clus scale="   82.170">  5  6 -1 -1</clus>
<clus scale="   89.131">  7  8 -1 -1</clus>
<clus scale="  124.997">  2  5  1 -1</clus>
<clus scale="   29.203">  2  5  1 -1</clus>
</clustering>
</event>
<event>
 9    2  0.2869112E-005  0.1051137E+03  0.7546771E-02  0.1274989E+00
          2   -1    0    0  502    0  0.00000000000E+00  0.00000000000E+00  0.75310149464E+03  0.75310149464E+03  0.00000000000E+00 0. -1.
         -1   -1    0    0    0  501 -0.00000000000E+00 -0.00000000000E+00 -0.27107149975E+02  0.27107149975E+02  0.00000000000E+00 0.  1.
         23    2    1    2    0    0  0.35558278510E+02  0.46657898579E+02  0.19320552920E+03  0.22155031039E+03  0.91185595643E+02 0.  0.
         24    2    1    2    0    0 -0.51902137759E+02 -0.12633139627E+02  0.49856233511E+03  0.50770484646E+03  0.79664176479E+02 0.  0.
        -13    1    4    4    0    0 -0.60667434837E+02  0.11328949718E+02  0.23710293174E+03  0.24500343465E+03  0.00000000000E+00 0.  1.
         14    1    4    4    0    0  0.87652970778E+01 -0.23962089345E+02  0.26145940337E+03  0.26270141181E+03  0.00000000000E+00 0. -1.
        -13    1    3    3    0    0 -0.11282024724E+01  0.32697056663E+02  0.10034791130E+02  0.34220861886E+02  0.00000000000E+00 0.  1.
         13    1    3    3    0    0  0.36686480982E+02  0.13960841917E+02  0.18317073807E+03  0.18732944851E+03  0.00000000000E+00 0. -1.
         21    1    1    2  502  501  0.16343859249E+02 -0.34024758953E+02  0.34226480366E+02  0.50953487763E+02  0.00000000000E+00 0. -1.
<scales pt_clust_5="13000.00000" pt_clust_6="13000.00000" pt_clust_7="13000.00000" pt_clust_8="13000.00000" pt_clust_9="37.74660"></scales>
<clustering>
<clus scale="   37.747">  2  9  1 -1</clus>
<clus scale="   79.664">  5  6 -1 -1</clus>
<clus scale="   91.186">  7  8 -1 -1</clus>
<clus scale="   95.291">  1  5  2 -1</clus>
<clus scale="   95.291">  1  5  2 -1</clus>
</clustering>
</event>
<event>
 9    2  0.2869112E-005  0.1018890E+03  0.7546771E-02  0.1281214E+00
          2   -1    0    0  502    0  0.00000000000E+00  0.00000000000E+00  0.26954104909E+03  0.26954104909E+03  0.00000000000E+00 0. -1.
         -1   -1    0    0    0  501 -0.00000000000E+00 -0.00000000000E+00 -0.53664214289E+02  0.53664214289E+02  0.00000000000E+00 0.  1.
         24    2    1    2    0    0 -0.82408068814E+01  0.37624748781E+02  0.29527872063E+02  0.95325459298E+02  0.82045812464E+02 0.  0.
         23    2    1    2    0    0  0.23799422543E+01 -0.58543818735E+02  0.16072600679E+03  0.19428675281E+03  0.92094789337E+02 0.  0.
        -13    1    3    3    0    0 -0.35918632951E+02  0.72676410936E+00  0.33380016623E+02  0.49039799030E+02  0.00000000000E+00 0.  1.
         14    1    3    3    0    0  0.27677826069E+02  0.36897984672E+02 -0.38521445601E+01  0.46285660268E+02  0.00000000000E+00 0. -1.
        -13    1    4    4    0    0  0.28251912160E+02 -0.32024108469E+02  0.17170848745E+02  0.46027731972E+02  0.00000000000E+00 0.  1.
         13    1    4    4    0    0 -0.25871969905E+02 -0.26519710266E+02  0.14355515805E+03  0.14825902084E+03  0.00000000000E+00 0. -1.
         21    1    1    2  502  501  0.58608646271E+01  0.20919069954E+02  0.25622955947E+02  0.33593051266E+02  0.00000000000E+00 0. -1.
<scales pt_clust_5="13000.00000" pt_clust_6="13000.00000" pt_clust_7="13000.00000" pt_clust_8="13000.00000" pt_clust_9="21.72458"></scales>
<clustering>
<clus scale="   21.725">  1  9  2 -1</clus>
<clus scale="   82.046">  5  6 -1 -1</clus>
<clus scale="   92.095">  7  8 -1 -1</clus>
<clus scale="   92.906">  2  5  1 -1</clus>
<clus scale="   21.725">  1  5  2 -1</clus>
</clustering>
</event>
<event>
 9    2  0.2869112E-005  0.1097178E+03  0.7546771E-02  0.1265874E+00
          2   -1    0    0  502    0  0.00000000000E+00  0.00000000000E+00  0.82108738286E+02  0.82108738286E+02  0.00000000000E+00 0. -1.
         -1   -1    0    0    0  501 -0.00000000000E+00 -0.00000000000E+00 -0.24923635725E+03  0.24923635725E+03  0.00000000000E+00 0.  1.
         24    2    1    2    0    0  0.23321212077E+02 -0.28142399750E+02 -0.13809775352E+03  0.16412172597E+03  0.80802709181E+02 0.  0.
         23    2    1    2    0    0 -0.33086944918E+02  0.57591059733E+02  0.13282805297E+02  0.11475475783E+03  0.92632313164E+02 0.  0.
        -13    1    3    3    0    0  0.49251069604E+02 -0.42340531799E+01 -0.10358198677E+03  0.11477291948E+03  0.00000000000E+00 0.  1.
         14    1    3    3    0    0 -0.25929857527E+02 -0.23908346570E+02 -0.34515766749E+02  0.49348806484E+02  0.00000000000E+00 0. -1.
        -13    1    4    4    0    0  0.32363126455E+02  0.15147277128E+02  0.76632304495E+01  0.36545000468E+02  0.00000000000E+00 0.  1.
         13    1    4    4    0    0 -0.65450071373E+02  0.42443782606E+02  0.56195748477E+01  0.78209757358E+02  0.00000000000E+00 0. -1.
         21    1    1    2  502  501  0.97657328410E+01 -0.29448659983E+02 -0.42312670738E+02  0.52468611738E+02  0.00000000000E+00 0.  1.
<scales pt_clust_5="13000.00000" pt_clust_6="13000.00000" pt_clust_7="13000.00000" pt_clust_8="13000.00000" pt_clust_9="31.02568"></scales>
<clustering>
<clus scale="   31.026">  2  9  1 -1</clus>
<clus scale="   80.803">  5  6 -1 -1</clus>
<clus scale="   92.632">  7  8 -1 -1</clus>
<clus scale="   99.932">  2  5  1 -1</clus>
<clus scale="  109.718">  1  5  2 -1</clus>
</clustering>
</event>
<event>
 9    2  0.2869112E-005  0.1127509E+03  0.7546771E-02  0.1258039E+00
          2   -1    0    0  502    0  0.00000000000E+00  0.00000000000E+00  0.19570066071E+03  0.19570066071E+03  0.00000000000E+00 0. -1.
         -1   -1    0    0    0  501 -0.00000000000E+00 -0.00000000000E+00 -0.13328427830E+03  0.13328427830E+03  0.00000000000E+00 0.  1.
         23    2    1    2    0    0 -0.11636648809E+02  0.54038190536E+02 -0.58624327681E+02  0.12205071768E+03  0.91673487221E+02 0.  0.
         24    2    1    2    0    0 -0.64448516019E+01 -0.67942020863E+02  0.13990393716E+03  0.17733559821E+03  0.84953801854E+02 0.  0.
        -11    1    4    4    0    0  0.81196319457E+01 -0.68281882308E+02  0.46986722638E+02  0.83283227475E+02  0.00000000000E+00 0.  1.
         12    1    4    4    0    0 -0.14564483548E+02  0.33986144465E+00  0.92917214520E+02  0.94052370736E+02  0.00000000000E+00 0. -1.
        -13    1    3    3    0    0  0.20853863002E+02  0.60623473974E+02 -0.12610373031E+02  0.65338432081E+02  0.00000000000E+00 0.  1.
         13    1    3    3    0    0 -0.32490511812E+02 -0.65852834385E+01 -0.46013954651E+02  0.56712285603E+02  0.00000000000E+00 0. -1.
         21    1    1    2  502  501  0.18081500411E+02  0.13903830328E+02 -0.18863227071E+02  0.29598623117E+02  0.00000000000E+00 0.  1.
<scales pt_clust_5="13000.00000" pt_clust_6="13000.00000" pt_clust_7="13000.00000" pt_clust_8="13000.00000" pt_clust_9="22.80915"></scales>
<clustering>
<clus scale="   22.809">  2  9  1 -1</clus>
<clus scale="   84.954">  5  6 -1 -1</clus>
<clus scale="   91.673">  7  8 -1 -1</clus>
<clus scale="  107.359">  1  5  2 -1</clus>
<clus scale="  107.359">  1  5  2 -1</clus>
</clustering>
</event>
<event>
 9    2  0.2869112E-005  0.9040995E+02  0.7546771E-02  0.1303249E+00
         -1   -1    0    0    0  501 -0.00000000000E+00  0.00000000000E+00  0.21576822856E+03  0.21576822856E+03  0.00000000000E+00 0.  1.
          2   -1    0    0  502    0  0.00000000000E+00 -0.00000000000E+00 -0.10239380780E+03  0.10239380780E+03  0.00000000000E+00 0. -1.
         24    2    1    2    0    0 -0.23812656094E+02 -0.48142350049E+02  0.25169288941E+02  0.99912421641E+02  0.80400686774E+02 0.  0.
         23    2    1    2    0    0  0.29213449035E+02  0.22827776536E+02 -0.34487405253E+02  0.92856413750E+02  0.77835721024E+02 0.  0.
        -13    1    3    3    0    0 -0.32633683005E+02 -0.39404917049E+02  0.50383745143E+02  0.71806869649E+02  0.00000000000E+00 0.  1.
         14    1    3    3    0    0  0.88210269110E+01 -0.87374330002E+01 -0.25214456202E+02  0.28105551992E+02  0.00000000000E+00 0. -1.
        -11    1    4    4    0    0 -0.25008340548E+02 -0.46320832495E+01 -0.10469078872E+02  0.27504088871E+02  0.00000000000E+00 0.  1.
         11    1    4    4    0    0  0.54221789583E+02  0.27459859786E+02 -0.24018326381E+02  0.65352324879E+02  0.00000000000E+00 0. -1.
         21    1    1    2  502  501 -0.54007929403E+01  0.25314573513E+02  0.12269253707E+03  0.12539320097E+03  0.00000000000E+00 0.  1.
<scales pt_clust_5="13000.00000" pt_clust_6="13000.00000" pt_clust_7="13000.00000" pt_clust_8="13000.00000" pt_clust_9="25.88428"></scales>
<clustering>
<clus scale="   25.884">  1  9  2 -1</clus>
<clus scale="   77.836">  7  8 -1 -1</clus>
<clus scale="   80.401">  5  6 -1 -1</clus>
<clus scale="   88.137">  2  7  1 -1</clus>
<clus scale="   88.137">  2  5  1 -1</clus>
</clustering>
</event>
<event>
 9    2  0.2869112E-005  0.1116890E+03  0.7546771E-02  0.1261727E+00
         -1   -1    0    0    0  501 -0.00000000000E+00  0.00000000000E+00  0.72580102539E+02  0.72580102539E+02  0.00000000000E+00 0.  1.
          2   -1    0    0  502    0  0.00000000000E+00 -0.00000000000E+00 -0.21412219753E+03  0.21412219753E+03  0.00000000000E+00 0. -1.
         23    2    1    2    0    0 -0.44736630270E+02  0.29360949865E+02 -0.40735431812E+02  0.11371738055E+03  0.91699704302E+02 0.  0.
         24    2    1    2    0    0  0.65724516624E+02 -0.25531335505E+02 -0.10639995772E+03  0.15092948338E+03  0.80543136099E+02 0.  0.
        -11    1    4    4    0    0  0.19409897236E+02  0.19705090849E+02 -0.15502102101E+01  0.27702668965E+02  0.00000000000E+00 0.  1.
         12    1    4    4    0    0  0.46314619388E+02 -0.45236426353E+02 -0.10484974751E+03  0.12322681442E+03  0.00000000000E+00 0. -1.
        -13    1    3    3    0    0 -0.58073858581E+02  0.44759097024E+02 -0.61499074836E+01  0.73578333625E+02  0.00000000000E+00 0.  1.
         13    1    3    3    0    0  0.13337228311E+02 -0.15398147159E+02 -0.34585524328E+02  0.40139046925E+02  0.00000000000E+00 0. -1.
         21    1    1    2  502  501 -0.20987886353E+02 -0.38296143606E+01  0.55932945361E+01  0.22055436144E+02  0.00000000000E+00 0.  1.
<scales pt_clust_5="13000.00000" pt_clust_6="13000.00000" pt_clust_7="13000.00000" pt_clust_8="13000.00000" pt_clust_9="21.33442"></scales>
<clustering>
<clus scale="   21.334">  1  9  2 -1</clus>
<clus scale="   80.543">  5  6 -1 -1</clus>
<clus scale="   91.700">  7  8 -1 -1</clus>
<clus scale="  102.727">  2  5  1 -1</clus>
<clus scale="  102.727">  2  5  1 -1</clus>
</clustering>
</event>
<event>
 9    2  0.2869112E-005  0.9597212E+02  0.7546771E-02  0.1294047E+00
          2   -1    0    0  502    0  0.00000000000E+00  0.00000000000E+00  0.50612688592E+03  0.50612688592E+03  0.00000000000E+00 0. -1.
         -1   -1    0    0    0  501 -0.00000000000E+00 -0.00000000000E+00 -0.20387815858E+03  0.20387815858E+03  0.00000000000E+00 0.  1.
         23    2    1    2    0    0  0.46735060236E+02  0.33134758380E+02 -0.84099292411E+02  0.13666769760E+03  0.91232069560E+02 0.  0.
         24    2    1    2    0    0 -0.26414242302E+02 -0.11578088440E+02  0.47342656801E+03  0.48135746198E+03  0.82100710001E+02 0.  0.
        -13    1    4    4    0    0 -0.21797320609E+02  0.29374018277E+02  0.11772960590E+03  0.12328104575E+03  0.00000000000E+00 0.  1.
         14    1    4    4    0    0 -0.46169216936E+01 -0.40952106717E+02  0.35569696211E+03  0.35807641624E+03  0.00000000000E+00 0. -1.
        -13    1    3    3    0    0  0.66149662887E+02  0.14965062109E+02 -0.25749982910E+02  0.72545107373E+02  0.00000000000E+00 0.  1.
         13    1    3    3    0    0 -0.19414602651E+02  0.18169696271E+02 -0.58349309500E+02  0.64122590230E+02  0.00000000000E+00 0. -1.
         21    1    1    2  502  501 -0.20320817933E+02 -0.21556669940E+02 -0.87078548266E+02  0.91979884912E+02  0.00000000000E+00 0.  1.
<scales pt_clust_5="13000.00000" pt_clust_6="13000.00000" pt_clust_7="13000.00000" pt_clust_8="13000.00000" pt_clust_9="29.62475"></scales>
<clustering>
<clus scale="   29.625">  2  9  1 -1</clus>
<clus scale="   82.101">  5  6 -1 -1</clus>
<clus scale="   87.338">  1  5  2 -1</clus>
<clus scale="   91.232">  7  8 -1 -1</clus>
<clus scale="   87.338">  1  5  2 -1</clus>
</clustering>
</event>
<event>
 9    2  0.2869112E-005  0.1058504E+03  0.7546771E-02  0.1271650E+00
         -1   -1    0    0    0  501 -0.00000000000E+00  0.00000000000E+00  0.29288961022E+02  0.29288961022E+02  0.00000000000E+00 0.  1.
          2   -1    0    0  502    0  0.00000000000E+00 -0.00000000000E+00 -0.16587303110E+04  0.16587303110E+04  0.00000000000E+00 0. -1.
         23    2    1    2    0    0  0.57050835300E+02  0.13980149386E+02 -0.14436492746E+03  0.17982521776E+03  0.89697459692E+02 0.  0.
         24    2    1    2    0    0 -0.55711903186E+02  0.84081592269E+01 -0.14822463759E+04  0.14855878987E+04  0.82113170747E+02 0.  0.
        -13    1    4    4    0    0  0.94063111880E+00 -0.21637060938E+02 -0.12762770015E+03  0.12945221913E+03  0.00000000000E+00 0.  1.
         14    1    4    4    0    0 -0.56652534305E+02  0.30045220165E+02 -0.13546186757E+04  0.13561356796E+04  0.00000000000E+00 0. -1.
        -13    1    3    3    0    0  0.70375774778E+02  0.33602190383E+02 -0.13138533247E+03  0.15278731120E+03  0.00000000000E+00 0.  1.
         13    1    3    3    0    0 -0.13324939478E+02 -0.19622040997E+02 -0.12979594987E+02  0.27037906558E+02  0.00000000000E+00 0. -1.
         21    1    1    2  502  501 -0.13389321139E+01 -0.22388308613E+02 -0.28300466019E+01  0.22606155479E+02  0.00000000000E+00 0.  1.
<scales pt_clust_5="13000.00000" pt_clust_6="13000.00000" pt_clust_7="13000.00000" pt_clust_8="13000.00000" pt_clust_9="22.42831"></scales>
<clustering>
<clus scale="   22.428">  1  9  2 -1</clus>
<clus scale="   82.113">  5  6 -1 -1</clus>
<clus scale="   89.697">  7  8 -1 -1</clus>
<clus scale="   99.505">  2  5  1 -1</clus>
<clus scale="   99.505">  2  5  1 -1</clus>
</clustering>
</event>
<event>
 9    2  0.2869112E-005  0.1138395E+03  0.7546771E-02  0.1257401E+00
          2   -1    0    0  502    0  0.00000000000E+00  0.00000000000E+00  0.17536322262E+04  0.17536322262E+04  0.00000000000E+00 0. -1.
         -1   -1    0    0    0  501 -0.00000000000E+00 -0.00000000000E+00 -0.16867007703E+02  0.16867007703E+02  0.00000000000E+00 0.  1.
         23    2    1    2    0    0  0.17118277969E+02 -0.76003325639E+02  0.25099278575E+03  0.27807130757E+03  0.90866565063E+02 0.  0.
         24    2    1    2    0    0  0.57423905163E+01  0.67411648102E+02  0.13744817846E+04  0.13784891908E+04  0.80342813266E+02 0.  0.
        -13    1    4    4    0    0 -0.17555037965E+02  0.12093175778E+02  0.85738366218E+02  0.88348693822E+02  0.00000000000E+00 0.  1.
         14    1    4    4    0    0  0.23297428481E+02  0.55318472324E+02  0.12887434184E+04  0.12901404970E+04  0.00000000000E+00 0. -1.
        -11    1    3    3    0    0  0.64700995154E+01 -0.94645215968E+02  0.17446338229E+03  0.19858764024E+03  0.00000000000E+00 0.  1.
         11    1    3    3    0    0  0.10648178454E+02  0.18641890329E+02  0.76529403457E+02  0.79483667334E+02  0.00000000000E+00 0. -1.
         21    1    1    2  502  501 -0.22860668485E+02  0.85916775375E+01  0.11129064810E+03  0.11393873547E+03  0.00000000000E+00 0. -1.
<scales pt_clust_5="13000.00000" pt_clust_6="13000.00000" pt_clust_7="13000.00000" pt_clust_8="13000.00000" pt_clust_9="24.42186"></scales>
<clustering>
<clus scale="   24.422">  2  9  1 -1</clus>
<clus scale="   80.343">  5  6 -1 -1</clus>
<clus scale="   90.867">  7  8 -1 -1</clus>
<clus scale="  105.630">  1  5  2 -1</clus>
<clus scale="  105.630">  1  5  2 -1</clus>
</clustering>
</event>
<event>
 9    2  0.2869112E-005  0.2216197E+03  0.7546771E-02  0.1133526E+00
          2   -1    0    0  502    0  0.00000000000E+00  0.00000000000E+00  0.13735997908E+04  0.13735997908E+04  0.00000000000E+00 0. -1.
         -1   -1    0    0    0  501 -0.00000000000E+00 -0.00000000000E+00 -0.53521849912E+02  0.53521849912E+02  0.00000000000E+00 0.  1.
         23    2    1    2    0    0  0.51756805723E+02 -0.17487444568E+03  0.22684573145E+03  0.30225480438E+03  0.81480931514E+02 0.  0.
         24    2    1    2    0    0 -0.69280806117E+02  0.19546903713E+03  0.10464094454E+04  0.10707965208E+04  0.92868116314E+02 0.  0.
        -13    1    4    4    0    0 -0.62317797891E+02  0.69527556561E+02  0.31334696501E+03  0.32696163313E+03  0.00000000000E+00 0.  1.
         14    1    4    4    0    0 -0.69630082261E+01  0.12594148057E+03  0.73306248038E+03  0.74383488770E+03  0.00000000000E+00 0. -1.
        -13    1    3    3    0    0  0.10013069930E+02 -0.17849744332E+02  0.82231866656E+02  0.84740514725E+02  0.00000000000E+00 0. -1.
         13    1    3    3    0    0  0.41743735793E+02 -0.15702470135E+03  0.14461386479E+03  0.21751428965E+03  0.00000000000E+00 0.  1.
         21    1    1    2  502  501  0.17524000394E+02 -0.20594591453E+02  0.46822764068E+02  0.54070315533E+02  0.00000000000E+00 0.  1.
<scales pt_clust_5="13000.00000" pt_clust_6="13000.00000" pt_clust_7="13000.00000" pt_clust_8="13000.00000" pt_clust_9="27.04122"></scales>
<clustering>
<clus scale="   27.041">  2  9  1 -1</clus>
<clus scale="   81.481">  7  8 -1 -1</clus>
<clus scale="   92.868">  5  6 -1 -1</clus>
<clus scale="  217.094">  2  7  1 -1</clus>
<clus scale="  221.620">  1  5  2 -1</clus>
</clustering>
</event>
<event>
 9    2  0.2869112E-005  0.8999561E+02  0.7546771E-02  0.1308197E+00
          2   -1    0    0  502    0  0.00000000000E+00  0.00000000000E+00  0.29065376235E+03  0.29065376235E+03  0.00000000000E+00 0. -1.
         -1   -1    0    0    0  501 -0.00000000000E+00 -0.00000000000E+00 -0.53039202139E+02  0.53039202139E+02  0.00000000000E+00 0.  1.
         23    2    1    2    0    0 -0.48067840617E+01  0.42051984588E+01  0.52057082651E+02  0.10361052407E+03  0.89355536912E+02 0.  0.
         24    2    1    2    0    0 -0.88901273794E+01  0.13430653851E+02  0.19800977129E+03  0.21451511188E+03  0.80928652964E+02 0.  0.
        -13    1    4    4    0    0  0.18086574925E+02 -0.18866713933E+02  0.14239517946E+03  0.14477383818E+03  0.00000000000E+00 0.  1.
         14    1    4    4    0    0 -0.26976702304E+02  0.32297367784E+02  0.55614591825E+02  0.69741273697E+02  0.00000000000E+00 0. -1.
        -13    1    3    3    0    0  0.41415982605E+02 -0.50304209919E+01  0.31040908255E+02  0.52001218599E+02  0.00000000000E+00 0.  1.
         13    1    3    3    0    0 -0.46222766667E+02  0.92356194507E+01  0.21016174396E+02  0.51609305471E+02  0.00000000000E+00 0. -1.
         21    1    1    2  502  501  0.13696911441E+02 -0.17635852310E+02 -0.12452293727E+02  0.25567328542E+02  0.00000000000E+00 0.  1.
<scales pt_clust_5="13000.00000" pt_clust_6="13000.00000" pt_clust_7="13000.00000" pt_clust_8="13000.00000" pt_clust_9="22.32999"></scales>
<clustering>
<clus scale="   22.330">  2  9  1 -1</clus>
<clus scale="   80.929">  5  6 -1 -1</clus>
<clus scale="   81.635">  1  5  2 -1</clus>
<clus scale="   89.356">  7  8 -1 -1</clus>
<clus scale="   81.635">  1  5  2 -1</clus>
</clustering>
</event>
<event>
 9    2  0.2869112E-005  0.9150218E+02  0.7546771E-02  0.1306041E+00
          2   -1    0    0  502    0  0.00000000000E+00  0.00000000000E+00  0.26414513143E+03  0.26414513143E+03  0.00000000000E+00 0. -1.
         -1   -1    0    0    0  501 -0.00000000000E+00 -0.00000000000E+00 -0.11417208027E+03  0.11417208027E+03  0.00000000000E+00 0.  1.
         24    2    1    2    0    0  0.21034932188E+02 -0.15434973117E+02  0.10947213398E+02  0.85042598048E+02  0.80197850559E+02 0.  0.
         23    2    1    2    0    0 -0.57396863989E+01  0.79501637621E+00  0.20480002137E+03  0.22417674028E+03  0.90986735726E+02 0.  0.
        -11    1    3    3    0    0 -0.24829443804E+02  0.13096312149E+02 -0.54463595509E+01  0.28595060830E+02  0.00000000000E+00 0.  1.
         12    1    3    3    0    0  0.45864375991E+02 -0.28531285266E+02  0.16393572949E+02  0.56447537218E+02  0.00000000000E+00 0. -1.
        -13    1    4    4    0    0 -0.16243800202E+02 -0.38013034397E+02  0.15367017796E+03  0.15913320026E+03  0.00000000000E+00 0. -1.
         13    1    4    4    0    0  0.10504113803E+02  0.38808050773E+02  0.51129843402E+02  0.65043540017E+02  0.00000000000E+00 0.  1.
         21    1    1    2  502  501 -0.15295245789E+02  0.14639956740E+02 -0.65774183597E+02  0.69097873375E+02  0.00000000000E+00 0.  1.
<scales pt_clust_5="13000.00000" pt_clust_6="13000.00000" pt_clust_7="13000.00000" pt_clust_8="13000.00000" pt_clust_9="21.17246"></scales>
<clustering>
<clus scale="   21.172">  2  9  1 -1</clus>
<clus scale="   80.198">  5  6 -1 -1</clus>
<clus scale="   80.782">  2  5  1 -1</clus>
<clus scale="   90.987">  7  8 -1 -1</clus>
<clus scale="   91.502">  1  5  2 -1</clus>
</clustering>
</event>
<event>
 9    2  0.2869112E-005  0.1638088E+03  0.7546771E-02  0.1186082E+00
         -1   -1    0    0    0  501 -0.00000000000E+00  0.00000000000E+00  0.52337372316E+03  0.52337372316E+03  0.00000000000E+00 0.  1.
          2   -1    0    0  502    0  0.00000000000E+00 -0.00000000000E+00 -0.10050146049E+03  0.10050146049E+03  0.00000000000E+00 0. -1.
         24    2    1    2    0    0 -0.11501297668E+03  0.12222613462E+02  0.36339770391E+03  0.38982681717E+03  0.80806429741E+02 0.  0.
         23    2    1    2    0    0  0.13994564422E+03 -0.87198759473E+01 -0.21062319286E+01  0.16751941893E+03  0.91637873903E+02 0.  0.
        -11    1    3    3    0    0 -0.41651118590E+02  0.37199712018E+02  0.21830361996E+03  0.22533331920E+03  0.00000000000E+00 0.  1.
         12    1    3    3    0    0 -0.73361858089E+02 -0.24977098556E+02  0.14509408395E+03  0.16449349796E+03  0.00000000000E+00 0. -1.
        -13    1    4    4    0    0  0.11358217036E+03  0.59902517469E+01 -0.38641569846E+02  0.12012478287E+03  0.00000000000E+00 0. -1.
         13    1    4    4    0    0  0.26363473866E+02 -0.14710127694E+02  0.36535337917E+02  0.47394636066E+02  0.00000000000E+00 0.  1.
         21    1    1    2  502  501 -0.24932667543E+02 -0.35027375149E+01  0.61580790686E+02  0.66528947553E+02  0.00000000000E+00 0.  1.
<scales pt_clust_5="13000.00000" pt_clust_6="13000.00000" pt_clust_7="13000.00000" pt_clust_8="13000.00000" pt_clust_9="25.17751"></scales>
<clustering>
<clus scale="   25.178">  1  9  2 -1</clus>
<clus scale="   80.806">  5  6 -1 -1</clus>
<clus scale="   91.638">  7  8 -1 -1</clus>
<clus scale="  158.005">  1  5  2 -1</clus>
<clus scale="  163.809">  2  5  1 -1</clus>
</clustering>
</event>
<event>
 9    2  0.2869112E-005  0.1009238E+03  0.7546771E-02  0.1283210E+00
          2   -1    0    0  502    0  0.00000000000E+00  0.00000000000E+00  0.35135377757E+03  0.35135377757E+03  0.00000000000E+00 0. -1.
         -1   -1    0    0    0  501 -0.00000000000E+00 -0.00000000000E+00 -0.18889146338E+03  0.18889146338E+03  0.00000000000E+00 0.  1.
         23    2    1    2    0    0 -0.19822278769E+02  0.35361287618E+02  0.12326105318E+03  0.15844086471E+03  0.90922367889E+02 0.  0.
         24    2    1    2    0    0  0.59586847335E+02  0.11413300165E+02  0.19206141953E+03  0.21707638518E+03  0.80955001912E+02 0.  0.
        -13    1    4    4    0    0 -0.70567929075E+01 -0.23891038418E+02  0.60559834109E+02  0.65483383771E+02  0.00000000000E+00 0.  1.
         14    1    4    4    0    0  0.66643640242E+02  0.35304338584E+02  0.13150158542E+03  0.15159300140E+03  0.00000000000E+00 0. -1.
        -11    1    3    3    0    0 -0.49274700530E+02  0.70992922223E+01  0.99372956194E+02  0.11114576234E+03  0.00000000000E+00 0.  1.
         11    1    3    3    0    0  0.29452421762E+02  0.28261995396E+02  0.23888096987E+02  0.47295102379E+02  0.00000000000E+00 0. -1.
         21    1    1    2  502  501 -0.39764568566E+02 -0.46774587783E+02 -0.15286015852E+03  0.16472799106E+03  0.00000000000E+00 0.  1.
<scales pt_clust_5="13000.00000" pt_clust_6="13000.00000" pt_clust_7="13000.00000" pt_clust_8="13000.00000" pt_clust_9="61.39286"></scales>
<clustering>
<clus scale="   61.393">  2  9  1 -1</clus>
<clus scale="   80.955">  5  6 -1 -1</clus>
<clus scale="   90.922">  7  8 -1 -1</clus>
<clus scale="   92.046">  1  5  2 -1</clus>
<clus scale="   92.046">  1  5  2 -1</clus>
</clustering>
</event>
<event>
 9    2  0.2869112E-005  0.9135231E+02  0.7546771E-02  0.1303387E+00
         -1   -1    0    0    0  501 -0.00000000000E+00  0.00000000000E+00  0.36940658849E+02  0.36940658849E+02  0.00000000000E+00 0.  1.
          2   -1    0    0  502    0  0.00000000000E+00 -0.00000000000E+00 -0.11401529412E+04  0.11401529412E+04  0.00000000000E+00 0. -1.
         23    2    1    2    0    0 -0.10950523639E+02 -0.16360208607E+02 -0.52432733290E+02  0.10711246132E+03  0.91303436173E+02 0.  0.
         24    2    1    2    0    0 -0.26812552022E+01 -0.35290542902E+01 -0.10401319794E+04  0.10436224796E+04  0.85168667348E+02 0.  0.
        -11    1    4    4    0    0  0.21584294193E+02 -0.16015798656E+01 -0.71957798558E+02  0.75142342173E+02  0.00000000000E+00 0.  1.
         12    1    4    4    0    0 -0.24265549396E+02 -0.19274744246E+01 -0.96817418085E+03  0.96848013738E+03  0.00000000000E+00 0. -1.
        -13    1    3    3    0    0 -0.49182716749E+02 -0.17688515304E+02 -0.43074654885E+02  0.67729233673E+02  0.00000000000E+00 0.  1.
         13    1    3    3    0    0  0.38232193111E+02  0.13283066965E+01 -0.93580784052E+01  0.39383227650E+02  0.00000000000E+00 0. -1.
         21    1    1    2  502  501  0.13631778841E+02  0.19889262897E+02 -0.10647569633E+02  0.26358659148E+02  0.00000000000E+00 0.  1.
<scales pt_clust_5="13000.00000" pt_clust_6="13000.00000" pt_clust_7="13000.00000" pt_clust_8="13000.00000" pt_clust_9="24.11241"></scales>
<clustering>
<clus scale="   24.112">  1  9  2 -1</clus>
<clus scale="   85.169">  5  6 -1 -1</clus>
<clus scale="   85.221">  2  5  1 -1</clus>
<clus scale="   91.303">  7  8 -1 -1</clus>
<clus scale="   85.221">  2  5  1 -1</clus>
</clustering>
</event>
<event>
 9    2  0.2869112E-005  0.9665282E+02  0.7546771E-02  0.1293774E+00
         -3   -1    0    0    0  501 -0.00000000000E+00  0.00000000000E+00  0.82537523153E+03  0.82537523153E+03  0.00000000000E+00 0.  1.
          4   -1    0    0  502    0  0.00000000000E+00 -0.00000000000E+00 -0.17993786369E+02  0.17993786369E+02  0.00000000000E+00 0. -1.
         24    2    1    2    0    0 -0.20969880256E+02 -0.58605181713E+01  0.46416281048E+03  0.47144105720E+03  0.79595692294E+02 0.  0.
         23    2    1    2    0    0  0.23756493916E+02  0.29352654371E+02  0.16543399207E+03  0.19257628151E+03  0.91056406399E+02 0.  0.
        -11    1    3    3    0    0 -0.23785264976E+02 -0.37151080675E+02  0.17094640416E+03  0.17654635290E+03  0.00000000000E+00 0.  1.
         12    1    3    3    0    0  0.28153847202E+01  0.31290562504E+02  0.29321640632E+03  0.29489470430E+03  0.00000000000E+00 0. -1.
        -11    1    4    4    0    0 -0.24965780669E+02  0.76278367997E+01  0.11906916989E+03  0.12189725722E+03  0.00000000000E+00 0.  1.
         11    1    4    4    0    0  0.48722274585E+02  0.21724817571E+02  0.46364822180E+02  0.70679024293E+02  0.00000000000E+00 0. -1.
         21    1    1    2  502  501 -0.27866136598E+01 -0.23492136200E+02  0.17778464261E+03  0.17935167918E+03  0.00000000000E+00 0.  1.
<scales pt_clust_5="13000.00000" pt_clust_6="13000.00000" pt_clust_7="13000.00000" pt_clust_8="13000.00000" pt_clust_9="23.65683"></scales>
<clustering>
<clus scale="   23.657">  1  9  2 -1</clus>
<clus scale="   79.596">  5  6 -1 -1</clus>
<clus scale="   85.942">  1  5  2 -1</clus>
<clus scale="   91.056">  7  8 -1 -1</clus>
<clus scale="   96.653">  2  5  1 -1</clus>
</clustering>
</event>
<event>
 9    2  0.2869112E-005  0.9257273E+02  0.7546771E-02  0.1302653E+00
          2   -1    0    0  502    0  0.00000000000E+00  0.00000000000E+00  0.20321681808E+03  0.20321681808E+03  0.00000000000E+00 0. -1.
         -1   -1    0    0    0  501 -0.00000000000E+00 -0.00000000000E+00 -0.85260722374E+02  0.85260722374E+02  0.00000000000E+00 0.  1.
         24    2    1    2    0    0  0.17813832350E+02 -0.38576468215E+02  0.77958986010E+02  0.11935145209E+03  0.79760197428E+02 0.  0.
         23    2    1    2    0    0 -0.52196224639E+01  0.70610396879E+00  0.74241600668E+02  0.11653841136E+03  0.89675208449E+02 0.  0.
        -13    1    3    3    0    0  0.47122620183E+02 -0.81168807613E+01  0.36634632934E+02  0.60237209567E+02  0.00000000000E+00 0.  1.
         14    1    3    3    0    0 -0.29308787833E+02 -0.30459587454E+02  0.41324353076E+02  0.59114242525E+02  0.00000000000E+00 0. -1.
        -13    1    4    4    0    0  0.17511433769E+02  0.39207170698E+02  0.49161022437E+02  0.65273721158E+02  0.00000000000E+00 0.  1.
         13    1    4    4    0    0 -0.22731056233E+02 -0.38501066729E+02  0.25080578231E+02  0.51264690199E+02  0.00000000000E+00 0. -1.
         21    1    1    2  502  501 -0.12594209886E+02  0.37870364246E+02 -0.34244490973E+02  0.52587677005E+02  0.00000000000E+00 0. -1.
<scales pt_clust_5="13000.00000" pt_clust_6="13000.00000" pt_clust_7="13000.00000" pt_clust_8="13000.00000" pt_clust_9="39.90963"></scales>
<clustering>
<clus scale="   39.910">  2  9  1 -1</clus>
<clus scale="   79.760">  5  6 -1 -1</clus>
<clus scale="   83.005">  2  5  1 -1</clus>
<clus scale="   89.675">  7  8 -1 -1</clus>
<clus scale="   92.573">  1  5  2 -1</clus>
</clustering>
</event>
<event>
 9    2  0.2869112E-005  0.1056577E+03  0.7546771E-02  0.1277616E+00
          2   -1    0    0  502    0  0.00000000000E+00  0.00000000000E+00  0.18475264690E+03  0.18475264690E+03  0.00000000000E+00 0. -1.
         -1   -1    0    0    0  501 -0.00000000000E+00 -0.00000000000E+00 -0.24150105822E+03  0.24150105822E+03  0.00000000000E+00 0.  1.
         23    2    1    2    0    0 -0.93995038296E+01 -0.95246903602E+01 -0.10676610254E+03  0.14566831614E+03  0.98189547702E+02 0.  0.
         24    2    1    2    0    0  0.39300421065E+02 -0.15975969978E+02  0.14878594863E+03  0.17428620176E+03  0.80241304208E+02 0.  0.
        -11    1    4    4    0    0 -0.31032669923E+01  0.26949101453E+02  0.26490641562E+02  0.37916202678E+02  0.00000000000E+00 0.  1.
         12    1    4    4    0    0  0.42403688057E+02 -0.42925071431E+02  0.12229530707E+03  0.13636999908E+03  0.00000000000E+00 0. -1.
        -11    1    3    3    0    0  0.15867934649E+02  0.20711932884E+02 -0.10280627832E+03  0.10606557583E+03  0.00000000000E+00 0.  1.
         11    1    3    3    0    0 -0.25267438478E+02 -0.30236623245E+02 -0.39598242175E+01  0.39602740313E+02  0.00000000000E+00 0. -1.
         21    1    1    2  502  501 -0.29900917235E+02  0.25500660339E+02 -0.98768257422E+02  0.10629918722E+03  0.00000000000E+00 0.  1.
<scales pt_clust_5="13000.00000" pt_clust_6="13000.00000" pt_clust_7="13000.00000" pt_clust_8="13000.00000" pt_clust_9="39.29820"></scales>
<clustering>
<clus scale="   39.298">  2  9  1 -1</clus>
<clus scale="   80.241">  5  6 -1 -1</clus>
<clus scale="   89.225">  1  5  2 -1</clus>
<clus scale="   98.190">  7  8 -1 -1</clus>
<clus scale="   89.225">  1  5  2 -1</clus>
</clustering>
</event>
<event>
 9    2  0.2869112E-005  0.9772614E+02  0.7546771E-02  0.1291078E+00
          2   -1    0    0  502    0  0.00000000000E+00  0.00000000000E+00  0.64419471392E+02  0.64419471392E+02  0.00000000000E+00 0. -1.
         -1   -1    0    0    0  501 -0.00000000000E+00 -0.00000000000E+00 -0.55708980489E+03  0.55708980489E+03  0.00000000000E+00 0.  1.
         23    2    1    2    0    0  0.18641166027E+02 -0.30978540826E+02 -0.34024028534E+03  0.35461428407E+03  0.93170143495E+02 0.  0.
         24    2    1    2    0    0  0.13697332989E+02  0.27102266904E+02  0.21186151186E+02  0.90250182794E+02  0.82304876465E+02 0.  0.
        -13    1    4    4    0    0 -0.25593354415E+02 -0.18936467803E+01 -0.14768886353E+02  0.29609554074E+02  0.00000000000E+00 0.  1.
         14    1    4    4    0    0  0.39290687404E+02  0.28995913684E+02  0.35955037539E+02  0.60640628720E+02  0.00000000000E+00 0. -1.
        -13    1    3    3    0    0  0.11096951330E+02 -0.55688099040E+02 -0.30852982010E+03  0.31371158186E+03  0.00000000000E+00 0.  1.
         13    1    3    3    0    0  0.75442146966E+01  0.24709558213E+02 -0.31710465236E+02  0.40902702208E+02  0.00000000000E+00 0. -1.
         21    1    1    2  502  501 -0.32338499015E+02  0.38762739221E+01 -0.17361619935E+03  0.17664480942E+03  0.00000000000E+00 0.  1.
<scales pt_clust_5="13000.00000" pt_clust_6="13000.00000" pt_clust_7="13000.00000" pt_clust_8="13000.00000" pt_clust_9="32.56999"></scales>
<clustering>
<clus scale="   32.570">  2  9  1 -1</clus>
<clus scale="   82.305">  5  6 -1 -1</clus>
<clus scale="   87.429">  1  5  2 -1</clus>
<clus scale="   93.170">  7  8 -1 -1</clus>
<clus scale="   87.429">  1  5  2 -1</clus>
</clustering>
</event>
<event>
 9    2  0.2869112E-005  0.1087331E+03  0.7546771E-02  0.1267947E+00
         -1   -1    0    0    0  501 -0.00000000000E+00  0.00000000000E+00  0.33644180543E+02  0.33644180543E+02  0.00000000000E+00 0.  1.
          2   -1    0    0  502    0  0.00000000000E+00 -0.00000000000E+00 -0.46699192080E+03  0.46699192080E+03  0.00000000000E+00 0. -1.
         23    2    1    2    0    0  0.41130865810E+02  0.13006322844E+02 -0.15545284945E+03  0.18566559229E+03  0.91897830236E+02 0.  0.
         24    2    1    2    0    0 -0.68727955522E+02 -0.42862727259E+01 -0.26103434128E+03  0.28147548307E+03  0.79671928827E+02 0.  0.
        -11    1    4    4    0    0  0.73969655645E+01  0.21779918341E+02 -0.38586604175E+02  0.44922221275E+02  0.00000000000E+00 0.  1.
         12    1    4    4    0    0 -0.76124921086E+02 -0.26066191067E+02 -0.22244773710E+03  0.23655326180E+03  0.00000000000E+00 0. -1.
        -11    1    3    3    0    0  0.54974031876E+01 -0.35379535434E+02 -0.89746186244E+02  0.96624587526E+02  0.00000000000E+00 0. -1.
         11    1    3    3    0    0  0.35633462622E+02  0.48385858278E+02 -0.65706663209E+02  0.89041004766E+02  0.00000000000E+00 0.  1.
         21    1    1    2  502  501  0.27597089712E+02 -0.87200501185E+01 -0.16860549529E+02  0.33495025975E+02  0.00000000000E+00 0. -1.
<scales pt_clust_5="13000.00000" pt_clust_6="13000.00000" pt_clust_7="13000.00000" pt_clust_8="13000.00000" pt_clust_9="28.94199"></scales>
<clustering>
<clus scale="   28.942">  1  9  2 -1</clus>
<clus scale="   79.672">  5  6 -1 -1</clus>
<clus scale="   91.898">  7  8 -1 -1</clus>
<clus scale="   98.617">  2  5  1 -1</clus>
<clus scale="   98.617">  2  5  1 -1</clus>
</clustering>
</event>
<event>
 9    2  0.2869112E-005  0.3470910E+03  0.7546771E-02  0.1063815E+00
          2   -1    0    0  502    0  0.00000000000E+00  0.00000000000E+00  0.82508551734E+03  0.82508551734E+03  0.00000000000E+00 0. -1.
         -1   -1    0    0    0  501 -0.00000000000E+00 -0.00000000000E+00 -0.17300434427E+03  0.17300434427E+03  0.00000000000E+00 0.  1.
         24    2    1    2    0    0 -0.18682313353E+03  0.88646588060E+02  0.43440306682E+03  0.48798819099E+03  0.81641590445E+02 0.  0.
         23    2    1    2    0    0 -0.81190688368E+02 -0.96087818449E+01  0.19371630076E+03  0.22965104812E+03  0.92354437654E+02 0.  0.
        -13    1    3    3    0    0 -0.82173760315E+02  0.80148288108E+02  0.26339342425E+03  0.28731928391E+03  0.00000000000E+00 0.  1.
         14    1    3    3    0    0 -0.10464937322E+03  0.84982999518E+01  0.17100964257E+03  0.20066890708E+03  0.00000000000E+00 0. -1.
        -11    1    4    4    0    0  0.48910582600E+01  0.25040812686E+02  0.18963965517E+02  0.31789884224E+02  0.00000000000E+00 0.  1.
         11    1    4    4    0    0 -0.86081746628E+02 -0.34649594531E+02  0.17475233524E+03  0.19786116389E+03  0.00000000000E+00 0. -1.
         21    1    1    2  502  501  0.26801382190E+03 -0.79037806215E+02  0.23961805496E+02  0.28045062251E+03  0.00000000000E+00 0.  1.
<scales pt_clust_5="13000.00000" pt_clust_6="13000.00000" pt_clust_7="13000.00000" pt_clust_8="13000.00000" pt_clust_9="279.42509"></scales>
<clustering>
<clus scale="   81.642">  5  6 -1 -1</clus>
<clus scale="   92.354">  7  8 -1 -1</clus>
<clus scale="  102.869">  5  7 -1 -1</clus>
<clus scale="  279.425">  2  9  1 -1</clus>
<clus scale="  347.091">  1  5  2 -1</clus>
</clustering>
</event>
<event>
 9    2  0.2869112E-005  0.1688515E+03  0.7546771E-02  0.1179868E+00
         -1   -1    0    0    0  501 -0.00000000000E+00  0.00000000000E+00  0.18243037966E+03  0.18243037966E+03  0.00000000000E+00 0.  1.
          2   -1    0    0  502    0  0.00000000000E+00 -0.00000000000E+00 -0.26258739288E+03  0.26258739288E+03  0.00000000000E+00 0. -1.
         24    2    1    2    0    0 -0.12848542515E+03 -0.69976621054E+01  0.16086525853E+02  0.15205391367E+03  0.79398643558E+02 0.  0.
         23    2    1    2    0    0  0.15233694131E+03 -0.31644721758E+02 -0.14282958326E+03  0.22790705164E+03  0.85635286128E+02 0.  0.
        -13    1    3    3    0    0 -0.11877073399E+03 -0.19196493574E+02  0.37085220023E+02  0.12589799904E+03  0.00000000000E+00 0.  1.
         14    1    3    3    0    0 -0.97146911582E+01  0.12198831469E+02 -0.20998694169E+02  0.26155914634E+02  0.00000000000E+00 0. -1.
        -13    1    4    4    0    0  0.30688135781E+02 -0.45797854508E+02 -0.44096556553E+02  0.70595406757E+02  0.00000000000E+00 0. -1.
         13    1    4    4    0    0  0.12164880553E+03  0.14153132750E+02 -0.98733026709E+02  0.15731164488E+03  0.00000000000E+00 0.  1.
         21    1    1    2  502  501 -0.23851516163E+02  0.38642383864E+02  0.46586044190E+02  0.65056807232E+02  0.00000000000E+00 0.  1.
<scales pt_clust_5="13000.00000" pt_clust_6="13000.00000" pt_clust_7="13000.00000" pt_clust_8="13000.00000" pt_clust_9="45.41067"></scales>
<clustering>
<clus scale="   45.411">  1  9  2 -1</clus>
<clus scale="   79.399">  5  6 -1 -1</clus>
<clus scale="   85.635">  7  8 -1 -1</clus>
<clus scale="  165.776">  1  5  2 -1</clus>
<clus scale="  168.852">  2  5  1 -1</clus>
</clustering>
</event>
<event>
 9    2  0.2869112E-005  0.1124470E+03  0.7546771E-02  0.1260847E+00
          2   -1    0    0  502    0  0.00000000000E+00  0.00000000000E+00  0.53694520775E+02  0.53694520775E+02  0.00000000000E+00 0. -1.
         -1   -1    0    0    0  501 -0.00000000000E+00 -0.00000000000E+00 -0.52557233953E+03  0.52557233953E+03  0.00000000000E+00 0.  1.
         24    2    1    2    0    0  0.58474764425E+02  0.55954948348E+01 -0.34452331990E+03  0.35878114580E+03  0.81098612778E+02 0.  0.
         23    2    1    2    0    0 -0.77100939365E+02 -0.46919016346E+02 -0.70626937406E+02  0.14787315325E+03  0.93447077104E+02 0.  0.
        -13    1    3    3    0    0  0.73654466615E+02 -0.65209661493E+01 -0.20530795752E+03  0.21821746235E+03  0.00000000000E+00 0.  1.
         14    1    3    3    0    0 -0.15179702190E+02  0.12116460984E+02 -0.13921536237E+03  0.14056368346E+03  0.00000000000E+00 0. -1.
        -13    1    4    4    0    0 -0.81311805128E+02 -0.37043473607E+01 -0.64849591003E+02  0.10407113575E+03  0.00000000000E+00 0. -1.
         13    1    4    4    0    0  0.42108657625E+01 -0.43214668985E+02 -0.57773464029E+01  0.43802017504E+02  0.00000000000E+00 0.  1.
         21    1    1    2  502  501  0.18626174940E+02  0.41323521511E+02 -0.56727561454E+02  0.72612561251E+02  0.00000000000E+00 0.  1.
<scales pt_clust_5="13000.00000" pt_clust_6="13000.00000" pt_clust_7="13000.00000" pt_clust_8="13000.00000" pt_clust_9="45.32734"></scales>
<clustering>
<clus scale="   45.327">  1  9  2 -1</clus>
<clus scale="   81.099">  5  6 -1 -1</clus>
<clus scale="   93.447">  7  8 -1 -1</clus>
<clus scale="  102.416">  2  5  1 -1</clus>
<clus scale="   45.327">  1  5  2 -1</clus>
</clustering>
</event>
<event>
 9    2  0.2869112E-005  0.1042821E+03  0.7546771E-02  0.1274030E+00
          2   -1    0    0  502    0  0.00000000000E+00  0.00000000000E+00  0.23459583838E+03  0.23459583838E+03  0.00000000000E+00 0. -1.
         -1   -1    0    0    0  501 -0.00000000000E+00 -0.00000000000E+00 -0.67877927509E+02  0.67877927509E+02  0.00000000000E+00 0.  1.
         24    2    1    2    0    0  0.49739285805E+02 -0.43924284705E+02  0.33768199247E+02  0.11209817716E+03  0.83799586527E+02 0.  0.
         23    2    1    2    0    0 -0.47139692391E+02  0.13802726607E+02  0.11976081656E+03  0.15739054513E+03  0.89534712006E+02 0.  0.
        -13    1    3    3    0    0  0.24724904710E+02  0.22872621730E+02  0.20843180003E+02  0.39609542920E+02  0.00000000000E+00 0.  1.
         14    1    3    3    0    0  0.25014381095E+02 -0.66796906435E+02  0.12925019244E+02  0.72488634236E+02  0.00000000000E+00 0. -1.
        -11    1    4    4    0    0  0.26011555361E+01  0.27827074739E+02  0.11068326658E+01  0.27970290974E+02  0.00000000000E+00 0.  1.
         11    1    4    4    0    0 -0.49740847927E+02 -0.14024348132E+02  0.11865398389E+03  0.12942025416E+03  0.00000000000E+00 0. -1.
         21    1    1    2  502  501 -0.25995934138E+01  0.30121558098E+02  0.13188895066E+02  0.32985043600E+02  0.00000000000E+00 0. -1.
<scales pt_clust_5="13000.00000" pt_clust_6="13000.00000" pt_clust_7="13000.00000" pt_clust_8="13000.00000" pt_clust_9="30.23353"></scales>
<clustering>
<clus scale="   30.234">  2  9  1 -1</clus>
<clus scale="   83.800">  5  6 -1 -1</clus>
<clus scale="   89.535">  7  8 -1 -1</clus>
<clus scale="   99.402">  2  5  1 -1</clus>
<clus scale="  104.282">  1  5  2 -1</clus>
</clustering>
</event>
<event>
 9    2  0.2869112E-005  0.4843333E+03  0.7546771E-02  0.1059100E+00
          2   -1    0    0  502    0  0.00000000000E+00  0.00000000000E+00  0.60791076896E+03  0.60791076896E+03  0.00000000000E+00 0. -1.
         -1   -1    0    0    0  501 -0.00000000000E+00 -0.00000000000E+00 -0.98761043366E+03  0.98761043366E+03  0.00000000000E+00 0.  1.
         24    2    1    2    0    0  0.28309803580E+00  0.12183424298E+03 -0.50688482030E+02  0.15427376995E+03  0.79921279886E+02 0.  0.
         23    2    1    2    0    0  0.38487283099E+03  0.26202009195E+03  0.33642768917E+03  0.58188829222E+03  0.92891172706E+02 0.  0.
        -13    1    3    3    0    0  0.34747165651E+02  0.27567036345E+02 -0.74017441823E+01  0.44967686516E+02  0.00000000000E+00 0.  1.
         14    1    3    3    0    0 -0.34464067616E+02  0.94267206632E+02 -0.43286737848E+02  0.10930608344E+03  0.00000000000E+00 0. -1.
        -11    1    4    4    0    0  0.16995931966E+03  0.61893686076E+02  0.11944123271E+03  0.21675609976E+03  0.00000000000E+00 0.  1.
         11    1    4    4    0    0  0.21491351133E+03  0.20012640588E+03  0.21698645647E+03  0.36513219246E+03  0.00000000000E+00 0. -1.
         21    1    1    2  502  501 -0.38515592902E+03 -0.38385433493E+03 -0.66543887184E+03  0.85935914044E+03  0.00000000000E+00 0.  1.
<scales pt_clust_5="13000.00000" pt_clust_6="13000.00000" pt_clust_7="13000.00000" pt_clust_8="13000.00000" pt_clust_9="475.34197"></scales>
<clustering>
<clus scale="   79.921">  5  6 -1 -1</clus>
<clus scale="   92.891">  7  8 -1 -1</clus>
<clus scale="  145.709">  2  5  1 -1</clus>
<clus scale="  475.342">  2  9  1 -1</clus>
<clus scale="  484.333">  1  5  2 -1</clus>
</clustering>
</event>
<event>
 9    2  0.2869112E-005  0.1039502E+03  0.7546771E-02  0.1277610E+00
          2   -1    0    0  502    0  0.00000000000E+00  0.00000000000E+00  0.49476974436E+03  0.49476974436E+03  0.00000000000E+00 0. -1.
         -1   -1    0    0    0  501 -0.00000000000E+00 -0.00000000000E+00 -0.40703574245E+03  0.40703574245E+03  0.00000000000E+00 0.  1.
         23    2    1    2    0    0  0.11811226500E+03  0.42369153194E+02 -0.23676403480E+03  0.28319349618E+03  0.91628029657E+02 0.  0.
         24    2    1    2    0    0 -0.46503962383E+02  0.12215078984E+02  0.45256646330E+03  0.46205941386E+03  0.79816486748E+02 0.  0.
        -13    1    4    4    0    0 -0.49402762136E+02  0.30904137230E+02  0.18814670895E+03  0.19696416602E+03  0.00000000000E+00 0.  1.
         14    1    4    4    0    0  0.28987997521E+01 -0.18689058246E+02  0.26441975435E+03  0.26509524784E+03  0.00000000000E+00 0. -1.
        -13    1    3    3    0    0  0.16944855991E+02 -0.25122836138E+02 -0.26325283453E+02  0.40141071100E+02  0.00000000000E+00 0. -1.
         13    1    3    3    0    0  0.10116740901E+03  0.67491989332E+02 -0.21043875135E+03  0.24305242508E+03  0.00000000000E+00 0.  1.
         21    1    1    2  502  501 -0.71608302618E+02 -0.54584232178E+02 -0.12806842659E+03  0.15655257678E+03  0.00000000000E+00 0. -1.
<scales pt_clust_5="13000.00000" pt_clust_6="13000.00000" pt_clust_7="13000.00000" pt_clust_8="13000.00000" pt_clust_9="90.03992"></scales>
<clustering>
<clus scale="   79.816">  5  6 -1 -1</clus>
<clus scale="   90.040">  2  9  1 -1</clus>
<clus scale="   91.628">  7  8 -1 -1</clus>
<clus scale="   93.705">  1  5  2 -1</clus>
<clus scale="   93.705">  1  5  2 -1</clus>
</clustering>
</event>
<event>
 9    2  0.2869112E-005  0.9539200E+02  0.7546771E-02  0.1294121E+00
          2   -1    0    0  502    0  0.00000000000E+00  0.00000000000E+00  0.13761151555E+03  0.13761151555E+03  0.00000000000E+00 0. -1.
         -1   -1    0    0    0  501 -0.00000000000E+00 -0.00000000000E+00 -0.17685173198E+03  0.17685173198E+03  0.00000000000E+00 0.  1.
         24    2    1    2    0    0 -0.45624337446E+02 -0.16855092272E+02 -0.10365340930E+03  0.14030021254E+03  0.81082957986E+02 0.  0.
         23    2    1    2    0    0 -0.18566846513E+02 -0.36150950609E+01  0.56148525680E+02  0.10628195228E+03  0.88234912266E+02 0.  0.
        -11    1    3    3    0    0 -0.30718019183E+02 -0.35998724544E+02 -0.16952160307E+02  0.50268087395E+02  0.00000000000E+00 0.  1.
         12    1    3    3    0    0 -0.14906318263E+02  0.19143632272E+02 -0.86701248994E+02  0.90032125143E+02  0.00000000000E+00 0. -1.
        -13    1    4    4    0    0 -0.41860217763E+00 -0.44890340367E+02  0.32032836651E+02  0.55149075332E+02  0.00000000000E+00 0. -1.
         13    1    4    4    0    0 -0.18148244335E+02  0.41275245306E+02  0.24115689029E+02  0.51132876947E+02  0.00000000000E+00 0.  1.
         21    1    1    2  502  501  0.64191183959E+02  0.20470187333E+02  0.82646671883E+01  0.67881082720E+02  0.00000000000E+00 0.  1.
<scales pt_clust_5="13000.00000" pt_clust_6="13000.00000" pt_clust_7="13000.00000" pt_clust_8="13000.00000" pt_clust_9="67.37608"></scales>
<clustering>
<clus scale="   67.376">  1  9  2 -1</clus>
<clus scale="   81.083">  5  6 -1 -1</clus>
<clus scale="   88.235">  7  8 -1 -1</clus>
<clus scale="   88.818">  2  5  1 -1</clus>
<clus scale="   67.376">  1  5  2 -1</clus>
</clustering>
</event>
<event>
 9    2  0.2869112E-005  0.1626202E+03  0.7546771E-02  0.1187104E+00
         -1   -1    0    0    0  501 -0.00000000000E+00  0.00000000000E+00  0.10487650723E+03  0.10487650723E+03  0.00000000000E+00 0.  1.
          2   -1    0    0  502    0  0.00000000000E+00 -0.00000000000E+00 -0.43264047565E+03  0.43264047565E+03  0.00000000000E+00 0. -1.
         24    2    1    2    0    0  0.51542860113E+02  0.90424663604E+02 -0.46486195882E+02  0.13988940673E+03  0.81085100312E+02 0.  0.
         23    2    1    2    0    0 -0.96563393246E+02 -0.11809918368E+03 -0.29404015506E+03  0.34326209194E+03  0.89985248078E+02 0.  0.
        -11    1    3    3    0    0 -0.10719213226E+02  0.60944911750E+02 -0.31303720703E+02  0.69347723324E+02  0.00000000000E+00 0.  1.
         12    1    3    3    0    0  0.62262073339E+02  0.29479751853E+02 -0.15182475179E+02  0.70541683410E+02  0.00000000000E+00 0. -1.
        -11    1    4    4    0    0 -0.26224255060E+02 -0.24267548713E+00 -0.10499048981E+02  0.28248902179E+02  0.00000000000E+00 0.  1.
         11    1    4    4    0    0 -0.70339138186E+02 -0.11785650820E+03 -0.28354110608E+03  0.31501318976E+03  0.00000000000E+00 0. -1.
         21    1    1    2  502  501  0.45020533133E+02  0.27674520081E+02  0.12762382516E+02  0.54365484205E+02  0.00000000000E+00 0.  1.
<scales pt_clust_5="13000.00000" pt_clust_6="13000.00000" pt_clust_7="13000.00000" pt_clust_8="13000.00000" pt_clust_9="52.84626"></scales>
<clustering>
<clus scale="   52.846">  1  9  2 -1</clus>
<clus scale="   81.085">  5  6 -1 -1</clus>
<clus scale="   89.985">  7  8 -1 -1</clus>
<clus scale="  157.869">  1  5  2 -1</clus>
<clus scale="  162.620">  2  5  1 -1</clus>
</clustering>
</event>
<event>
 9    2  0.2869112E-005  0.1100791E+03  0.7546771E-02  0.1264488E+00
          2   -1    0    0  502    0  0.00000000000E+00  0.00000000000E+00  0.53642839277E+03  0.53642839277E+03  0.00000000000E+00 0. -1.
         -1   -1    0    0    0  501 -0.00000000000E+00 -0.00000000000E+00 -0.33322092247E+02  0.33322092247E+02  0.00000000000E+00 0.  1.
         23    2    1    2    0    0  0.19685916495E+02  0.44482449154E+02  0.10397179481E+03  0.14672599979E+03  0.91390159795E+02 0.  0.
         24    2    1    2    0    0  0.31015229072E+00 -0.67230624718E+02  0.34809515417E+03  0.36367519994E+03  0.81051598375E+02 0.  0.
        -11    1    4    4    0    0 -0.24018424254E+02 -0.27457126210E+02  0.49654268509E+02  0.61614323533E+02  0.00000000000E+00 0.  1.
         12    1    4    4    0    0  0.24328576544E+02 -0.39773498508E+02  0.29844088566E+03  0.30206087641E+03  0.00000000000E+00 0. -1.
        -13    1    3    3    0    0 -0.28050844321E+02  0.10639163911E+02  0.76320738741E+02  0.82005468341E+02  0.00000000000E+00 0. -1.
         13    1    3    3    0    0  0.47736760816E+02  0.33843285242E+02  0.27651056067E+02  0.64720531448E+02  0.00000000000E+00 0.  1.
         21    1    1    2  502  501 -0.19996068786E+02  0.22748175565E+02  0.51039351546E+02  0.59349285292E+02  0.00000000000E+00 0.  1.
<scales pt_clust_5="13000.00000" pt_clust_6="13000.00000" pt_clust_7="13000.00000" pt_clust_8="13000.00000" pt_clust_9="30.28733"></scales>
<clustering>
<clus scale="   30.287">  2  9  1 -1</clus>
<clus scale="   81.052">  5  6 -1 -1</clus>
<clus scale="   91.390">  7  8 -1 -1</clus>
<clus scale="  101.659">  1  5  2 -1</clus>
<clus scale="  101.659">  1  5  2 -1</clus>
</clustering>
</event>
<event>
 9    2  0.2869112E-005  0.9612563E+02  0.7546771E-02  0.1293049E+00
          2   -1    0    0  502    0  0.00000000000E+00  0.00000000000E+00  0.15157053834E+03  0.15157053834E+03  0.00000000000E+00 0. -1.
         -1   -1    0    0    0  501 -0.00000000000E+00 -0.00000000000E+00 -0.40420241511E+03  0.40420241511E+03  0.00000000000E+00 0.  1.
         23    2    1    2    0    0  0.64595269921E+02  0.78419795201E+01 -0.10762557130E+03  0.15415192381E+03  0.89137570531E+02 0.  0.
         24    2    1    2    0    0 -0.19806249572E+02  0.30343924308E+02  0.10921920951E+03  0.14067116459E+03  0.80910441583E+02 0.  0.
        -13    1    4    4    0    0  0.26458013347E+02 -0.68913108468E+01  0.48893849316E+02  0.56018971218E+02  0.00000000000E+00 0.  1.
         14    1    4    4    0    0 -0.46264262919E+02  0.37235235154E+02  0.60325360191E+02  0.84652193371E+02  0.00000000000E+00 0. -1.
        -11    1    3    3    0    0  0.64598953960E+02 -0.29551663736E+02 -0.83598802341E+02  0.10970453699E+03  0.00000000000E+00 0.  1.
         11    1    3    3    0    0 -0.36840388149E-02  0.37393643256E+02 -0.24026768954E+02  0.44447386829E+02  0.00000000000E+00 0. -1.
         21    1    1    2  502  501 -0.44789020349E+02 -0.38185903828E+02 -0.25422551499E+03  0.26094986504E+03  0.00000000000E+00 0.  1.
<scales pt_clust_5="13000.00000" pt_clust_6="13000.00000" pt_clust_7="13000.00000" pt_clust_8="13000.00000" pt_clust_9="58.85762"></scales>
<clustering>
<clus scale="   58.858">  2  9  1 -1</clus>
<clus scale="   80.910">  5  6 -1 -1</clus>
<clus scale="   88.550">  1  5  2 -1</clus>
<clus scale="   89.138">  7  8 -1 -1</clus>
<clus scale="   88.550">  1  5  2 -1</clus>
</clustering>
</event>
<event>
 9    2  0.2869112E-005  0.1295055E+03  0.7546771E-02  0.1231127E+00
         -3   -1    0    0    0  501 -0.00000000000E+00  0.00000000000E+00  0.41344382763E+03  0.41344382763E+03  0.00000000000E+00 0.  1.
          4   -1    0    0  502    0  0.00000000000E+00 -0.00000000000E+00 -0.10368493927E+03  0.10368493927E+03  0.00000000000E+00 0. -1.
         23    2    1    2    0    0 -0.10766864742E+03  0.19737168804E+02  0.32513615293E+03  0.35515218682E+03  0.91855671552E+02 0.  0.
         24    2    1    2    0    0  0.88956577099E+02 -0.48401270130E+01 -0.40889802219E+02  0.12700583504E+03  0.80757704095E+02 0.  0.
        -11    1    4    4    0    0  0.18951586216E+02  0.15634991190E+02  0.20245285908E+02  0.31835313271E+02  0.00000000000E+00 0.  1.
         12    1    4    4    0    0  0.70004990883E+02 -0.20475118203E+02 -0.61135088127E+02  0.95170521772E+02  0.00000000000E+00 0. -1.
        -11    1    3    3    0    0 -0.85068731493E+02  0.28554721526E+01  0.31313381973E+03  0.32449596586E+03  0.00000000000E+00 0.  1.
         11    1    3    3    0    0 -0.22599915931E+02  0.16881696651E+02  0.12002333198E+02  0.30656220969E+02  0.00000000000E+00 0. -1.
         21    1    1    2  502  501  0.18712070324E+02 -0.14897041791E+02  0.25512537654E+02  0.34970745023E+02  0.00000000000E+00 0. -1.
<scales pt_clust_5="13000.00000" pt_clust_6="13000.00000" pt_clust_7="13000.00000" pt_clust_8="13000.00000" pt_clust_9="23.91785"></scales>
<clustering>
<clus scale="   23.918">  1  9  2 -1</clus>
<clus scale="   80.758">  5  6 -1 -1</clus>
<clus scale="   91.856">  7  8 -1 -1</clus>
<clus scale="  121.885">  2  5  1 -1</clus>
<clus scale="  121.885">  2  5  1 -1</clus>
</clustering>
</event>
<event>
 9    2  0.2869112E-005  0.9392311E+02  0.7546771E-02  0.1296130E+00
          2   -1    0    0  502    0  0.00000000000E+00  0.00000000000E+00  0.28172377808E+03  0.28172377808E+03  0.00000000000E+00 0. -1.
         -1   -1    0    0    0  501 -0.00000000000E+00 -0.00000000000E+00 -0.47335655575E+02  0.47335655575E+02  0.00000000000E+00 0.  1.
         24    2    1    2    0    0  0.18732059257E+02 -0.26023546372E+02  0.43107459424E+02  0.97232935474E+02  0.81042431313E+02 0.  0.
         23    2    1    2    0    0 -0.31352398362E+00  0.43067120819E+02  0.18068562805E+03  0.20458717662E+03  0.85753958871E+02 0.  0.
        -11    1    3    3    0    0  0.23942465720E+02  0.31675869497E+01 -0.17456584775E+02  0.29799456771E+02  0.00000000000E+00 0.  1.
         12    1    3    3    0    0 -0.52104064629E+01 -0.29191133322E+02  0.60564044199E+02  0.67433478702E+02  0.00000000000E+00 0. -1.
        -13    1    4    4    0    0  0.35257285717E+02  0.34978248258E+02  0.56839544718E+02  0.75480380835E+02  0.00000000000E+00 0.  1.
         13    1    4    4    0    0 -0.35570809701E+02  0.80888725616E+01  0.12384608333E+03  0.12910679579E+03  0.00000000000E+00 0. -1.
         21    1    1    2  502  501 -0.18418535274E+02 -0.17043574447E+02  0.10595035029E+02  0.27239321556E+02  0.00000000000E+00 0. -1.
<scales pt_clust_5="13000.00000" pt_clust_6="13000.00000" pt_clust_7="13000.00000" pt_clust_8="13000.00000" pt_clust_9="25.09434"></scales>
<clustering>
<clus scale="   25.094">  2  9  1 -1</clus>
<clus scale="   81.042">  5  6 -1 -1</clus>
<clus scale="   85.754">  7  8 -1 -1</clus>
<clus scale="   89.642">  2  5  1 -1</clus>
<clus scale="   93.923">  1  5  2 -1</clus>
</clustering>
</event>
<event>
 9    2  0.2869112E-005  0.1147207E+03  0.7546771E-02  0.1257921E+00
          4   -1    0    0  502    0  0.00000000000E+00  0.00000000000E+00  0.50787876674E+02  0.50787876674E+02  0.00000000000E+00 0. -1.
         -3   -1    0    0    0  501 -0.00000000000E+00 -0.00000000000E+00 -0.40209800872E+03  0.40209800872E+03  0.00000000000E+00 0.  1.
         24    2    1    2    0    0 -0.46803805703E+02 -0.49749908693E+02 -0.25763472184E+03  0.27777477637E+03  0.78214620424E+02 0.  0.
         23    2    1    2    0    0  0.61180485351E+02  0.25658629012E+02 -0.55572579559E+02  0.12779404680E+03  0.94029728104E+02 0.  0.
        -11    1    3    3    0    0 -0.52297032588E+01 -0.34911797669E+02 -0.31311215306E+02  0.47186604207E+02  0.00000000000E+00 0.  1.
         12    1    3    3    0    0 -0.41574102445E+02 -0.14838111024E+02 -0.22632350653E+03  0.23058817216E+03  0.00000000000E+00 0. -1.
        -13    1    4    4    0    0  0.20244336950E+01  0.43701027687E+02 -0.48861811748E+02  0.65584714683E+02  0.00000000000E+00 0.  1.
         13    1    4    4    0    0  0.59156051656E+02 -0.18042398675E+02 -0.67107678105E+01  0.62209332114E+02  0.00000000000E+00 0. -1.
         21    1    1    2  502  501 -0.14376679647E+02  0.24091279681E+02 -0.38102830649E+02  0.47317062228E+02  0.00000000000E+00 0. -1.
<scales pt_clust_5="13000.00000" pt_clust_6="13000.00000" pt_clust_7="13000.00000" pt_clust_8="13000.00000" pt_clust_9="28.05492"></scales>
<clustering>
<clus scale="   28.055">  2  9  1 -1</clus>
<clus scale="   78.215">  5  6 -1 -1</clus>
<clus scale="   94.030">  7  8 -1 -1</clus>
<clus scale="  102.161">  2  5  1 -1</clus>
<clus scale="  114.721">  1  5  2 -1</clus>
</clustering>
</event>
<event>
 9    2  0.2869112E-005  0.2064672E+03  0.7546771E-02  0.1145282E+00
          2   -1    0    0  502    0  0.00000000000E+00  0.00000000000E+00  0.17506728443E+04  0.17506728443E+04  0.00000000000E+00 0. -1.
         -1   -1    0    0    0  501 -0.00000000000E+00 -0.00000000000E+00 -0.16076595824E+03  0.16076595824E+03  0.00000000000E+00 0.  1.
         23    2    1    2    0    0 -0.71179027380E+01 -0.20462595024E+03  0.40779971889E+03  0.46521124850E+03  0.90545297824E+02 0.  0.
         24    2    1    2    0    0  0.38864599096E+02  0.17700639439E+03  0.13031234168E+04  0.13181040774E+04  0.80162327056E+02 0.  0.
        -11    1    4    4    0    0  0.24282369905E+02  0.11178047328E+03  0.53573733167E+03  0.54781292084E+03  0.00000000000E+00 0.  1.
         12    1    4    4    0    0  0.14582229191E+02  0.65225921101E+02  0.76738608513E+03  0.77029115654E+03  0.00000000000E+00 0. -1.
        -13    1    3    3    0    0 -0.30135006031E+02 -0.16636417655E+03  0.25450051402E+03  0.30554160022E+03  0.00000000000E+00 0.  1.
         13    1    3    3    0    0  0.23017103293E+02 -0.38261773685E+02  0.15329920487E+03  0.15966964828E+03  0.00000000000E+00 0. -1.
         21    1    1    2  502  501 -0.31746696358E+02  0.27619555850E+02 -0.12101624963E+03  0.12812347666E+03  0.00000000000E+00 0.  1.
<scales pt_clust_5="13000.00000" pt_clust_6="13000.00000" pt_clust_7="13000.00000" pt_clust_8="13000.00000" pt_clust_9="42.07960"></scales>
<clustering>
<clus scale="   42.080">  2  9  1 -1</clus>
<clus scale="   80.162">  5  6 -1 -1</clus>
<clus scale="   90.545">  7  8 -1 -1</clus>
<clus scale="  202.129">  1  5  2 -1</clus>
<clus scale="  202.129">  1  5  2 -1</clus>
</clustering>
</event>
<event>
 9    2  0.2869112E-005  0.1018857E+03  0.7546771E-02  0.1281663E+00
          2   -1    0    0  502    0  0.00000000000E+00  0.00000000000E+00  0.68122420133E+03  0.68122420133E+03  0.00000000000E+00 0. -1.
         -1   -1    0    0    0  501 -0.00000000000E+00 -0.00000000000E+00 -0.23688279706E+02  0.23688279706E+02  0.00000000000E+00 0.  1.
         23    2    1    2    0    0  0.61508685411E+02  0.21451463785E+01  0.16916326558E+03  0.20189266703E+03  0.91413995345E+02 0.  0.
         24    2    1    2    0    0 -0.40248524852E+02  0.53805792540E+01  0.44616318233E+03  0.45516304182E+03  0.80392256974E+02 0.  0.
        -11    1    4    4    0    0  0.19637316607E+02  0.16715209579E+02  0.82776562312E+02  0.86700528851E+02  0.00000000000E+00 0.  1.
         12    1    4    4    0    0 -0.59885841458E+02 -0.11334630325E+02  0.36338662002E+03  0.36846251296E+03  0.00000000000E+00 0. -1.
        -11    1    3    3    0    0  0.52002688213E+02  0.28776502162E+02  0.44993457329E+02  0.74543798270E+02  0.00000000000E+00 0.  1.
         11    1    3    3    0    0  0.95059971977E+01 -0.26631355783E+02  0.12416980825E+03  0.12734886876E+03  0.00000000000E+00 0. -1.
         21    1    1    2  502  501 -0.21260160559E+02 -0.75257256325E+01  0.42209473718E+02  0.47856772194E+02  0.00000000000E+00 0.  1.
<scales pt_clust_5="13000.00000" pt_clust_6="13000.00000" pt_clust_7="13000.00000" pt_clust_8="13000.00000" pt_clust_9="22.55285"></scales>
<clustering>
<clus scale="   22.553">  2  9  1 -1</clus>
<clus scale="   80.392">  5  6 -1 -1</clus>
<clus scale="   91.414">  7  8 -1 -1</clus>
<clus scale="   92.125">  1  5  2 -1</clus>
<clus scale="   92.125">  1  5  2 -1</clus>
</clustering>
</event>
<event>
 9    2  0.2869112E-005  0.1102792E+03  0.7546771E-02  0.1265077E+00
          2   -1    0    0  502    0  0.00000000000E+00  0.00000000000E+00  0.32149655997E+03  0.32149655997E+03  0.00000000000E+00 0. -1.
         -1   -1    0    0    0  501 -0.00000000000E+00 -0.00000000000E+00 -0.10995014212E+03  0.10995014212E+03  0.00000000000E+00 0.  1.
         23    2    1    2    0    0  0.29657313725E+02  0.61557802673E+02  0.30776748765E+02  0.11978720768E+03  0.93449705894E+02 0.  0.
         24    2    1    2    0    0  0.25195370158E+00 -0.57568339510E+02  0.23189593721E+03  0.25229304440E+03  0.81005415632E+02 0.  0.
        -13    1    4    4    0    0  0.37654426418E+02 -0.32970114940E+02  0.84095047351E+02  0.97861439275E+02  0.00000000000E+00 0.  1.
         14    1    4    4    0    0 -0.37402472716E+02 -0.24598224571E+02  0.14780088986E+03  0.15443160512E+03  0.00000000000E+00 0. -1.
        -13    1    3    3    0    0  0.18374444710E+02 -0.21840619363E+02 -0.38180224925E+01  0.28796009590E+02  0.00000000000E+00 0. -1.
         13    1    3    3    0    0  0.11282869015E+02  0.83398422036E+02  0.34594771257E+02  0.90991198089E+02  0.00000000000E+00 0.  1.
         21    1    1    2  502  501 -0.29909267427E+02 -0.39894631628E+01 -0.51126268123E+02  0.59366450007E+02  0.00000000000E+00 0.  1.
<scales pt_clust_5="13000.00000" pt_clust_6="13000.00000" pt_clust_7="13000.00000" pt_clust_8="13000.00000" pt_clust_9="30.17416"></scales>
<clustering>
<clus scale="   30.174">  2  9  1 -1</clus>
<clus scale="   81.005">  5  6 -1 -1</clus>
<clus scale="   93.450">  7  8 -1 -1</clus>
<clus scale="   99.953">  1  5  2 -1</clus>
<clus scale="   99.953">  1  5  2 -1</clus>
</clustering>
</event>
<event>
 9    2  0.2869112E-005  0.1097994E+03  0.7546771E-02  0.1265894E+00
         -1   -1    0    0    0  501 -0.00000000000E+00  0.00000000000E+00  0.65654713786E+02  0.65654713786E+02  0.00000000000E+00 0.  1.
          2   -1    0    0  502    0  0.00000000000E+00 -0.00000000000E+00 -0.76558886856E+03  0.76558886856E+03  0.00000000000E+00 0. -1.
         23    2    1    2    0    0  0.28408234010E+01 -0.41305802497E+02 -0.19722838117E+02  0.10181599898E+03  0.90902517609E+02 0.  0.
         24    2    1    2    0    0  0.36317592727E+02  0.52943032948E+02 -0.68107402969E+03  0.68856744435E+03  0.78366824778E+02 0.  0.
        -11    1    4    4    0    0  0.30471544166E+02  0.34108789956E+02 -0.14308975189E+03  0.15022184146E+03  0.00000000000E+00 0.  1.
         12    1    4    4    0    0  0.58460485611E+01  0.18834242992E+02 -0.53798427780E+03  0.53834560289E+03  0.00000000000E+00 0. -1.
        -11    1    3    3    0    0 -0.43839573661E+02 -0.15191402376E+02 -0.94745057557E+01  0.47354547662E+02  0.00000000000E+00 0.  1.
         11    1    3    3    0    0  0.46680397062E+02 -0.26114400121E+02 -0.10248332361E+02  0.54461451319E+02  0.00000000000E+00 0. -1.
         21    1    1    2  502  501 -0.39158416128E+02 -0.11637230451E+02  0.86271303406E+00  0.40860139011E+02  0.00000000000E+00 0.  1.
<scales pt_clust_5="13000.00000" pt_clust_6="13000.00000" pt_clust_7="13000.00000" pt_clust_8="13000.00000" pt_clust_9="40.85103"></scales>
<clustering>
<clus scale="   40.851">  1  9  2 -1</clus>
<clus scale="   78.367">  5  6 -1 -1</clus>
<clus scale="   90.903">  7  8 -1 -1</clus>
<clus scale="   99.669">  2  5  1 -1</clus>
<clus scale="   99.669">  2  5  1 -1</clus>
</clustering>
</event>
<event>
 9    2  0.2869112E-005  0.8897157E+02  0.7546771E-02  0.1309204E+00
         -1   -1    0    0    0  501 -0.00000000000E+00  0.00000000000E+00  0.33012001202E+03  0.33012001202E+03  0.00000000000E+00 0.  1.
          2   -1    0    0  502    0  0.00000000000E+00 -0.00000000000E+00 -0.42031371635E+03  0.42031371635E+03  0.00000000000E+00 0. -1.
         23    2    1    2    0    0  0.15644396669E+02  0.30490103804E+02  0.23501265313E+03  0.25290629513E+03  0.86926712850E+02 0.  0.
         24    2    1    2    0    0  0.85370539554E+01 -0.16905557851E+02 -0.40481492143E+03  0.41322555961E+03  0.80756196829E+02 0.  0.
        -13    1    4    4    0    0 -0.31929101996E+02  0.10187111532E+02 -0.19264890983E+03  0.19554244361E+03  0.00000000000E+00 0.  1.
         14    1    4    4    0    0  0.40466155951E+02 -0.27092669384E+02 -0.21216601160E+03  0.21768311599E+03  0.00000000000E+00 0. -1.
        -13    1    3    3    0    0  0.45876054506E+02  0.10146748918E+01  0.16391015490E+03  0.17021216414E+03  0.00000000000E+00 0.  1.
         13    1    3    3    0    0 -0.30231657836E+02  0.29475428912E+02  0.71102498227E+02  0.82694130984E+02  0.00000000000E+00 0. -1.
         21    1    1    2  502  501 -0.24181450625E+02 -0.13584545953E+02  0.79608563963E+02  0.84301873641E+02  0.00000000000E+00 0.  1.
<scales pt_clust_5="13000.00000" pt_clust_6="13000.00000" pt_clust_7="13000.00000" pt_clust_8="13000.00000" pt_clust_9="27.73594"></scales>
<clustering>
<clus scale="   27.736">  1  9  2 -1</clus>
<clus scale="   80.756">  5  6 -1 -1</clus>
<clus scale="   82.953">  2  5  1 -1</clus>
<clus scale="   86.927">  7  8 -1 -1</clus>
<clus scale="   82.953">  2  5  1 -1</clus>
</clustering>
</event>
<event>
 9    2  0.2869112E-005  0.1122297E+03  0.7546771E-02  0.1256951E+00
         -1   -1    0    0    0  501 -0.00000000000E+00  0.00000000000E+00  0.35815864863E+03  0.35815864863E+03  0.00000000000E+00 0.  1.
          2   -1    0    0  502    0  0.00000000000E+00 -0.00000000000E+00 -0.32120255015E+03  0.32120255015E+03  0.00000000000E+00 0. -1.
         23    2    1    2    0    0 -0.49087788269E+02  0.52806358709E+02  0.30758802046E+03  0.32792395657E+03  0.87895440640E+02 0.  0.
         24    2    1    2    0    0 -0.13025438799E+02 -0.21893852834E+02 -0.26712604646E+03  0.28196834874E+03  0.86607286902E+02 0.  0.
        -11    1    4    4    0    0 -0.25038194523E+02  0.27051779322E+02 -0.78466537446E+02  0.86693179941E+02  0.00000000000E+00 0.  1.
         12    1    4    4    0    0  0.12012755724E+02 -0.48945632155E+02 -0.18865950902E+03  0.19527516880E+03  0.00000000000E+00 0. -1.
        -11    1    3    3    0    0  0.24290595482E+02  0.45136173940E+01  0.50034583912E+02  0.55802019302E+02  0.00000000000E+00 0. -1.
         11    1    3    3    0    0 -0.73378383751E+02  0.48292741315E+02  0.25755343655E+03  0.27212193727E+03  0.00000000000E+00 0.  1.
         21    1    1    2  502  501  0.62113227068E+02 -0.30912505875E+02 -0.35058755123E+01  0.69468893466E+02  0.00000000000E+00 0.  1.
<scales pt_clust_5="13000.00000" pt_clust_6="13000.00000" pt_clust_7="13000.00000" pt_clust_8="13000.00000" pt_clust_9="69.38037"></scales>
<clustering>
<clus scale="   69.380">  2  9  1 -1</clus>
<clus scale="   86.607">  5  6 -1 -1</clus>
<clus scale="   87.895">  7  8 -1 -1</clus>
<clus scale="  111.224">  2  5  1 -1</clus>
<clus scale="   69.380">  2  5  1 -1</clus>
</clustering>
</event>
<event>
 9    2  0.2869112E-005  0.1294626E+03  0.7546771E-02  0.1241467E+00
         -1   -1    0    0    0  501 -0.00000000000E+00  0.00000000000E+00  0.21943308246E+02  0.21943308246E+02  0.00000000000E+00 0.  1.
          2   -1    0    0  502    0  0.00000000000E+00 -0.00000000000E+00 -0.19065372365E+04  0.19065372365E+04  0.00000000000E+00 0. -1.
         23    2    1    2    0    0 -0.27966660337E+02  0.73887488300E+01 -0.18873463384E+03  0.21301567082E+03  0.94436149347E+02 0.  0.
         24    2    1    2    0    0 -0.15079908178E+02 -0.10233962842E+03 -0.12861515027E+04  0.12927011679E+04  0.78675398017E+02 0.  0.
        -13    1    4    4    0    0 -0.18798114028E+02 -0.21434517814E+02 -0.10578798376E+03  0.10956233456E+03  0.00000000000E+00 0.  1.
         14    1    4    4    0    0  0.37182058499E+01 -0.80905110606E+02 -0.11803635190E+04  0.11831388333E+04  0.00000000000E+00 0. -1.
        -11    1    3    3    0    0 -0.53962587126E+02  0.10713132155E+02 -0.17496541499E+03  0.18341109141E+03  0.00000000000E+00 0.  1.
         11    1    3    3    0    0  0.25995926789E+02 -0.33243833253E+01 -0.13769218850E+02  0.29604579406E+02  0.00000000000E+00 0. -1.
         21    1    1    2  502  501  0.43046568515E+02  0.94950879590E+02 -0.40970779166E+03  0.42276370604E+03  0.00000000000E+00 0.  1.
<scales pt_clust_5="13000.00000" pt_clust_6="13000.00000" pt_clust_7="13000.00000" pt_clust_8="13000.00000" pt_clust_9="102.81410"></scales>
<clustering>
<clus scale="   78.675">  5  6 -1 -1</clus>
<clus scale="   94.436">  7  8 -1 -1</clus>
<clus scale="   98.767">  1  7  2 -1</clus>
<clus scale="  102.814">  1  9  2 -1</clus>
<clus scale="  129.463">  2  5  1 -1</clus>
</clustering>
</event>
<event>
 9    2  0.2869112E-005  0.9319142E+02  0.7546771E-02  0.1300133E+00
         -1   -1    0    0    0  501 -0.00000000000E+00  0.00000000000E+00  0.17292940000E+03  0.17292940000E+03  0.00000000000E+00 0.  1.
          2   -1    0    0  502    0  0.00000000000E+00 -0.00000000000E+00 -0.21558920770E+03  0.21558920770E+03  0.00000000000E+00 0. -1.
         23    2    1    2    0    0  0.32644425143E+02 -0.10366010583E+02  0.13273957867E+03  0.16186491537E+03  0.86065919001E+02 0.  0.
         24    2    1    2    0    0 -0.58769425742E+02 -0.84372071164E+01 -0.16699546115E+03  0.19338655223E+03  0.77368227797E+02 0.  0.
        -13    1    4    4    0    0 -0.14538340493E+02 -0.14039750397E+02  0.33971785068E+00  0.20213691987E+02  0.00000000000E+00 0.  1.
         14    1    4    4    0    0 -0.44231085249E+02  0.56025432807E+01 -0.16733517900E+03  0.17317286024E+03  0.00000000000E+00 0. -1.
        -11    1    3    3    0    0  0.16048066411E+02 -0.35968642879E+02  0.12403215572E+03  0.13013554225E+03  0.00000000000E+00 0.  1.
         11    1    3    3    0    0  0.16596358732E+02  0.25602632296E+02  0.87074229500E+01  0.31729373112E+02  0.00000000000E+00 0. -1.
         21    1    1    2  502  501  0.26125000599E+02  0.18803217700E+02 -0.84039252177E+01  0.33267140112E+02  0.00000000000E+00 0. -1.
<scales pt_clust_5="13000.00000" pt_clust_6="13000.00000" pt_clust_7="13000.00000" pt_clust_8="13000.00000" pt_clust_9="32.18814"></scales>
<clustering>
<clus scale="   32.188">  2  9  1 -1</clus>
<clus scale="   77.368">  5  6 -1 -1</clus>
<clus scale="   85.224">  2  5  1 -1</clus>
<clus scale="   86.066">  7  8 -1 -1</clus>
<clus scale="   32.188">  2  5  1 -1</clus>
</clustering>
</event>
<event>
 9    2  0.2869112E-005  0.1228725E+03  0.7546771E-02  0.1239243E+00
         -1   -1    0    0    0  501 -0.00000000000E+00  0.00000000000E+00  0.79258587112E+02  0.79258587112E+02  0.00000000000E+00 0.  1.
          2   -1    0    0  502    0  0.00000000000E+00 -0.00000000000E+00 -0.49842033945E+03  0.49842033945E+03  0.00000000000E+00 0. -1.
         23    2    1    2    0    0 -0.69217274530E+02  0.40844583188E+02 -0.23601578744E+02  0.12545225141E+03  0.93391229754E+02 0.  0.
         24    2    1    2    0    0  0.45173064036E+02 -0.67175047391E+02 -0.39831720873E+03  0.41646330498E+03  0.90730330751E+02 0.  0.
        -13    1    4    4    0    0  0.39965664191E+02 -0.19501800737E+02 -0.59569227070E+02  0.74337523230E+02  0.00000000000E+00 0.  1.
         14    1    4    4    0    0  0.52073998453E+01 -0.47673246654E+02 -0.33874798166E+03  0.34212578176E+03  0.00000000000E+00 0. -1.
        -13    1    3    3    0    0  0.14464744333E+01 -0.24241583383E+02  0.58294928929E+01  0.24974579888E+02  0.00000000000E+00 0. -1.
         13    1    3    3    0    0 -0.70663748964E+02  0.65086166571E+02 -0.29431071637E+02  0.10047767152E+03  0.00000000000E+00 0.  1.
         21    1    1    2  502  501  0.24044210494E+02  0.26330464203E+02  0.27570351354E+01  0.35763370174E+02  0.00000000000E+00 0.  1.
<scales pt_clust_5="13000.00000" pt_clust_6="13000.00000" pt_clust_7="13000.00000" pt_clust_8="13000.00000" pt_clust_9="35.65694"></scales>
<clustering>
<clus scale="   35.657">  1  9  2 -1</clus>
<clus scale="   90.730">  5  6 -1 -1</clus>
<clus scale="   93.391">  7  8 -1 -1</clus>
<clus scale="  120.862">  2  5  1 -1</clus>
<clus scale="  120.862">  2  5  1 -1</clus>
</clustering>
</event>
<event>
 9    2  0.2869112E-005  0.1623128E+03  0.7546771E-02  0.1189270E+00
          2   -1    0    0  502    0  0.00000000000E+00  0.00000000000E+00  0.61154813245E+03  0.61154813245E+03  0.00000000000E+00 0. -1.
         -1   -1    0    0    0  501 -0.00000000000E+00 -0.00000000000E+00 -0.10888633584E+03  0.10888633584E+03  0.00000000000E+00 0.  1.
         23    2    1    2    0    0  0.47780776510E+02 -0.11974389171E+03  0.35887122667E+02  0.16245164108E+03  0.92092605067E+02 0.  0.
         24    2    1    2    0    0 -0.22241047525E+02  0.11657412314E+03  0.49451092027E+03  0.52014601247E+03  0.10920912799E+03 0.  0.
        -11    1    4    4    0    0 -0.54492301845E+02  0.73192044518E+02  0.18882644435E+03  0.20971865064E+03  0.00000000000E+00 0.  1.
         12    1    4    4    0    0  0.32251254321E+02  0.43382078619E+02  0.30568447592E+03  0.31042736182E+03  0.00000000000E+00 0. -1.
        -11    1    3    3    0    0  0.23993200233E+02  0.18039929174E+01  0.30001744966E+02  0.38458194820E+02  0.00000000000E+00 0. -1.
         11    1    3    3    0    0  0.23787576277E+02 -0.12154788463E+03  0.58853777017E+01  0.12399344626E+03  0.00000000000E+00 0.  1.
         21    1    1    2  502  501 -0.25539728986E+02  0.31697685779E+01 -0.27736246335E+02  0.37836814748E+02  0.00000000000E+00 0. -1.
<scales pt_clust_5="13000.00000" pt_clust_6="13000.00000" pt_clust_7="13000.00000" pt_clust_8="13000.00000" pt_clust_9="25.73568"></scales>
<clustering>
<clus scale="   25.736">  2  9  1 -1</clus>
<clus scale="   92.093">  7  8 -1 -1</clus>
<clus scale="  109.209">  5  6 -1 -1</clus>
<clus scale="  151.327">  2  7  1 -1</clus>
<clus scale="  162.313">  1  5  2 -1</clus>
</clustering>
</event>
<event>
 9    2  0.2869112E-005  0.1101418E+03  0.7546771E-02  0.1265534E+00
         -3   -1    0    0    0  501 -0.00000000000E+00  0.00000000000E+00  0.19420284153E+03  0.19420284153E+03  0.00000000000E+00 0.  1.
          4   -1    0    0  502    0  0.00000000000E+00 -0.00000000000E+00 -0.52492193350E+03  0.52492193350E+03  0.00000000000E+00 0. -1.
         23    2    1    2    0    0 -0.36747242909E+02 -0.91931106926E+00  0.97044260563E+01  0.99487308269E+02  0.91936628323E+02 0.  0.
         24    2    1    2    0    0  0.62976400909E+02 -0.81731056766E+00 -0.47343050061E+03  0.48405781490E+03  0.78796155900E+02 0.  0.
        -11    1    4    4    0    0 -0.11109278979E+02 -0.20122868425E+02 -0.79481064533E+02  0.82738053714E+02  0.00000000000E+00 0.  1.
         12    1    4    4    0    0  0.74085679888E+02  0.19305557857E+02 -0.39394943608E+03  0.40131976118E+03  0.00000000000E+00 0. -1.
        -11    1    3    3    0    0  0.56108596964E+01  0.26338714504E+02 -0.26245366381E+02  0.37603575425E+02  0.00000000000E+00 0. -1.
         11    1    3    3    0    0 -0.42358102605E+02 -0.27258025573E+02  0.35949792437E+02  0.61883732844E+02  0.00000000000E+00 0.  1.
         21    1    1    2  502  501 -0.26229158000E+02  0.17366216369E+01  0.13300698258E+03  0.13557965186E+03  0.00000000000E+00 0.  1.
<scales pt_clust_5="13000.00000" pt_clust_6="13000.00000" pt_clust_7="13000.00000" pt_clust_8="13000.00000" pt_clust_9="26.28659"></scales>
<clustering>
<clus scale="   26.287">  1  9  2 -1</clus>
<clus scale="   78.796">  5  6 -1 -1</clus>
<clus scale="   91.937">  7  8 -1 -1</clus>
<clus scale="   99.437">  2  5  1 -1</clus>
<clus scale="   99.437">  2  5  1 -1</clus>
</clustering>
</event>
<event>
 9    2  0.2869112E-005  0.9246137E+02  0.7546771E-02  0.1303143E+00
          2   -1    0    0  502    0  0.00000000000E+00  0.00000000000E+00  0.28364011096E+03  0.28364011096E+03  0.00000000000E+00 0. -1.
         -1   -1    0    0    0  501 -0.00000000000E+00 -0.00000000000E+00 -0.70905736902E+02  0.70905736902E+02  0.00000000000E+00 0.  1.
         23    2    1    2    0    0  0.29337729181E+02  0.13877449550E+02  0.33538521027E+02  0.10160910294E+03  0.90256808324E+02 0.  0.
         24    2    1    2    0    0  0.18068106488E+02 -0.19585339941E+02  0.18642874996E+03  0.20464380478E+03  0.80083493998E+02 0.  0.
        -13    1    4    4    0    0 -0.21563934147E+02 -0.13056573701E+02  0.16727026172E+02  0.30253442404E+02  0.00000000000E+00 0.  1.
         14    1    4    4    0    0  0.39632040635E+02 -0.65287662393E+01  0.16970172379E+03  0.17439036238E+03  0.00000000000E+00 0. -1.
        -11    1    3    3    0    0  0.30298743295E+01 -0.31372232741E+02  0.37656167953E+02  0.49105845992E+02  0.00000000000E+00 0. -1.
         11    1    3    3    0    0  0.26307854851E+02  0.45249682292E+02 -0.41176469264E+01  0.52503256952E+02  0.00000000000E+00 0.  1.
         21    1    1    2  502  501 -0.47405835669E+02  0.57078903902E+01 -0.72328969381E+01  0.48292940129E+02  0.00000000000E+00 0.  1.
<scales pt_clust_5="13000.00000" pt_clust_6="13000.00000" pt_clust_7="13000.00000" pt_clust_8="13000.00000" pt_clust_9="47.74823"></scales>
<clustering>
<clus scale="   47.748">  2  9  1 -1</clus>
<clus scale="   80.083">  5  6 -1 -1</clus>
<clus scale="   82.560">  1  5  2 -1</clus>
<clus scale="   90.257">  7  8 -1 -1</clus>
<clus scale="   82.560">  1  5  2 -1</clus>
</clustering>
</event>
<event>
 9    2  0.2869112E-005  0.9417268E+02  0.7546771E-02  0.1299404E+00
          2   -1    0    0  502    0  0.00000000000E+00  0.00000000000E+00  0.63808216610E+03  0.63808216610E+03  0.00000000000E+00 0. -1.
         -1   -1    0    0    0  501 -0.00000000000E+00 -0.00000000000E+00 -0.99651191478E+02  0.99651191478E+02  0.00000000000E+00 0.  1.
         23    2    1    2    0    0 -0.13728610797E+02  0.17920714530E+02 -0.66861667409E+02  0.11556165763E+03  0.91511678933E+02 0.  0.
         24    2    1    2    0    0  0.29643138178E+02  0.58476462382E+01  0.57122526425E+03  0.57768806943E+03  0.80698775940E+02 0.  0.
        -13    1    4    4    0    0 -0.13187249256E+02  0.16026862183E+02  0.44233228826E+02  0.48860437849E+02  0.00000000000E+00 0.  1.
         14    1    4    4    0    0  0.42830387435E+02 -0.10179215945E+02  0.52699203542E+03  0.52882763158E+03  0.00000000000E+00 0. -1.
        -13    1    3    3    0    0  0.60566856545E+01  0.26760084354E+02 -0.83723261175E+02  0.88104313274E+02  0.00000000000E+00 0.  1.
         13    1    3    3    0    0 -0.19785296451E+02 -0.88393698243E+01  0.16861593766E+02  0.27457344353E+02  0.00000000000E+00 0. -1.
         21    1    1    2  502  501 -0.15914527381E+02 -0.23768360768E+02  0.34067377781E+02  0.44483630520E+02  0.00000000000E+00 0. -1.
<scales pt_clust_5="13000.00000" pt_clust_6="13000.00000" pt_clust_7="13000.00000" pt_clust_8="13000.00000" pt_clust_9="28.60432"></scales>
<clustering>
<clus scale="   28.604">  1  9  2 -1</clus>
<clus scale="   80.699">  5  6 -1 -1</clus>
<clus scale="   83.704">  1  5  2 -1</clus>
<clus scale="   91.512">  7  8 -1 -1</clus>
<clus scale="   28.604">  1  5  2 -1</clus>
</clustering>
</event>
<event>
 9    2  0.2869112E-005  0.9485741E+02  0.7546771E-02  0.1296952E+00
          2   -1    0    0  502    0  0.00000000000E+00  0.00000000000E+00  0.34538472315E+03  0.34538472315E+03  0.00000000000E+00 0. -1.
         -1   -1    0    0    0  501 -0.00000000000E+00 -0.00000000000E+00 -0.29812988649E+02  0.29812988649E+02  0.00000000000E+00 0.  1.
         24    2    1    2    0    0  0.21686273071E+02  0.31926424274E+02  0.11771965269E+03  0.14722019826E+03  0.79537910071E+02 0.  0.
         23    2    1    2    0    0 -0.22413118425E+02 -0.11491006371E+02  0.16299337038E+03  0.18756384789E+03  0.89325064465E+02 0.  0.
        -13    1    3    3    0    0  0.72538000610E+01  0.34145489203E+02  0.70763509893E+01  0.35617506812E+02  0.00000000000E+00 0.  1.
         14    1    3    3    0    0  0.14432473010E+02 -0.22190649284E+01  0.11064330170E+03  0.11160269144E+03  0.00000000000E+00 0. -1.
        -13    1    4    4    0    0 -0.48747858451E+02 -0.29401902165E+02  0.76239683051E+02  0.95148908697E+02  0.00000000000E+00 0.  1.
         13    1    4    4    0    0  0.26334740026E+02  0.17910895794E+02  0.86753687333E+02  0.92414939194E+02  0.00000000000E+00 0. -1.
         21    1    1    2  502  501  0.72684535365E+00 -0.20435417903E+02  0.34858711430E+02  0.40413665654E+02  0.00000000000E+00 0.  1.
<scales pt_clust_5="13000.00000" pt_clust_6="13000.00000" pt_clust_7="13000.00000" pt_clust_8="13000.00000" pt_clust_9="20.44834"></scales>
<clustering>
<clus scale="   20.448">  1  9  2 -1</clus>
<clus scale="   79.538">  5  6 -1 -1</clus>
<clus scale="   85.704">  2  5  1 -1</clus>
<clus scale="   89.325">  7  8 -1 -1</clus>
<clus scale="   20.448">  1  5  2 -1</clus>
</clustering>
</event>
<event>
 9    2  0.2869112E-005  0.1366977E+03  0.7546771E-02  0.1220283E+00
          2   -1    0    0  502    0  0.00000000000E+00  0.00000000000E+00  0.13148298107E+04  0.13148298107E+04  0.00000000000E+00 0. -1.
         -1   -1    0    0    0  501 -0.00000000000E+00 -0.00000000000E+00 -0.35015223563E+02  0.35015223563E+02  0.00000000000E+00 0.  1.
         23    2    1    2    0    0 -0.50941766606E+02  0.74363421646E+02  0.19723722691E+03  0.23402242845E+03  0.87971536711E+02 0.  0.
         24    2    1    2    0    0  0.45205481789E+02 -0.98144272333E+02  0.10832602916E+04  0.10913501679E+04  0.76918761884E+02 0.  0.
        -11    1    4    4    0    0  0.24163245550E+02 -0.11415755631E+02  0.84846176443E+02  0.88955357169E+02  0.00000000000E+00 0.  1.
         12    1    4    4    0    0  0.21042236239E+02 -0.86728516702E+02  0.99841411511E+03  0.10023948107E+04  0.00000000000E+00 0. -1.
        -13    1    3    3    0    0 -0.12487396500E+02  0.54072785465E+02  0.17804900170E+03  0.18649731420E+03  0.00000000000E+00 0. -1.
         13    1    3    3    0    0 -0.38454370106E+02  0.20290636180E+02  0.19188225216E+02  0.47525114243E+02  0.00000000000E+00 0.  1.
         21    1    1    2  502  501  0.57362848164E+01  0.23780850687E+02 -0.68293132712E+00  0.24472437927E+02  0.00000000000E+00 0.  1.
<scales pt_clust_5="13000.00000" pt_clust_6="13000.00000" pt_clust_7="13000.00000" pt_clust_8="13000.00000" pt_clust_9="24.46291"></scales>
<clustering>
<clus scale="   24.463">  2  9  1 -1</clus>
<clus scale="   76.919">  5  6 -1 -1</clus>
<clus scale="   87.972">  7  8 -1 -1</clus>
<clus scale="  129.861">  1  5  2 -1</clus>
<clus scale="  129.861">  1  5  2 -1</clus>
</clustering>
</event>
<event>
 9    2  0.2869112E-005  0.9452068E+02  0.7546771E-02  0.1298994E+00
          2   -1    0    0  502    0  0.00000000000E+00  0.00000000000E+00  0.48274896213E+03  0.48274896213E+03  0.00000000000E+00 0. -1.
         -1   -1    0    0    0  501 -0.00000000000E+00 -0.00000000000E+00 -0.82324829226E+02  0.82324829226E+02  0.00000000000E+00 0.  1.
         23    2    1    2    0    0 -0.25845097280E+02  0.38240392719E+02 -0.95315544946E+01  0.10308707983E+03  0.91683143538E+02 0.  0.
         24    2    1    2    0    0  0.21364532841E+02 -0.54573384242E+01  0.41940973864E+03  0.42757474860E+03  0.80183607844E+02 0.  0.
        -13    1    4    4    0    0  0.12485731074E+02  0.27159980887E+02  0.64857536757E+02  0.71414691181E+02  0.00000000000E+00 0.  1.
         14    1    4    4    0    0  0.88788017670E+01 -0.32617319311E+02  0.35455220189E+03  0.35616005742E+03  0.00000000000E+00 0. -1.
        -11    1    3    3    0    0  0.18771967646E+01 -0.25375789729E+02 -0.20697938459E+02  0.32800293116E+02  0.00000000000E+00 0.  1.
         11    1    3    3    0    0 -0.27722294045E+02  0.63616182448E+02  0.11166383964E+02  0.70286786719E+02  0.00000000000E+00 0. -1.
         21    1    1    2  502  501  0.44805644388E+01 -0.32783054295E+02 -0.94540512500E+01  0.34411962915E+02  0.00000000000E+00 0.  1.
<scales pt_clust_5="13000.00000" pt_clust_6="13000.00000" pt_clust_7="13000.00000" pt_clust_8="13000.00000" pt_clust_9="33.08782"></scales>
<clustering>
<clus scale="   33.088">  2  9  1 -1</clus>
<clus scale="   80.184">  5  6 -1 -1</clus>
<clus scale="   83.413">  1  5  2 -1</clus>
<clus scale="   91.683">  7  8 -1 -1</clus>
<clus scale="   83.413">  1  5  2 -1</clus>
</clustering>
</event>
<event>
 9    2  0.2869112E-005  0.9177017E+02  0.7546771E-02  0.1304012E+00
         -1   -1    0    0    0  501 -0.00000000000E+00  0.00000000000E+00  0.89174059213E+02  0.89174059213E+02  0.00000000000E+00 0.  1.
          2   -1    0    0  502    0  0.00000000000E+00 -0.00000000000E+00 -0.23157842473E+03  0.23157842473E+03  0.00000000000E+00 0. -1.
         23    2    1    2    0    0 -0.86418144190E+01  0.21903777095E+02  0.25495218260E+02  0.96727626177E+02  0.90287159132E+02 0.  0.
         24    2    1    2    0    0  0.17517524921E+02  0.54753208258E+01 -0.17541566970E+03  0.19427784468E+03  0.81463985557E+02 0.  0.
        -11    1    4    4    0    0 -0.16439889000E+02 -0.18140115225E+02 -0.15215787059E+02  0.28824536537E+02  0.00000000000E+00 0.  1.
         12    1    4    4    0    0  0.33957413922E+02  0.23615436051E+02 -0.16019988264E+03  0.16545330815E+03  0.00000000000E+00 0. -1.
        -11    1    3    3    0    0  0.23851913173E+02 -0.26088120184E+02  0.94008884957E+01  0.36577048558E+02  0.00000000000E+00 0. -1.
         11    1    3    3    0    0 -0.32493727592E+02  0.47991897279E+02  0.16094329764E+02  0.60150577618E+02  0.00000000000E+00 0.  1.
         21    1    1    2  502  501 -0.88757105024E+01 -0.27379097921E+02  0.75160859168E+01  0.29747013084E+02  0.00000000000E+00 0.  1.
<scales pt_clust_5="13000.00000" pt_clust_6="13000.00000" pt_clust_7="13000.00000" pt_clust_8="13000.00000" pt_clust_9="28.78182"></scales>
<clustering>
<clus scale="   28.782">  1  9  2 -1</clus>
<clus scale="   81.464">  5  6 -1 -1</clus>
<clus scale="   83.105">  2  5  1 -1</clus>
<clus scale="   90.287">  7  8 -1 -1</clus>
<clus scale="   83.105">  2  5  1 -1</clus>
</clustering>
</event>
<event>
 9    2  0.2869112E-005  0.2144709E+03  0.7546771E-02  0.1177012E+00
         -1   -1    0    0    0  501 -0.00000000000E+00  0.00000000000E+00  0.27361345096E+03  0.27361345096E+03  0.00000000000E+00 0.  1.
          2   -1    0    0  502    0  0.00000000000E+00 -0.00000000000E+00 -0.65896352991E+03  0.65896352991E+03  0.00000000000E+00 0. -1.
         23    2    1    2    0    0 -0.15924852257E+03 -0.11390238262E+03  0.16877690497E+03  0.27432388145E+03  0.91837375712E+02 0.  0.
         24    2    1    2    0    0  0.40097829417E+01  0.96330827551E+01 -0.41835281010E+03  0.42715619452E+03  0.85641497873E+02 0.  0.
        -11    1    4    4    0    0 -0.39198584922E+02 -0.66536528870E+01 -0.21255765733E+03  0.21624420881E+03  0.00000000000E+00 0.  1.
         12    1    4    4    0    0  0.43208367864E+02  0.16286735642E+02 -0.20579515277E+03  0.21091198571E+03  0.00000000000E+00 0. -1.
        -11    1    3    3    0    0 -0.38220866718E+02  0.66106411788E+01  0.61251471319E+02  0.72500192884E+02  0.00000000000E+00 0. -1.
         11    1    3    3    0    0 -0.12102765586E+03 -0.12051302380E+03  0.10752543365E+03  0.20182368857E+03  0.00000000000E+00 0.  1.
         21    1    1    2  502  501  0.15523873963E+03  0.10426929987E+03 -0.13577417381E+03  0.23109690489E+03  0.00000000000E+00 0. -1.
<scales pt_clust_5="13000.00000" pt_clust_6="13000.00000" pt_clust_7="13000.00000" pt_clust_8="13000.00000" pt_clust_9="193.81348"></scales>
<clustering>
<clus scale="   85.641">  5  6 -1 -1</clus>
<clus scale="   86.275">  2  5  1 -1</clus>
<clus scale="   91.837">  7  8 -1 -1</clus>
<clus scale="  193.813">  2  9  1 -1</clus>
<clus scale="   86.275">  2  5  1 -1</clus>
</clustering>
</event>
<event>
 9    2  0.2869112E-005  0.1224311E+03  0.7546771E-02  0.1242523E+00
          2   -1    0    0  502    0  0.00000000000E+00  0.00000000000E+00  0.61901702666E+03  0.61901702666E+03  0.00000000000E+00 0. -1.
         -1   -1    0    0    0  501 -0.00000000000E+00 -0.00000000000E+00 -0.39395978008E+02  0.39395978008E+02  0.00000000000E+00 0.  1.
         24    2    1    2    0    0 -0.11149290972E+03  0.24084371529E+02  0.32607517862E+03  0.35431961189E+03  0.78782227614E+02 0.  0.
         23    2    1    2    0    0  0.49877828003E+02 -0.13386537687E+02  0.17706238028E+03  0.20529771398E+03  0.90161342823E+02 0.  0.
        -11    1    3    3    0    0 -0.36246419872E+02  0.96132206510E+01  0.28674884791E+02  0.47206630706E+02  0.00000000000E+00 0.  1.
         12    1    3    3    0    0 -0.75246489848E+02  0.14471150878E+02  0.29740029383E+03  0.30711298118E+03  0.00000000000E+00 0. -1.
        -11    1    4    4    0    0  0.11299678038E+02 -0.42977638538E+02  0.39716190988E+02  0.59599798361E+02  0.00000000000E+00 0.  1.
         11    1    4    4    0    0  0.38578149965E+02  0.29591100851E+02  0.13734618929E+03  0.14569791562E+03  0.00000000000E+00 0. -1.
         21    1    1    2  502  501  0.61615081717E+02 -0.10697833842E+02  0.76483489758E+02  0.98795678800E+02  0.00000000000E+00 0.  1.
<scales pt_clust_5="13000.00000" pt_clust_6="13000.00000" pt_clust_7="13000.00000" pt_clust_8="13000.00000" pt_clust_9="62.53688"></scales>
<clustering>
<clus scale="   62.537">  2  9  1 -1</clus>
<clus scale="   78.782">  5  6 -1 -1</clus>
<clus scale="   90.161">  7  8 -1 -1</clus>
<clus scale="  114.311">  2  5  1 -1</clus>
<clus scale="  122.431">  1  5  2 -1</clus>
</clustering>
</event>
<event>
 9    2  0.2869112E-005  0.1244983E+03  0.7546771E-02  0.1239056E+00
         -1   -1    0    0    0  501 -0.00000000000E+00  0.00000000000E+00  0.26351417047E+03  0.26351417047E+03  0.00000000000E+00 0.  1.
          2   -1    0    0  502    0  0.00000000000E+00 -0.00000000000E+00 -0.63525163612E+03  0.63525163612E+03  0.00000000000E+00 0. -1.
         23    2    1    2    0    0 -0.26392875228E+02  0.36223782762E+02 -0.60342731723E+02  0.11860366563E+03  0.91743326341E+02 0.  0.
         24    2    1    2    0    0 -0.34015553311E+02 -0.93130805484E+02 -0.53059076190E+03  0.54578107059E+03  0.80746613577E+02 0.  0.
        -11    1    4    4    0    0 -0.28603918348E+02 -0.47008437446E+02 -0.11374206235E+03  0.12635360733E+03  0.00000000000E+00 0.  1.
         12    1    4    4    0    0 -0.54116349624E+01 -0.46122368037E+02 -0.41684869954E+03  0.41942746326E+03  0.00000000000E+00 0. -1.
        -13    1    3    3    0    0  0.20877777748E+01 -0.19899391034E+02 -0.51245866705E+02  0.55013484110E+02  0.00000000000E+00 0. -1.
         13    1    3    3    0    0 -0.28480653003E+02  0.56123173796E+02 -0.90968650179E+01  0.63590181518E+02  0.00000000000E+00 0.  1.
         21    1    1    2  502  501  0.60408428538E+02  0.56907022722E+02  0.21919602797E+03  0.23438107038E+03  0.00000000000E+00 0.  1.
<scales pt_clust_5="13000.00000" pt_clust_6="13000.00000" pt_clust_7="13000.00000" pt_clust_8="13000.00000" pt_clust_9="82.99149"></scales>
<clustering>
<clus scale="   80.747">  5  6 -1 -1</clus>
<clus scale="   82.991">  1  9  2 -1</clus>
<clus scale="   91.743">  7  8 -1 -1</clus>
<clus scale="  116.632">  2  5  1 -1</clus>
<clus scale="  116.632">  2  5  1 -1</clus>
</clustering>
</event>
<event>
 9    2  0.2869112E-005  0.1349925E+03  0.7546771E-02  0.1222890E+00
         -1   -1    0    0    0  501 -0.00000000000E+00  0.00000000000E+00  0.68670660392E+02  0.68670660392E+02  0.00000000000E+00 0.  1.
          2   -1    0    0  502    0  0.00000000000E+00 -0.00000000000E+00 -0.36567291798E+03  0.36567291798E+03  0.00000000000E+00 0. -1.
         23    2    1    2    0    0 -0.22949696189E+01  0.10520028935E+03 -0.65254030013E+02  0.15431318881E+03  0.92098338982E+02 0.  0.
         24    2    1    2    0    0 -0.20658494045E+02 -0.94757312930E+02 -0.21616019305E+03  0.25038407325E+03  0.81001440409E+02 0.  0.
        -13    1    4    4    0    0  0.55166300208E+01 -0.56955996685E+02 -0.43981656705E+02  0.72172050627E+02  0.00000000000E+00 0.  1.
         14    1    4    4    0    0 -0.26175124066E+02 -0.37801316245E+02 -0.17217853635E+03  0.17821202263E+03  0.00000000000E+00 0. -1.
        -11    1    3    3    0    0  0.41657235795E+02  0.25770587276E+02 -0.20487373218E+02  0.53095959582E+02  0.00000000000E+00 0.  1.
         11    1    3    3    0    0 -0.43952205414E+02  0.79429702071E+02 -0.44766656795E+02  0.10121722923E+03  0.00000000000E+00 0. -1.
         21    1    1    2  502  501  0.22953463664E+02 -0.10442976417E+02 -0.15588034527E+02  0.29646316315E+02  0.00000000000E+00 0.  1.
<scales pt_clust_5="13000.00000" pt_clust_6="13000.00000" pt_clust_7="13000.00000" pt_clust_8="13000.00000" pt_clust_9="25.21740"></scales>
<clustering>
<clus scale="   25.217">  1  9  2 -1</clus>
<clus scale="   81.001">  5  6 -1 -1</clus>
<clus scale="   92.098">  7  8 -1 -1</clus>
<clus scale="  127.680">  2  5  1 -1</clus>
<clus scale="  127.680">  2  5  1 -1</clus>
</clustering>
</event>
<event>
 9    2  0.2869112E-005  0.9990303E+02  0.7546771E-02  0.1292686E+00
         -1   -1    0    0    0  501 -0.00000000000E+00  0.00000000000E+00  0.21544316529E+02  0.21544316529E+02  0.00000000000E+00 0.  1.
          2   -1    0    0  502    0  0.00000000000E+00 -0.00000000000E+00 -0.90954026135E+03  0.90954026135E+03  0.00000000000E+00 0. -1.
         23    2    1    2    0    0 -0.94801864810E+01  0.17303677327E+02 -0.32786513301E+03  0.34297374489E+03  0.98722606594E+02 0.  0.
         24    2    1    2    0    0  0.17477364091E+02  0.82708467776E+01 -0.55506308398E+03  0.56084009779E+03  0.77927677587E+02 0.  0.
        -11    1    4    4    0    0 -0.15553085271E+02  0.14894797918E+02 -0.47424123884E+02  0.52084556182E+02  0.00000000000E+00 0.  1.
         12    1    4    4    0    0  0.33030449362E+02 -0.66239511408E+01 -0.50763896009E+03  0.50875554161E+03  0.00000000000E+00 0. -1.
        -11    1    3    3    0    0  0.36642191115E+02 -0.68493676803E+01 -0.64372759817E+02  0.74386935774E+02  0.00000000000E+00 0. -1.
         11    1    3    3    0    0 -0.46122377596E+02  0.24153045007E+02 -0.26349237319E+03  0.26858680911E+03  0.00000000000E+00 0.  1.
         21    1    1    2  502  501 -0.79971776096E+01 -0.25574524105E+02 -0.50677278303E+01  0.27270735198E+02  0.00000000000E+00 0.  1.
<scales pt_clust_5="13000.00000" pt_clust_6="13000.00000" pt_clust_7="13000.00000" pt_clust_8="13000.00000" pt_clust_9="26.79573"></scales>
<clustering>
<clus scale="   26.796">  1  9  2 -1</clus>
<clus scale="   77.928">  5  6 -1 -1</clus>
<clus scale="   79.418">  2  5  1 -1</clus>
<clus scale="   98.723">  7  8 -1 -1</clus>
<clus scale="   79.418">  2  5  1 -1</clus>
</clustering>
</event>
<event>
 9    2  0.2869112E-005  0.1065235E+03  0.7546771E-02  0.1272256E+00
          4   -1    0    0  502    0  0.00000000000E+00  0.00000000000E+00  0.46992539433E+02  0.46992539433E+02  0.00000000000E+00 0. -1.
         -3   -1    0    0    0  501 -0.00000000000E+00 -0.00000000000E+00 -0.41238977416E+03  0.41238977416E+03  0.00000000000E+00 0.  1.
         23    2    1    2    0    0  0.15584264562E+02 -0.44951232537E+02 -0.24781365754E+03  0.26823507869E+03  0.90966839951E+02 0.  0.
         24    2    1    2    0    0  0.40786396688E+01  0.58214387622E+02 -0.33472369339E+02  0.10375595174E+03  0.78989542254E+02 0.  0.
        -13    1    4    4    0    0 -0.12384467970E+02  0.21406291899E+02 -0.53347954211E+02  0.58801433641E+02  0.00000000000E+00 0.  1.
         14    1    4    4    0    0  0.16463107639E+02  0.36808095722E+02  0.19875584872E+02  0.44954518103E+02  0.00000000000E+00 0. -1.
        -13    1    3    3    0    0 -0.37395911247E+02 -0.96641124208E+01 -0.82674582515E+02  0.91252045681E+02  0.00000000000E+00 0. -1.
         13    1    3    3    0    0  0.52980175809E+02 -0.35287120117E+02 -0.16513907502E+03  0.17698303301E+03  0.00000000000E+00 0.  1.
         21    1    1    2  502  501 -0.19662904230E+02 -0.13263155084E+02 -0.84111207854E+02  0.87391283159E+02  0.00000000000E+00 0.  1.
<scales pt_clust_5="13000.00000" pt_clust_6="13000.00000" pt_clust_7="13000.00000" pt_clust_8="13000.00000" pt_clust_9="23.71795"></scales>
<clustering>
<clus scale="   23.718">  2  9  1 -1</clus>
<clus scale="   78.990">  5  6 -1 -1</clus>
<clus scale="   90.967">  7  8 -1 -1</clus>
<clus scale="   96.497">  1  5  2 -1</clus>
<clus scale="   96.497">  1  5  2 -1</clus>
</clustering>
</event>
<event>
 9    2  0.2869112E-005  0.1399997E+03  0.7546771E-02  0.1217034E+00
          2   -1    0    0  502    0  0.00000000000E+00  0.00000000000E+00  0.29479267742E+03  0.29479267742E+03  0.00000000000E+00 0. -1.
         -1   -1    0    0    0  501 -0.00000000000E+00 -0.00000000000E+00 -0.11696108852E+03  0.11696108852E+03  0.00000000000E+00 0.  1.
         24    2    1    2    0    0  0.38272072718E+02 -0.97384545861E+02 -0.26392378255E+02  0.13533091771E+03  0.81666384371E+02 0.  0.
         23    2    1    2    0    0 -0.17467932769E+02  0.98218340546E+02  0.21234035516E+03  0.25407596463E+03  0.97540751888E+02 0.  0.
        -13    1    3    3    0    0 -0.24293905740E+02 -0.38402878835E+02 -0.18915618359E+00  0.45442389231E+02  0.00000000000E+00 0.  1.
         14    1    3    3    0    0  0.62565978458E+02 -0.58981667026E+02 -0.26203222072E+02  0.89888528482E+02  0.00000000000E+00 0. -1.
        -11    1    4    4    0    0  0.33183942443E+02  0.10261822418E+02  0.80637660786E+02  0.87800406448E+02  0.00000000000E+00 0.  1.
         11    1    4    4    0    0 -0.50651875212E+02  0.87956518128E+02  0.13170269437E+03  0.16627555818E+03  0.00000000000E+00 0. -1.
         21    1    1    2  502  501 -0.20804139949E+02 -0.83379468526E+00 -0.81163879962E+01  0.22346883602E+02  0.00000000000E+00 0.  1.
<scales pt_clust_5="13000.00000" pt_clust_6="13000.00000" pt_clust_7="13000.00000" pt_clust_8="13000.00000" pt_clust_9="20.82084"></scales>
<clustering>
<clus scale="   20.821">  2  9  1 -1</clus>
<clus scale="   81.666">  5  6 -1 -1</clus>
<clus scale="   97.541">  7  8 -1 -1</clus>
<clus scale="  129.442">  2  5  1 -1</clus>
<clus scale="  140.000">  1  5  2 -1</clus>
</clustering>
</event>
<event>
 9    2  0.2869112E-005  0.1065288E+03  0.7546771E-02  0.1272629E+00
          2   -1    0    0  502    0  0.00000000000E+00  0.00000000000E+00  0.15666868093E+03  0.15666868093E+03  0.00000000000E+00 0. -1.
         -1   -1    0    0    0  501 -0.00000000000E+00 -0.00000000000E+00 -0.15131786836E+03  0.15131786836E+03  0.00000000000E+00 0.  1.
         23    2    1    2    0    0  0.31273419432E+02  0.58035699188E+02 -0.87717468882E+02  0.14199560302E+03  0.90123403099E+02 0.  0.
         24    2    1    2    0    0 -0.70054529522E+01 -0.20265843441E+02  0.90778498604E+02  0.12103831225E+03  0.77134664337E+02 0.  0.
        -11    1    4    4    0    0  0.27579974029E+02  0.54435536584E+01  0.10660119859E+02  0.30065352140E+02  0.00000000000E+00 0.  1.
         12    1    4    4    0    0 -0.34585426982E+02 -0.25709397100E+02  0.80118378744E+02  0.90972960111E+02  0.00000000000E+00 0. -1.
        -13    1    3    3    0    0 -0.14422851268E+01  0.74158120445E+02 -0.49531408763E+02  0.89190063731E+02  0.00000000000E+00 0.  1.
         13    1    3    3    0    0  0.32715704559E+02 -0.16122421257E+02 -0.38186060119E+02  0.52805539287E+02  0.00000000000E+00 0. -1.
         21    1    1    2  502  501 -0.24267966480E+02 -0.37769855746E+02  0.22897828495E+01  0.44952634024E+02  0.00000000000E+00 0. -1.
<scales pt_clust_5="13000.00000" pt_clust_6="13000.00000" pt_clust_7="13000.00000" pt_clust_8="13000.00000" pt_clust_9="44.89428"></scales>
<clustering>
<clus scale="   44.894">  1  9  2 -1</clus>
<clus scale="   77.135">  5  6 -1 -1</clus>
<clus scale="   90.123">  7  8 -1 -1</clus>
<clus scale="   95.791">  1  5  2 -1</clus>
<clus scale="   44.894">  1  5  2 -1</clus>
</clustering>
</event>
<event>
 9    2  0.2869112E-005  0.9033829E+02  0.7546771E-02  0.1304554E+00
          2   -1    0    0  502    0  0.00000000000E+00  0.00000000000E+00  0.96647789361E+02  0.96647789361E+02  0.00000000000E+00 0. -1.
         -1   -1    0    0    0  501 -0.00000000000E+00 -0.00000000000E+00 -0.13883699407E+03  0.13883699407E+03  0.00000000000E+00 0.  1.
         24    2    1    2    0    0 -0.31205101631E+02 -0.16410652236E+02 -0.27232301249E+02  0.95278739723E+02  0.84222159419E+02 0.  0.
         23    2    1    2    0    0  0.11146864181E+02 -0.42483974169E+01  0.23426996449E+02  0.92222161056E+02  0.88395708977E+02 0.  0.
        -13    1    3    3    0    0  0.14007354644E+02 -0.38510520811E+02 -0.12395186821E+02  0.42812461429E+02  0.00000000000E+00 0.  1.
         14    1    3    3    0    0 -0.45212456275E+02  0.22099868575E+02 -0.14837114428E+02  0.52466278294E+02  0.00000000000E+00 0. -1.
        -13    1    4    4    0    0  0.22812714108E+02  0.38142474636E+02  0.17884335484E+02  0.47907387239E+02  0.00000000000E+00 0. -1.
         13    1    4    4    0    0 -0.11665849926E+02 -0.42390872053E+02  0.55426609645E+01  0.44314773817E+02  0.00000000000E+00 0.  1.
         21    1    1    2  502  501  0.20058237449E+02  0.20659049653E+02 -0.38383899906E+02  0.47983882650E+02  0.00000000000E+00 0.  1.
<scales pt_clust_5="13000.00000" pt_clust_6="13000.00000" pt_clust_7="13000.00000" pt_clust_8="13000.00000" pt_clust_9="28.79460"></scales>
<clustering>
<clus scale="   28.795">  2  9  1 -1</clus>
<clus scale="   84.222">  5  6 -1 -1</clus>
<clus scale="   86.259">  2  5  1 -1</clus>
<clus scale="   88.396">  7  8 -1 -1</clus>
<clus scale="   90.338">  1  5  2 -1</clus>
</clustering>
</event>
<event>
 9    2  0.2869112E-005  0.9075416E+02  0.7546771E-02  0.1305782E+00
         -1   -1    0    0    0  501 -0.00000000000E+00  0.00000000000E+00  0.64074197673E+02  0.64074197673E+02  0.00000000000E+00 0.  1.
          2   -1    0    0  502    0  0.00000000000E+00 -0.00000000000E+00 -0.88144532260E+03  0.88144532260E+03  0.00000000000E+00 0. -1.
         23    2    1    2    0    0 -0.58480965238E+01 -0.11660696348E+02 -0.36253110621E+01  0.74338566094E+02  0.73095194482E+02 0.  0.
         24    2    1    2    0    0 -0.22880987013E+02 -0.37172391595E+02 -0.80905442134E+03  0.81432992180E+03  0.81601707056E+02 0.  0.
        -11    1    4    4    0    0  0.23152819549E+02 -0.24255741215E+02 -0.15782931760E+03  0.16135206081E+03  0.00000000000E+00 0.  1.
         12    1    4    4    0    0 -0.46033806561E+02 -0.12916650380E+02 -0.65122510374E+03  0.65297786099E+03  0.00000000000E+00 0. -1.
        -13    1    3    3    0    0 -0.10395879667E+02 -0.41325311361E+02 -0.97375417224E+01  0.43711273053E+02  0.00000000000E+00 0. -1.
         13    1    3    3    0    0  0.45477831431E+01  0.29664615013E+02  0.61122306603E+01  0.30627293041E+02  0.00000000000E+00 0.  1.
         21    1    1    2  502  501  0.28729083537E+02  0.48833087942E+02 -0.46913925321E+01  0.56851032380E+02  0.00000000000E+00 0.  1.
<scales pt_clust_5="13000.00000" pt_clust_6="13000.00000" pt_clust_7="13000.00000" pt_clust_8="13000.00000" pt_clust_9="56.65713"></scales>
<clustering>
<clus scale="   56.657">  1  9  2 -1</clus>
<clus scale="   73.095">  7  8 -1 -1</clus>
<clus scale="   81.602">  5  6 -1 -1</clus>
<clus scale="   83.189">  1  7  2 -1</clus>
<clus scale="   90.754">  2  5  1 -1</clus>
</clustering>
</event>
<event>
 9    2  0.2869112E-005  0.1006540E+03  0.7546771E-02  0.1280002E+00
          2   -1    0    0  502    0  0.00000000000E+00  0.00000000000E+00  0.16957242750E+03  0.16957242750E+03  0.00000000000E+00 0. -1.
         -1   -1    0    0    0  501 -0.00000000000E+00 -0.00000000000E+00 -0.18818510122E+03  0.18818510122E+03  0.00000000000E+00 0.  1.
         24    2    1    2    0    0 -0.29336040129E+02  0.11252818977E+02  0.50984401962E+01  0.89749921960E+02  0.83915583857E+02 0.  0.
         23    2    1    2    0    0  0.55074499928E+02 -0.31555867949E+02  0.96022338897E+02  0.14386743665E+03  0.86305135521E+02 0.  0.
        -11    1    3    3    0    0 -0.18245701063E+02  0.18122397030E+02 -0.37347239221E+02  0.45344714784E+02  0.00000000000E+00 0.  1.
         12    1    3    3    0    0 -0.11090339065E+02 -0.68695780533E+01  0.42445679417E+02  0.44405207176E+02  0.00000000000E+00 0. -1.
        -11    1    4    4    0    0  0.13801894210E+02 -0.27933652437E+02  0.97553066446E+02  0.10240791959E+03  0.00000000000E+00 0. -1.
         11    1    4    4    0    0  0.41272605718E+02 -0.36222155127E+01 -0.15307275490E+01  0.41459517060E+02  0.00000000000E+00 0.  1.
         21    1    1    2  502  501 -0.25738459799E+02  0.20303048973E+02 -0.11973345282E+03  0.12414017011E+03  0.00000000000E+00 0.  1.
<scales pt_clust_5="13000.00000" pt_clust_6="13000.00000" pt_clust_7="13000.00000" pt_clust_8="13000.00000" pt_clust_9="32.78234"></scales>
<clustering>
<clus scale="   32.782">  2  9  1 -1</clus>
<clus scale="   83.916">  5  6 -1 -1</clus>
<clus scale="   86.305">  7  8 -1 -1</clus>
<clus scale="   98.613">  2  5  1 -1</clus>
<clus scale="  100.654">  1  5  2 -1</clus>
</clustering>
</event>
<event>
 9    2  0.2869112E-005  0.9989822E+02  0.7546771E-02  0.1285451E+00
          2   -1    0    0  502    0  0.00000000000E+00  0.00000000000E+00  0.27416823291E+03  0.27416823291E+03  0.00000000000E+00 0. -1.
         -1   -1    0    0    0  501 -0.00000000000E+00 -0.00000000000E+00 -0.11920186437E+03  0.11920186437E+03  0.00000000000E+00 0.  1.
         24    2    1    2    0    0  0.57460351356E+02  0.14741664609E+02 -0.23690891122E+02  0.10214565762E+03  0.79708646932E+02 0.  0.
         23    2    1    2    0    0 -0.40831266292E+02  0.10951887206E+02  0.21909322800E+03  0.24051198941E+03  0.89761006866E+02 0.  0.
        -13    1    3    3    0    0  0.41609950906E+01 -0.21140038940E+02 -0.30706933431E+02  0.37511743325E+02  0.00000000000E+00 0.  1.
         14    1    3    3    0    0  0.53299356265E+02  0.35881703549E+02  0.70160423086E+01  0.64633914299E+02  0.00000000000E+00 0. -1.
        -11    1    4    4    0    0 -0.20205227936E+02 -0.30191989674E+02  0.33913186073E+02  0.49698205864E+02  0.00000000000E+00 0.  1.
         11    1    4    4    0    0 -0.20626038356E+02  0.41143876879E+02  0.18518004193E+03  0.19081378355E+03  0.00000000000E+00 0. -1.
         21    1    1    2  502  501 -0.16629085064E+02 -0.25693551815E+02 -0.40435968335E+02  0.50712450248E+02  0.00000000000E+00 0.  1.
<scales pt_clust_5="13000.00000" pt_clust_6="13000.00000" pt_clust_7="13000.00000" pt_clust_8="13000.00000" pt_clust_9="30.60531"></scales>
<clustering>
<clus scale="   30.605">  2  9  1 -1</clus>
<clus scale="   79.709">  5  6 -1 -1</clus>
<clus scale="   89.761">  7  8 -1 -1</clus>
<clus scale="   90.973">  2  5  1 -1</clus>
<clus scale="   99.898">  1  5  2 -1</clus>
</clustering>
</event>
<event>
 9    2  0.2869112E-005  0.8762968E+02  0.7546771E-02  0.1318125E+00
          2   -1    0    0  502    0  0.00000000000E+00  0.00000000000E+00  0.42206329935E+03  0.42206329935E+03  0.00000000000E+00 0. -1.
         -1   -1    0    0    0  501 -0.00000000000E+00 -0.00000000000E+00 -0.20485832405E+02  0.20485832405E+02  0.00000000000E+00 0.  1.
         24    2    1    2    0    0 -0.96963203601E+00  0.59497888914E+00  0.13155637443E+03  0.15054512203E+03  0.73181007973E+02 0.  0.
         23    2    1    2    0    0 -0.18600533163E+01  0.19841024805E+02  0.23465411300E+03  0.25105940561E+03  0.87012334373E+02 0.  0.
        -11    1    3    3    0    0 -0.26772885086E+02  0.24178188955E+02  0.84897016520E+02  0.92243566773E+02  0.00000000000E+00 0.  1.
         12    1    3    3    0    0  0.25803253050E+02 -0.23583210066E+02  0.46659357913E+02  0.58301555260E+02  0.00000000000E+00 0. -1.
        -11    1    4    4    0    0 -0.25310947174E+02 -0.18318710554E+02  0.37158838902E+02  0.48548929049E+02  0.00000000000E+00 0. -1.
         11    1    4    4    0    0  0.23450893858E+02  0.38159735360E+02  0.19749527410E+03  0.20251047656E+03  0.00000000000E+00 0.  1.
         21    1    1    2  502  501  0.28296853523E+01 -0.20436003694E+02  0.35366979517E+02  0.40944604117E+02  0.00000000000E+00 0. -1.
<scales pt_clust_5="13000.00000" pt_clust_6="13000.00000" pt_clust_7="13000.00000" pt_clust_8="13000.00000" pt_clust_9="20.63098"></scales>
<clustering>
<clus scale="   20.631">  2  9  1 -1</clus>
<clus scale="   73.181">  5  6 -1 -1</clus>
<clus scale="   73.914">  2  5  1 -1</clus>
<clus scale="   87.012">  7  8 -1 -1</clus>
<clus scale="   87.630">  1  5  2 -1</clus>
</clustering>
</event>
<event>
 9    2  0.2869112E-005  0.1005672E+03  0.7546771E-02  0.1285399E+00
         -1   -1    0    0    0  501 -0.00000000000E+00  0.00000000000E+00  0.54270565490E+02  0.54270565490E+02  0.00000000000E+00 0.  1.
          2   -1    0    0  502    0  0.00000000000E+00 -0.00000000000E+00 -0.25950718962E+03  0.25950718962E+03  0.00000000000E+00 0. -1.
         24    2    1    2    0    0  0.45164575562E+02 -0.15415436753E+02 -0.24741214088E+02  0.93336515039E+02  0.76302704992E+02 0.  0.
         23    2    1    2    0    0 -0.30946295639E+02  0.35315058366E+02 -0.15643154585E+03  0.18613054226E+03  0.89268828068E+02 0.  0.
        -11    1    3    3    0    0  0.56145569998E+02  0.45142790025E+01 -0.37095215171E+02  0.67444486312E+02  0.00000000000E+00 0.  1.
         12    1    3    3    0    0 -0.10980994435E+02 -0.19929715756E+02  0.12354001082E+02  0.25892028728E+02  0.00000000000E+00 0. -1.
        -11    1    4    4    0    0  0.23402096802E+02  0.27959037941E+02 -0.26425290949E+02  0.45029567387E+02  0.00000000000E+00 0.  1.
         11    1    4    4    0    0 -0.54348392441E+02  0.73560204251E+01 -0.13000625490E+03  0.14110097487E+03  0.00000000000E+00 0. -1.
         21    1    1    2  502  501 -0.14218279923E+02 -0.19899621613E+02 -0.24063864193E+02  0.34310697810E+02  0.00000000000E+00 0.  1.
<scales pt_clust_5="13000.00000" pt_clust_6="13000.00000" pt_clust_7="13000.00000" pt_clust_8="13000.00000" pt_clust_9="24.45720"></scales>
<clustering>
<clus scale="   24.457">  2  9  1 -1</clus>
<clus scale="   76.303">  5  6 -1 -1</clus>
<clus scale="   89.258">  1  5  2 -1</clus>
<clus scale="   89.269">  7  8 -1 -1</clus>
<clus scale="   24.457">  2  5  1 -1</clus>
</clustering>
</event>
<event>
 9    2  0.2869112E-005  0.1157742E+03  0.7546771E-02  0.1253803E+00
         -1   -1    0    0    0  501 -0.00000000000E+00  0.00000000000E+00  0.13324526438E+03  0.13324526438E+03  0.00000000000E+00 0.  1.
          2   -1    0    0  502    0  0.00000000000E+00 -0.00000000000E+00 -0.45135799477E+03  0.45135799477E+03  0.00000000000E+00 0. -1.
         23    2    1    2    0    0  0.44844038309E+02  0.28875628230E+02  0.81099781959E+02  0.13478075085E+03  0.93508750858E+02 0.  0.
         24    2    1    2    0    0 -0.77824618602E+02  0.15745494835E+02 -0.35780388434E+03  0.38058785098E+03  0.10256169266E+03 0.  0.
        -13    1    4    4    0    0 -0.18858994575E+02  0.54341327196E+02 -0.19192093235E+03  0.20035539871E+03  0.00000000000E+00 0.  1.
         14    1    4    4    0    0 -0.58965624027E+02 -0.38595832360E+02 -0.16588295199E+03  0.18023245228E+03  0.00000000000E+00 0. -1.
        -13    1    3    3    0    0  0.18636132632E+02  0.39367243662E+02  0.94107486240E+02  0.10369814019E+03  0.00000000000E+00 0.  1.
         13    1    3    3    0    0  0.26207905678E+02 -0.10491615432E+02 -0.13007704280E+02  0.31082610653E+02  0.00000000000E+00 0. -1.
         21    1    1    2  502  501  0.32980580292E+02 -0.44621123065E+02 -0.41408628009E+02  0.69234657315E+02  0.00000000000E+00 0.  1.
<scales pt_clust_5="13000.00000" pt_clust_6="13000.00000" pt_clust_7="13000.00000" pt_clust_8="13000.00000" pt_clust_9="55.48660"></scales>
<clustering>
<clus scale="   55.487">  2  9  1 -1</clus>
<clus scale="   93.509">  7  8 -1 -1</clus>
<clus scale="  102.562">  5  6 -1 -1</clus>
<clus scale="  107.836">  1  7  2 -1</clus>
<clus scale="   55.487">  2  5  1 -1</clus>
</clustering>
</event>
<event>
 9    2  0.2869112E-005  0.1004516E+03  0.7546771E-02  0.1287805E+00
         -1   -1    0    0    0  501 -0.00000000000E+00  0.00000000000E+00  0.98634621987E+02  0.98634621987E+02  0.00000000000E+00 0.  1.
          2   -1    0    0  502    0  0.00000000000E+00 -0.00000000000E+00 -0.19621353825E+03  0.19621353825E+03  0.00000000000E+00 0. -1.
         23    2    1    2    0    0 -0.61861552262E+01 -0.86473715547E+01  0.25063290669E+02  0.95325137007E+02  0.91354625799E+02 0.  0.
         24    2    1    2    0    0  0.36675392243E+02  0.32328961233E+02 -0.13240796503E+03  0.15970115368E+03  0.74715079816E+02 0.  0.
        -11    1    4    4    0    0 -0.22036752801E+02  0.45197899054E+01 -0.21216659219E+02  0.30922380296E+02  0.00000000000E+00 0.  1.
         12    1    4    4    0    0  0.58712145043E+02  0.27809171328E+02 -0.11119130581E+03  0.12877877338E+03  0.00000000000E+00 0. -1.
        -13    1    3    3    0    0 -0.44150578411E+02 -0.25138627388E+01  0.34074137732E+02  0.55826874729E+02  0.00000000000E+00 0.  1.
         13    1    3    3    0    0  0.37964423184E+02 -0.61335088160E+01 -0.90108470636E+01  0.39498262277E+02  0.00000000000E+00 0. -1.
         21    1    1    2  502  501 -0.30489237017E+02 -0.23681589678E+02  0.97657580978E+01  0.39821869554E+02  0.00000000000E+00 0. -1.
<scales pt_clust_5="13000.00000" pt_clust_6="13000.00000" pt_clust_7="13000.00000" pt_clust_8="13000.00000" pt_clust_9="38.60584"></scales>
<clustering>
<clus scale="   38.606">  1  9  2 -1</clus>
<clus scale="   74.715">  5  6 -1 -1</clus>
<clus scale="   85.599">  2  5  1 -1</clus>
<clus scale="   91.355">  7  8 -1 -1</clus>
<clus scale="   85.599">  2  5  1 -1</clus>
</clustering>
</event>
<event>
 9    2  0.2869112E-005  0.1603436E+03  0.7546771E-02  0.1210636E+00
         -1   -1    0    0    0  501 -0.00000000000E+00  0.00000000000E+00  0.54765148803E+03  0.54765148803E+03  0.00000000000E+00 0.  1.
          2   -1    0    0  502    0  0.00000000000E+00 -0.00000000000E+00 -0.35669440076E+03  0.35669440076E+03  0.00000000000E+00 0. -1.
         24    2    1    2    0    0 -0.13941867967E+03  0.42985937626E+02  0.41330868235E+03  0.44577367568E+03  0.81269575804E+02 0.  0.
         23    2    1    2    0    0  0.32870004235E+02  0.20923001989E+02 -0.29745086800E+03  0.31339344885E+03  0.90665460421E+02 0.  0.
        -11    1    3    3    0    0 -0.92735889712E+02 -0.11183078596E+02  0.26823174977E+03  0.28403041752E+03  0.00000000000E+00 0.  1.
         12    1    3    3    0    0 -0.46682789959E+02  0.54169016222E+02  0.14507693258E+03  0.16174325817E+03  0.00000000000E+00 0. -1.
        -11    1    4    4    0    0  0.44154495228E+02 -0.23143756729E+02 -0.11468144690E+03  0.12504833940E+03  0.00000000000E+00 0.  1.
         11    1    4    4    0    0 -0.11284490993E+02  0.44066758718E+02 -0.18276942111E+03  0.18834510945E+03  0.00000000000E+00 0. -1.
         21    1    1    2  502  501  0.10654867544E+03 -0.63908939615E+02  0.75099272923E+02  0.14517876427E+03  0.00000000000E+00 0.  1.
<scales pt_clust_5="13000.00000" pt_clust_6="13000.00000" pt_clust_7="13000.00000" pt_clust_8="13000.00000" pt_clust_9="138.22196"></scales>
<clustering>
<clus scale="   81.270">  5  6 -1 -1</clus>
<clus scale="   90.665">  7  8 -1 -1</clus>
<clus scale="   98.684">  2  7  1 -1</clus>
<clus scale="  138.222">  2  9  1 -1</clus>
<clus scale="   98.684">  2  5  1 -1</clus>
</clustering>
</event>
<event>
 9    2  0.2869112E-005  0.1686535E+03  0.7546771E-02  0.1199707E+00
          2   -1    0    0  502    0  0.00000000000E+00  0.00000000000E+00  0.33763362543E+03  0.33763362543E+03  0.00000000000E+00 0. -1.
         -1   -1    0    0    0  501 -0.00000000000E+00 -0.00000000000E+00 -0.42338236917E+03  0.42338236917E+03  0.00000000000E+00 0.  1.
         23    2    1    2    0    0 -0.44195980052E+02  0.21896271545E+02 -0.28312832913E+03  0.30277933307E+03  0.95293978934E+02 0.  0.
         24    2    1    2    0    0  0.13285067248E+03 -0.85713490677E+02  0.27286228982E+03  0.32545891258E+03  0.80458504255E+02 0.  0.
        -13    1    4    4    0    0  0.42507253101E+02 -0.12872065867E+02  0.23121788864E+02  0.50071686272E+02  0.00000000000E+00 0.  1.
         14    1    4    4    0    0  0.90343419379E+02 -0.72841424810E+02  0.24974050096E+03  0.27538722631E+03  0.00000000000E+00 0. -1.
        -13    1    3    3    0    0 -0.26494609522E+02 -0.30958644425E+02 -0.58196412143E+02  0.71043820173E+02  0.00000000000E+00 0. -1.
         13    1    3    3    0    0 -0.17701370530E+02  0.52854915970E+02 -0.22493191698E+03  0.23173551290E+03  0.00000000000E+00 0.  1.
         21    1    1    2  502  501 -0.88654692428E+02  0.63817219132E+02 -0.75482704438E+02  0.13277774895E+03  0.00000000000E+00 0.  1.
<scales pt_clust_5="13000.00000" pt_clust_6="13000.00000" pt_clust_7="13000.00000" pt_clust_8="13000.00000" pt_clust_9="148.22428"></scales>
<clustering>
<clus scale="   80.459">  5  6 -1 -1</clus>
<clus scale="   95.294">  7  8 -1 -1</clus>
<clus scale="  107.302">  2  7  1 -1</clus>
<clus scale="  148.224">  2  9  1 -1</clus>
<clus scale="  168.654">  1  5  2 -1</clus>
</clustering>
</event>
<event>
 9    2  0.2869112E-005  0.1562770E+03  0.7546771E-02  0.1194120E+00
         -1   -1    0    0    0  501 -0.00000000000E+00  0.00000000000E+00  0.18089701039E+03  0.18089701039E+03  0.00000000000E+00 0.  1.
          2   -1    0    0  502    0  0.00000000000E+00 -0.00000000000E+00 -0.54314042117E+03  0.54314042117E+03  0.00000000000E+00 0. -1.
         24    2    1    2    0    0  0.15106131711E+02  0.73503993417E+02  0.11590382744E+03  0.16230212910E+03  0.85306808816E+02 0.  0.
         23    2    1    2    0    0 -0.70201695288E+02 -0.11134528719E+03 -0.46714177613E+03  0.49399606098E+03  0.92111987586E+02 0.  0.
        -13    1    3    3    0    0  0.30911447866E+02  0.18865394268E+00  0.64058933232E+02  0.71127351464E+02  0.00000000000E+00 0.  1.
         14    1    3    3    0    0 -0.15805316154E+02  0.73315339474E+02  0.51844894211E+02  0.91174777634E+02  0.00000000000E+00 0. -1.
        -13    1    4    4    0    0 -0.88392644074E+02 -0.64187869720E+02 -0.29450773019E+03  0.31411486002E+03  0.00000000000E+00 0. -1.
         13    1    4    4    0    0  0.18190948785E+02 -0.47157417466E+02 -0.17263404595E+03  0.17988120096E+03  0.00000000000E+00 0.  1.
         21    1    1    2  502  501  0.55095563577E+02  0.37841293770E+02 -0.11005462095E+02  0.67739241478E+02  0.00000000000E+00 0.  1.
<scales pt_clust_5="13000.00000" pt_clust_6="13000.00000" pt_clust_7="13000.00000" pt_clust_8="13000.00000" pt_clust_9="66.83924"></scales>
<clustering>
<clus scale="   66.839">  1  9  2 -1</clus>
<clus scale="   85.307">  5  6 -1 -1</clus>
<clus scale="   92.112">  7  8 -1 -1</clus>
<clus scale="  152.365">  1  5  2 -1</clus>
<clus scale="  156.277">  2  5  1 -1</clus>
</clustering>
</event>
<event>
 9    2  0.2869112E-005  0.1028538E+03  0.7546771E-02  0.1279288E+00
          2   -1    0    0  502    0  0.00000000000E+00  0.00000000000E+00  0.71494435833E+03  0.71494435833E+03  0.00000000000E+00 0. -1.
         -1   -1    0    0    0  501 -0.00000000000E+00 -0.00000000000E+00 -0.53083009306E+02  0.53083009306E+02  0.00000000000E+00 0.  1.
         23    2    1    2    0    0 -0.54228756784E+02 -0.45675064618E+02  0.24416895576E+03  0.27027751244E+03  0.91675979316E+02 0.  0.
         24    2    1    2    0    0 -0.19798725312E+02  0.46963035744E+02  0.41252711469E+03  0.42353121145E+03  0.81256079600E+02 0.  0.
        -13    1    4    4    0    0 -0.48056428814E+01 -0.23082302140E+02  0.12590992349E+03  0.12809838292E+03  0.00000000000E+00 0.  1.
         14    1    4    4    0    0 -0.14993082431E+02  0.70045337884E+02  0.28661719120E+03  0.29543282853E+03  0.00000000000E+00 0. -1.
        -11    1    3    3    0    0 -0.79088411545E+02 -0.23796713299E+02  0.18106290138E+03  0.19901013708E+03  0.00000000000E+00 0. -1.
         11    1    3    3    0    0  0.24859654761E+02 -0.21878351319E+02  0.63106054380E+02  0.71267375359E+02  0.00000000000E+00 0.  1.
         21    1    1    2  502  501  0.74027482097E+02 -0.12879711259E+01  0.51652785684E+01  0.74218643735E+02  0.00000000000E+00 0.  1.
<scales pt_clust_5="13000.00000" pt_clust_6="13000.00000" pt_clust_7="13000.00000" pt_clust_8="13000.00000" pt_clust_9="74.03869"></scales>
<clustering>
<clus scale="   74.039">  2  9  1 -1</clus>
<clus scale="   81.256">  5  6 -1 -1</clus>
<clus scale="   91.676">  7  8 -1 -1</clus>
<clus scale="   93.686">  1  5  2 -1</clus>
<clus scale="   93.686">  1  5  2 -1</clus>
</clustering>
</event>
<event>
 9    2  0.2869112E-005  0.1419890E+03  0.7546771E-02  0.1214528E+00
          2   -1    0    0  502    0  0.00000000000E+00  0.00000000000E+00  0.62934813624E+03  0.62934813624E+03  0.00000000000E+00 0. -1.
         -1   -1    0    0    0  501 -0.00000000000E+00 -0.00000000000E+00 -0.53507037716E+02  0.53507037716E+02  0.00000000000E+00 0.  1.
         23    2    1    2    0    0  0.84600275977E+02 -0.56141336357E+01  0.12019238834E+03  0.17575673011E+03  0.96205471634E+02 0.  0.
         24    2    1    2    0    0 -0.10366498905E+03  0.46327693707E+02  0.43715932835E+03  0.45848862489E+03  0.78808981914E+02 0.  0.
        -13    1    4    4    0    0 -0.40718561516E+02 -0.68659675779E+01  0.62760002395E+02  0.75126298081E+02  0.00000000000E+00 0.  1.
         14    1    4    4    0    0 -0.62946427535E+02  0.53193661285E+02  0.37439932595E+03  0.38336232681E+03  0.00000000000E+00 0. -1.
        -11    1    3    3    0    0  0.20347352117E+00  0.34043845786E+02  0.41977052122E+02  0.54047180706E+02  0.00000000000E+00 0. -1.
         11    1    3    3    0    0  0.84396802456E+02 -0.39657979421E+02  0.78215336220E+02  0.12170954941E+03  0.00000000000E+00 0.  1.
         21    1    1    2  502  501  0.19064713074E+02 -0.40713560072E+02  0.18489381831E+02  0.48609818955E+02  0.00000000000E+00 0.  1.
<scales pt_clust_5="13000.00000" pt_clust_6="13000.00000" pt_clust_7="13000.00000" pt_clust_8="13000.00000" pt_clust_9="44.95617"></scales>
<clustering>
<clus scale="   44.956">  2  9  1 -1</clus>
<clus scale="   78.809">  5  6 -1 -1</clus>
<clus scale="   96.205">  7  8 -1 -1</clus>
<clus scale="  130.829">  1  5  2 -1</clus>
<clus scale="  130.829">  1  5  2 -1</clus>
</clustering>
</event>
<event>
 9    2  0.2869112E-005  0.9593118E+02  0.7546771E-02  0.1294905E+00
          2   -1    0    0  502    0  0.00000000000E+00  0.00000000000E+00  0.38247379105E+03  0.38247379105E+03  0.00000000000E+00 0. -1.
         -1   -1    0    0    0  501 -0.00000000000E+00 -0.00000000000E+00 -0.42907129654E+02  0.42907129654E+02  0.00000000000E+00 0.  1.
         23    2    1    2    0    0 -0.11333227303E+02  0.24583043073E+02  0.56871236844E+02  0.11156559628E+03  0.92085702713E+02 0.  0.
         24    2    1    2    0    0  0.43680259107E+02 -0.26815725537E-01  0.22417649602E+03  0.24258468661E+03  0.81757342504E+02 0.  0.
        -11    1    4    4    0    0  0.38018443304E+02  0.32203510842E+02  0.76274467021E+02  0.91105776223E+02  0.00000000000E+00 0.  1.
         12    1    4    4    0    0  0.56618158027E+01 -0.32230326568E+02  0.14790202900E+03  0.15147891039E+03  0.00000000000E+00 0. -1.
        -13    1    3    3    0    0 -0.24664903244E+02 -0.15486412950E+02  0.62510222351E+02  0.68961687453E+02  0.00000000000E+00 0. -1.
         13    1    3    3    0    0  0.13331675941E+02  0.40069456023E+02 -0.56389855066E+01  0.42603908822E+02  0.00000000000E+00 0.  1.
         21    1    1    2  502  501 -0.32347031803E+02 -0.24556227348E+02  0.58518928533E+02  0.71230637823E+02  0.00000000000E+00 0. -1.
<scales pt_clust_5="13000.00000" pt_clust_6="13000.00000" pt_clust_7="13000.00000" pt_clust_8="13000.00000" pt_clust_9="40.61205"></scales>
<clustering>
<clus scale="   40.612">  1  9  2 -1</clus>
<clus scale="   81.757">  5  6 -1 -1</clus>
<clus scale="   86.066">  1  5  2 -1</clus>
<clus scale="   92.086">  7  8 -1 -1</clus>
<clus scale="   40.612">  1  5  2 -1</clus>
</clustering>
</event>
<event>
 9    2  0.2869112E-005  0.9895974E+02  0.7546771E-02  0.1286200E+00
          2   -1    0    0  502    0  0.00000000000E+00  0.00000000000E+00  0.65207615522E+02  0.65207615522E+02  0.00000000000E+00 0. -1.
         -1   -1    0    0    0  501 -0.00000000000E+00 -0.00000000000E+00 -0.24460731072E+03  0.24460731072E+03  0.00000000000E+00 0.  1.
         23    2    1    2    0    0 -0.50959016772E+01 -0.12225734913E+02 -0.10472004596E+03  0.13922483305E+03  0.90784521288E+02 0.  0.
         24    2    1    2    0    0  0.11162284281E+02  0.50474251417E+02 -0.14787897723E+02  0.99268484172E+02  0.83446410254E+02 0.  0.
        -11    1    4    4    0    0 -0.33385267566E+02  0.78145211243E+01 -0.15397306995E+02  0.37586166253E+02  0.00000000000E+00 0.  1.
         12    1    4    4    0    0  0.44547551848E+02  0.42659730293E+02  0.60940927232E+00  0.61682317919E+02  0.00000000000E+00 0. -1.
        -11    1    3    3    0    0 -0.30910973294E+02 -0.43004721063E+01 -0.13420987392E+00  0.31208978558E+02  0.00000000000E+00 0. -1.
         11    1    3    3    0    0  0.25815071617E+02 -0.79252628063E+01 -0.10458583609E+03  0.10801585450E+03  0.00000000000E+00 0.  1.
         21    1    1    2  502  501 -0.60663826042E+01 -0.38248516505E+02 -0.59891751511E+02  0.71321609010E+02  0.00000000000E+00 0.  1.
<scales pt_clust_5="13000.00000" pt_clust_6="13000.00000" pt_clust_7="13000.00000" pt_clust_8="13000.00000" pt_clust_9="38.72661"></scales>
<clustering>
<clus scale="   38.727">  2  9  1 -1</clus>
<clus scale="   83.446">  5  6 -1 -1</clus>
<clus scale="   90.785">  7  8 -1 -1</clus>
<clus scale="   92.274">  1  5  2 -1</clus>
<clus scale="   92.274">  1  5  2 -1</clus>
</clustering>
</event>
<event>
 9    2  0.2869112E-005  0.9276144E+02  0.7546771E-02  0.1301351E+00
          2   -1    0    0  502    0  0.00000000000E+00  0.00000000000E+00  0.23578938285E+03  0.23578938285E+03  0.00000000000E+00 0. -1.
         -1   -1    0    0    0  501 -0.00000000000E+00 -0.00000000000E+00 -0.57622972558E+02  0.57622972558E+02  0.00000000000E+00 0.  1.
         23    2    1    2    0    0 -0.20671120018E+02  0.11018664914E+02  0.15973231770E+02  0.95384244915E+02  0.91073068827E+02 0.  0.
         24    2    1    2    0    0 -0.16434897314E+01 -0.19097751142E+02  0.14738031288E+03  0.17005250628E+03  0.82640626278E+02 0.  0.
        -11    1    4    4    0    0  0.96812208645E+01 -0.42533053707E+02  0.13372516419E+03  0.14065989561E+03  0.00000000000E+00 0.  1.
         12    1    4    4    0    0 -0.11324710596E+02  0.23435302565E+02  0.13655148684E+02  0.29392610669E+02  0.00000000000E+00 0. -1.
        -11    1    3    3    0    0  0.31665961987E+02  0.78445298346E+01  0.26348156337E+02  0.41934414736E+02  0.00000000000E+00 0. -1.
         11    1    3    3    0    0 -0.52337082005E+02  0.31741350798E+01 -0.10374924568E+02  0.53449830179E+02  0.00000000000E+00 0.  1.
         21    1    1    2  502  501  0.22314609749E+02  0.80790862279E+01  0.14812865649E+02  0.27975604216E+02  0.00000000000E+00 0. -1.
<scales pt_clust_5="13000.00000" pt_clust_6="13000.00000" pt_clust_7="13000.00000" pt_clust_8="13000.00000" pt_clust_9="23.73212"></scales>
<clustering>
<clus scale="   23.732">  2  9  1 -1</clus>
<clus scale="   82.641">  5  6 -1 -1</clus>
<clus scale="   84.498">  1  5  2 -1</clus>
<clus scale="   91.073">  7  8 -1 -1</clus>
<clus scale="   84.498">  1  5  2 -1</clus>
</clustering>
</event>
<event>
 9    2  0.2869112E-005  0.1027171E+03  0.7546771E-02  0.1279041E+00
          2   -1    0    0  502    0  0.00000000000E+00  0.00000000000E+00  0.71591850581E+03  0.71591850581E+03  0.00000000000E+00 0. -1.
         -1   -1    0    0    0  501 -0.00000000000E+00 -0.00000000000E+00 -0.20287291501E+02  0.20287291501E+02  0.00000000000E+00 0.  1.
         24    2    1    2    0    0  0.52790301580E+02  0.11132508792E+02  0.24479969858E+03  0.26370979572E+03  0.81885378682E+02 0.  0.
         23    2    1    2    0    0 -0.30593685317E+02 -0.35452269661E+02  0.39074306242E+03  0.40397766271E+03  0.91241296182E+02 0.  0.
        -11    1    3    3    0    0  0.60056297987E+02 -0.21148995707E+02  0.18040225616E+03  0.19130868505E+03  0.00000000000E+00 0.  1.
         12    1    3    3    0    0 -0.72659964069E+01  0.32281504499E+02  0.64397442418E+02  0.72401110671E+02  0.00000000000E+00 0. -1.
        -13    1    4    4    0    0  0.26093980365E+02  0.92257935827E+01  0.71333915646E+02  0.76514956708E+02  0.00000000000E+00 0. -1.
         13    1    4    4    0    0 -0.56687665682E+02 -0.44678063244E+02  0.31940914678E+03  0.32746270600E+03  0.00000000000E+00 0.  1.
         21    1    1    2  502  501 -0.22196616264E+02  0.24319760870E+02  0.60088453304E+02  0.68518338879E+02  0.00000000000E+00 0.  1.
<scales pt_clust_5="13000.00000" pt_clust_6="13000.00000" pt_clust_7="13000.00000" pt_clust_8="13000.00000" pt_clust_9="32.92629"></scales>
<clustering>
<clus scale="   32.926">  2  9  1 -1</clus>
<clus scale="   81.885">  5  6 -1 -1</clus>
<clus scale="   91.241">  7  8 -1 -1</clus>
<clus scale="   94.504">  2  5  1 -1</clus>
<clus scale="  102.717">  1  5  2 -1</clus>
</clustering>
</event>
<event>
 9    2  0.2869112E-005  0.1044005E+03  0.7546771E-02  0.1275654E+00
         -1   -1    0    0    0  501 -0.00000000000E+00  0.00000000000E+00  0.22972067173E+02  0.22972067173E+02  0.00000000000E+00 0.  1.
          2   -1    0    0  502    0  0.00000000000E+00 -0.00000000000E+00 -0.96386753825E+03  0.96386753825E+03  0.00000000000E+00 0. -1.
         23    2    1    2    0    0  0.10740934283E+02  0.25652656262E+02 -0.26434957501E+03  0.28090740433E+03  0.90856180643E+02 0.  0.
         24    2    1    2    0    0 -0.85115027325E+02  0.33537281802E+01 -0.47012025135E+03  0.48460795286E+03  0.81092551327E+02 0.  0.
        -13    1    4    4    0    0 -0.83817607827E+02  0.12896008159E+02 -0.46677092562E+03  0.47441205234E+03  0.00000000000E+00 0.  1.
         14    1    4    4    0    0 -0.12974194975E+01 -0.95422799789E+01 -0.33493257334E+01  0.10195900520E+02  0.00000000000E+00 0. -1.
        -11    1    3    3    0    0 -0.27950196804E+02  0.43044741787E+02 -0.12157342217E+03  0.13196272305E+03  0.00000000000E+00 0.  1.
         11    1    3    3    0    0  0.38691131087E+02 -0.17392085526E+02 -0.14277615283E+03  0.14894468128E+03  0.00000000000E+00 0. -1.
         21    1    1    2  502  501  0.74374093042E+02 -0.29006384442E+02 -0.20642564472E+03  0.22132424823E+03  0.00000000000E+00 0. -1.
<scales pt_clust_5="13000.00000" pt_clust_6="13000.00000" pt_clust_7="13000.00000" pt_clust_8="13000.00000" pt_clust_9="79.83030"></scales>
<clustering>
<clus scale="   79.830">  1  9  2 -1</clus>
<clus scale="   81.093">  5  6 -1 -1</clus>
<clus scale="   90.856">  7  8 -1 -1</clus>
<clus scale="   96.024">  2  5  1 -1</clus>
<clus scale="   96.024">  2  5  1 -1</clus>
</clustering>
</event>
<event>
 9    2  0.2932989E-005  0.2037568E+03  0.7546771E-02  0.1158048E+00
         -1   -1    0    0    0  501 -0.00000000000E+00  0.00000000000E+00  0.11511378852E+03  0.11511378852E+03  0.00000000000E+00 0.  1.
          2   -1    0    0  502    0  0.00000000000E+00 -0.00000000000E+00 -0.16782171670E+04  0.16782171670E+04  0.00000000000E+00 0. -1.
         24    2    1    2    0    0  0.88004848284E+02 -0.10217332907E+03 -0.77260494517E+02  0.17367983291E+03  0.77532301986E+02 0.  0.
         23    2    1    2    0    0 -0.11136424750E+03 -0.86498243761E+02 -0.56268218081E+02  0.17749081625E+03  0.91939848222E+02 0.  0.
        -13    1    3    3    0    0  0.65471817491E+02 -0.87660122272E+02 -0.92125372838E+02  0.14303125617E+03  0.00000000000E+00 0.  1.
         14    1    3    3    0    0  0.22533030793E+02 -0.14513206797E+02  0.14864878321E+02  0.30648576733E+02  0.00000000000E+00 0. -1.
        -11    1    4    4    0    0 -0.74488761233E+02 -0.59497615394E+02  0.11210850128E+02  0.95990754493E+02  0.00000000000E+00 0.  1.
         11    1    4    4    0    0 -0.36875486271E+02 -0.27000628367E+02 -0.67479068209E+02  0.81500061756E+02  0.00000000000E+00 0. -1.
         21    1    1    2  502  501  0.23359399220E+02  0.18867157283E+03 -0.14295746659E+04  0.14421603063E+04  0.00000000000E+00 0. -1.
<scales pt_clust_5="13000.00000" pt_clust_6="13000.00000" pt_clust_7="13000.00000" pt_clust_8="13000.00000" pt_clust_9="181.83478"></scales>
<clustering>
<clus scale="   77.532">  5  6 -1 -1</clus>
<clus scale="   91.940">  7  8 -1 -1</clus>
<clus scale="  155.549">  1  5  2 -1</clus>
<clus scale="  181.835">  2  9  1 -1</clus>
<clus scale="  181.835">  2  5  1 -1</clus>
</clustering>
</event>
<event>
 9    2  0.2869112E-005  0.1006528E+03  0.7546771E-02  0.1283730E+00
         -1   -1    0    0    0  501 -0.00000000000E+00  0.00000000000E+00  0.95983265488E+02  0.95983265488E+02  0.00000000000E+00 0.  1.
          2   -1    0    0  502    0  0.00000000000E+00 -0.00000000000E+00 -0.35889766155E+03  0.35889766155E+03  0.00000000000E+00 0. -1.
         23    2    1    2    0    0 -0.67725634589E+02 -0.47080360348E+01  0.37692992985E+02  0.11778946005E+03  0.88570130382E+02 0.  0.
         24    2    1    2    0    0  0.45814803834E+02  0.49978198913E+01 -0.30172746679E+03  0.31515011212E+03  0.78461165582E+02 0.  0.
        -11    1    4    4    0    0  0.32704805056E+02  0.32860263731E+02 -0.90440773486E+02  0.10163136679E+03  0.00000000000E+00 0.  1.
         12    1    4    4    0    0  0.13109998778E+02 -0.27862443839E+02 -0.21128669330E+03  0.21351874534E+03  0.00000000000E+00 0. -1.
        -13    1    3    3    0    0 -0.81898812867E+02  0.11783023792E+02  0.45812527703E+02  0.94578236890E+02  0.00000000000E+00 0.  1.
         13    1    3    3    0    0  0.14173178278E+02 -0.16491059827E+02 -0.81195347184E+01  0.23211223164E+02  0.00000000000E+00 0. -1.
         21    1    1    2  502  501  0.21910830755E+02 -0.28978385648E+00  0.11200777364E+01  0.21941354863E+02  0.00000000000E+00 0. -1.
<scales pt_clust_5="13000.00000" pt_clust_6="13000.00000" pt_clust_7="13000.00000" pt_clust_8="13000.00000" pt_clust_9="21.91275"></scales>
<clustering>
<clus scale="   21.913">  1  9  2 -1</clus>
<clus scale="   78.461">  5  6 -1 -1</clus>
<clus scale="   88.570">  7  8 -1 -1</clus>
<clus scale="   91.883">  2  5  1 -1</clus>
<clus scale="   91.883">  2  5  1 -1</clus>
</clustering>
</event>
<event>
 9    2  0.2869112E-005  0.1171662E+03  0.7546771E-02  0.1249803E+00
          2   -1    0    0  502    0  0.00000000000E+00  0.00000000000E+00  0.36930011192E+03  0.36930011192E+03  0.00000000000E+00 0. -1.
         -1   -1    0    0    0  501 -0.00000000000E+00 -0.00000000000E+00 -0.11393065828E+03  0.11393065828E+03  0.00000000000E+00 0.  1.
         24    2    1    2    0    0  0.42493915023E+02  0.67060973406E+01 -0.63261455760E+02  0.11442136268E+03  0.85085438808E+02 0.  0.
         23    2    1    2    0    0 -0.74764547090E+02 -0.21363232985E+02  0.31005068133E+03  0.33234235892E+03  0.90960943913E+02 0.  0.
        -13    1    3    3    0    0  0.35383029865E+02 -0.25748675502E+02 -0.90930008831E+00  0.43769623247E+02  0.00000000000E+00 0.  1.
         14    1    3    3    0    0  0.71108851575E+01  0.32454772843E+02 -0.62352155672E+02  0.70651739433E+02  0.00000000000E+00 0. -1.
        -11    1    4    4    0    0  0.95186702403E+01  0.21810736596E+02  0.82757653342E+02  0.86111221688E+02  0.00000000000E+00 0.  1.
         11    1    4    4    0    0 -0.84283217331E+02 -0.43173969581E+02  0.22729302799E+03  0.24623113724E+03  0.00000000000E+00 0. -1.
         21    1    1    2  502  501  0.32270632068E+02  0.14657135645E+02  0.85802280730E+01  0.36467048594E+02  0.00000000000E+00 0.  1.
<scales pt_clust_5="13000.00000" pt_clust_6="13000.00000" pt_clust_7="13000.00000" pt_clust_8="13000.00000" pt_clust_9="35.44327"></scales>
<clustering>
<clus scale="   35.443">  2  9  1 -1</clus>
<clus scale="   85.085">  5  6 -1 -1</clus>
<clus scale="   90.961">  7  8 -1 -1</clus>
<clus scale="  112.666">  2  5  1 -1</clus>
<clus scale="  117.166">  1  5  2 -1</clus>
</clustering>
</event>
<event>
 9    2  0.2869112E-005  0.2557859E+03  0.7546771E-02  0.1110235E+00
          2   -1    0    0  502    0  0.00000000000E+00  0.00000000000E+00  0.23474041306E+04  0.23474041306E+04  0.00000000000E+00 0. -1.
         -1   -1    0    0    0  501 -0.00000000000E+00 -0.00000000000E+00 -0.57445195839E+02  0.57445195839E+02  0.00000000000E+00 0.  1.
         23    2    1    2    0    0 -0.16627756460E+03 -0.83042815115E+02  0.21969067340E+03  0.30161837729E+03  0.90362137601E+02 0.  0.
         24    2    1    2    0    0  0.19670248271E+03  0.15830439111E+03  0.18422009856E+04  0.18611469498E+04  0.80070908990E+02 0.  0.
        -13    1    4    4    0    0  0.23152501607E+02  0.44590521902E+02  0.21619762750E+03  0.22195893114E+03  0.00000000000E+00 0.  1.
         14    1    4    4    0    0  0.17354998111E+03  0.11371386921E+03  0.16260033581E+04  0.16391880186E+04  0.00000000000E+00 0. -1.
        -11    1    3    3    0    0 -0.27994916680E+02 -0.82977202048E+01  0.99633579828E+02  0.10382397483E+03  0.00000000000E+00 0. -1.
         11    1    3    3    0    0 -0.13828264792E+03 -0.74745094910E+02  0.12005709357E+03  0.19779440246E+03  0.00000000000E+00 0.  1.
         21    1    1    2  502  501 -0.30424918116E+02 -0.75261575993E+02  0.22806727576E+03  0.24208399934E+03  0.00000000000E+00 0.  1.
<scales pt_clust_5="13000.00000" pt_clust_6="13000.00000" pt_clust_7="13000.00000" pt_clust_8="13000.00000" pt_clust_9="81.17869"></scales>
<clustering>
<clus scale="   80.071">  5  6 -1 -1</clus>
<clus scale="   81.179">  2  9  1 -1</clus>
<clus scale="   90.362">  7  8 -1 -1</clus>
<clus scale="  252.334">  1  5  2 -1</clus>
<clus scale="  252.334">  1  5  2 -1</clus>
</clustering>
</event>
<event>
 9    2  0.2869112E-005  0.1107241E+03  0.7546771E-02  0.1266023E+00
         -1   -1    0    0    0  501 -0.00000000000E+00  0.00000000000E+00  0.42389821815E+02  0.42389821815E+02  0.00000000000E+00 0.  1.
          2   -1    0    0  502    0  0.00000000000E+00 -0.00000000000E+00 -0.44307858729E+03  0.44307858729E+03  0.00000000000E+00 0. -1.
         23    2    1    2    0    0 -0.65243480797E+02 -0.14229541162E+02 -0.90285622218E+02  0.14710202047E+03  0.95017467964E+02 0.  0.
         24    2    1    2    0    0  0.39866128520E+02 -0.20705883201E+02 -0.22889696752E+03  0.24612892029E+03  0.78533953550E+02 0.  0.
        -11    1    4    4    0    0  0.24672585431E+02  0.41892670088E+01 -0.12868226137E+02  0.28140321140E+02  0.00000000000E+00 0.  1.
         12    1    4    4    0    0  0.15193543089E+02 -0.24895150210E+02 -0.21602874138E+03  0.21798859915E+03  0.00000000000E+00 0. -1.
        -13    1    3    3    0    0 -0.61552909130E+02  0.94358245806E+01 -0.96882732230E+01  0.63021092072E+02  0.00000000000E+00 0.  1.
         13    1    3    3    0    0 -0.36905716672E+01 -0.23665365742E+02 -0.80597348995E+02  0.84080928396E+02  0.00000000000E+00 0. -1.
         21    1    1    2  502  501  0.25377352277E+02  0.34935424363E+02 -0.81506175737E+02  0.92237468348E+02  0.00000000000E+00 0. -1.
<scales pt_clust_5="13000.00000" pt_clust_6="13000.00000" pt_clust_7="13000.00000" pt_clust_8="13000.00000" pt_clust_9="43.17979"></scales>
<clustering>
<clus scale="   43.180">  2  9  1 -1</clus>
<clus scale="   78.534">  5  6 -1 -1</clus>
<clus scale="   95.017">  7  8 -1 -1</clus>
<clus scale="   96.949">  2  5  1 -1</clus>
<clus scale="   43.180">  2  5  1 -1</clus>
</clustering>
</event>
<event>
 9    2  0.2869112E-005  0.9894938E+02  0.7546771E-02  0.1288138E+00
          2   -1    0    0  502    0  0.00000000000E+00  0.00000000000E+00  0.56116308635E+03  0.56116308635E+03  0.00000000000E+00 0. -1.
         -1   -1    0    0    0  501 -0.00000000000E+00 -0.00000000000E+00 -0.83827940039E+02  0.83827940039E+02  0.00000000000E+00 0.  1.
         23    2    1    2    0    0  0.32368272268E+01  0.77908270638E+01  0.15311540344E+02  0.94391843348E+02  0.92758842091E+02 0.  0.
         24    2    1    2    0    0 -0.25831969278E+02  0.28455049273E+02  0.49080196916E+03  0.49909677355E+03  0.82061172135E+02 0.  0.
        -13    1    4    4    0    0  0.25463079700E+02  0.36968666123E+01  0.72408052000E+02  0.76843745647E+02  0.00000000000E+00 0.  1.
         14    1    4    4    0    0 -0.51295048978E+02  0.24758182661E+02  0.41839391716E+03  0.42225302791E+03  0.00000000000E+00 0. -1.
        -13    1    3    3    0    0 -0.27828551351E+02 -0.28051740976E+02  0.23913846124E+02  0.46186583317E+02  0.00000000000E+00 0. -1.
         13    1    3    3    0    0  0.31065378578E+02  0.35842568039E+02 -0.86023057800E+01  0.48205260030E+02  0.00000000000E+00 0.  1.
         21    1    1    2  502  501  0.22595142051E+02 -0.36245876337E+02 -0.28778363190E+02  0.51502409493E+02  0.00000000000E+00 0.  1.
<scales pt_clust_5="13000.00000" pt_clust_6="13000.00000" pt_clust_7="13000.00000" pt_clust_8="13000.00000" pt_clust_9="42.71187"></scales>
<clustering>
<clus scale="   42.712">  2  9  1 -1</clus>
<clus scale="   82.061">  5  6 -1 -1</clus>
<clus scale="   88.999">  1  5  2 -1</clus>
<clus scale="   92.759">  7  8 -1 -1</clus>
<clus scale="   88.999">  1  5  2 -1</clus>
</clustering>
</event>
<event>
 9    2  0.2869112E-005  0.1391248E+03  0.7546771E-02  0.1216935E+00
         -1   -1    0    0    0  501 -0.00000000000E+00  0.00000000000E+00  0.11421550406E+03  0.11421550406E+03  0.00000000000E+00 0.  1.
          2   -1    0    0  502    0  0.00000000000E+00 -0.00000000000E+00 -0.10678974899E+04  0.10678974899E+04  0.00000000000E+00 0. -1.
         23    2    1    2    0    0 -0.12096175463E+03 -0.38313549077E+01  0.32181949537E+02  0.15485794673E+03  0.91098191122E+02 0.  0.
         24    2    1    2    0    0  0.10177868774E+03  0.23765175587E+02 -0.99049222874E+03  0.99920565581E+03  0.80083722229E+02 0.  0.
        -11    1    4    4    0    0  0.11736298786E+02  0.26771739493E+02 -0.10049138227E+03  0.10465650795E+03  0.00000000000E+00 0.  1.
         12    1    4    4    0    0  0.90042388956E+02 -0.30065639055E+01 -0.89000084647E+03  0.89454914787E+03  0.00000000000E+00 0. -1.
        -11    1    3    3    0    0 -0.10526107719E+03  0.26442757776E+02  0.46239216502E+02  0.11797109371E+03  0.00000000000E+00 0.  1.
         11    1    3    3    0    0 -0.15700677446E+02 -0.30274112683E+02 -0.14057266965E+02  0.36886853018E+02  0.00000000000E+00 0. -1.
         21    1    1    2  502  501  0.19183066890E+02 -0.19933820679E+02  0.46282933120E+01  0.28049391458E+02  0.00000000000E+00 0.  1.
<scales pt_clust_5="13000.00000" pt_clust_6="13000.00000" pt_clust_7="13000.00000" pt_clust_8="13000.00000" pt_clust_9="27.66491"></scales>
<clustering>
<clus scale="   27.665">  1  9  2 -1</clus>
<clus scale="   80.084">  5  6 -1 -1</clus>
<clus scale="   91.098">  7  8 -1 -1</clus>
<clus scale="  132.175">  2  5  1 -1</clus>
<clus scale="  132.175">  2  5  1 -1</clus>
</clustering>
</event>
<event>
 9    2  0.2869112E-005  0.1056786E+03  0.7546771E-02  0.1270529E+00
         -1   -1    0    0    0  501 -0.00000000000E+00  0.00000000000E+00  0.33064160556E+03  0.33064160556E+03  0.00000000000E+00 0.  1.
          2   -1    0    0  502    0  0.00000000000E+00 -0.00000000000E+00 -0.63808340956E+02  0.63808340956E+02  0.00000000000E+00 0. -1.
         23    2    1    2    0    0  0.36999213206E+02  0.46703258292E+02  0.15226422844E+03  0.18691690556E+03  0.90572612901E+02 0.  0.
         24    2    1    2    0    0 -0.12223133587E+02 -0.52732368680E+02  0.13025648128E+02  0.10283698589E+03  0.86461959592E+02 0.  0.
        -11    1    4    4    0    0  0.17960870437E+02 -0.38933229346E+02  0.41079945674E+02  0.59379720029E+02  0.00000000000E+00 0.  1.
         12    1    4    4    0    0 -0.30184004025E+02 -0.13799139334E+02 -0.28054297546E+02  0.43457265861E+02  0.00000000000E+00 0. -1.
        -13    1    3    3    0    0  0.59250926763E+02  0.41374739180E+02  0.14644839256E+03  0.16330852105E+03  0.00000000000E+00 0.  1.
         13    1    3    3    0    0 -0.22251713557E+02  0.53285191113E+01  0.58158358846E+01  0.23608384510E+02  0.00000000000E+00 0. -1.
         21    1    1    2  502  501 -0.24776079619E+02  0.60291103887E+01  0.10154338803E+03  0.10469605506E+03  0.00000000000E+00 0.  1.
<scales pt_clust_5="13000.00000" pt_clust_6="13000.00000" pt_clust_7="13000.00000" pt_clust_8="13000.00000" pt_clust_9="25.49910"></scales>
<clustering>
<clus scale="   25.499">  1  9  2 -1</clus>
<clus scale="   86.462">  5  6 -1 -1</clus>
<clus scale="   90.573">  7  8 -1 -1</clus>
<clus scale="  102.178">  2  5  1 -1</clus>
<clus scale="  102.178">  2  5  1 -1</clus>
</clustering>
</event>
<event>
 9    2  0.2869112E-005  0.9602369E+02  0.7546771E-02  0.1294079E+00
         -1   -1    0    0    0  501 -0.00000000000E+00  0.00000000000E+00  0.31738932289E+03  0.31738932289E+03  0.00000000000E+00 0.  1.
          2   -1    0    0  502    0  0.00000000000E+00 -0.00000000000E+00 -0.51746349509E+02  0.51746349509E+02  0.00000000000E+00 0. -1.
         23    2    1    2    0    0  0.32624474313E+02  0.33852219978E+02  0.77841891350E+02  0.12784093654E+03  0.89853302020E+02 0.  0.
         24    2    1    2    0    0 -0.11866374964E+02 -0.22728059333E+02  0.43061719205E+02  0.94651874497E+02  0.80295019453E+02 0.  0.
        -11    1    4    4    0    0  0.27650688397E+02 -0.31051471449E+02  0.10785606786E+02  0.42954438207E+02  0.00000000000E+00 0.  1.
         12    1    4    4    0    0 -0.39517063362E+02  0.83234121161E+01  0.32276112420E+02  0.51697436290E+02  0.00000000000E+00 0. -1.
        -11    1    3    3    0    0  0.44476440515E+02  0.98207665085E+01  0.33279798132E-01  0.45547802617E+02  0.00000000000E+00 0.  1.
         11    1    3    3    0    0 -0.11851966202E+02  0.24031453469E+02  0.77808611552E+02  0.82293133920E+02  0.00000000000E+00 0. -1.
         21    1    1    2  502  501 -0.20758099349E+02 -0.11124160645E+02  0.14473936282E+03  0.14664286136E+03  0.00000000000E+00 0. -1.
<scales pt_clust_5="13000.00000" pt_clust_6="13000.00000" pt_clust_7="13000.00000" pt_clust_8="13000.00000" pt_clust_9="23.55092"></scales>
<clustering>
<clus scale="   23.551">  1  9  2 -1</clus>
<clus scale="   80.295">  5  6 -1 -1</clus>
<clus scale="   87.145">  2  5  1 -1</clus>
<clus scale="   89.853">  7  8 -1 -1</clus>
<clus scale="   87.145">  2  5  1 -1</clus>
</clustering>
</event>
<event>
 9    2  0.2869112E-005  0.1436187E+03  0.7546771E-02  0.1210011E+00
         -1   -1    0    0    0  501 -0.00000000000E+00  0.00000000000E+00  0.44782787916E+02  0.44782787916E+02  0.00000000000E+00 0.  1.
          2   -1    0    0  502    0  0.00000000000E+00 -0.00000000000E+00 -0.10202976645E+04  0.10202976645E+04  0.00000000000E+00 0. -1.
         24    2    1    2    0    0  0.59501774069E+02  0.24299459053E+02 -0.13248728053E+03  0.16996314460E+03  0.84874414243E+02 0.  0.
         23    2    1    2    0    0 -0.12601393246E+03 -0.31013267290E+02 -0.79990128836E+03  0.81556342136E+03  0.91979830500E+02 0.  0.
        -11    1    3    3    0    0  0.80571726318E+02  0.23045798779E+02 -0.11637673723E+03  0.14341010038E+03  0.00000000000E+00 0.  1.
         12    1    3    3    0    0 -0.21069952250E+02  0.12536602743E+01 -0.16110543298E+02  0.26553044218E+02  0.00000000000E+00 0. -1.
        -11    1    4    4    0    0 -0.18540235533E+01 -0.30878547503E+02 -0.98032743295E+02  0.10279757223E+03  0.00000000000E+00 0.  1.
         11    1    4    4    0    0 -0.12415990891E+03 -0.13471978705E+00 -0.70186854507E+03  0.71276584913E+03  0.00000000000E+00 0. -1.
         21    1    1    2  502  501  0.66512158392E+02  0.67138082365E+01 -0.43126307699E+02  0.79553886459E+02  0.00000000000E+00 0.  1.
<scales pt_clust_5="13000.00000" pt_clust_6="13000.00000" pt_clust_7="13000.00000" pt_clust_8="13000.00000" pt_clust_9="66.85015"></scales>
<clustering>
<clus scale="   66.850">  1  9  2 -1</clus>
<clus scale="   84.874">  5  6 -1 -1</clus>
<clus scale="   91.980">  7  8 -1 -1</clus>
<clus scale="  139.175">  1  5  2 -1</clus>
<clus scale="  143.619">  2  5  1 -1</clus>
</clustering>
</event>
<event>
 9    2  0.2869112E-005  0.2550536E+03  0.7546771E-02  0.1110866E+00
         -1   -1    0    0    0  501 -0.00000000000E+00  0.00000000000E+00  0.17176830735E+03  0.17176830735E+03  0.00000000000E+00 0.  1.
          2   -1    0    0  502    0  0.00000000000E+00 -0.00000000000E+00 -0.45627965964E+03  0.45627965964E+03  0.00000000000E+00 0. -1.
         23    2    1    2    0    0 -0.23762726898E+02  0.22445192253E+03 -0.48682178649E+02  0.24828429208E+03  0.91278707564E+02 0.  0.
         24    2    1    2    0    0  0.12624917214E+02 -0.24483617318E+03 -0.24464762300E+03  0.35491747746E+03  0.77523003896E+02 0.  0.
        -13    1    4    4    0    0 -0.25640368912E+02 -0.37551693833E+02 -0.55108752636E+02  0.71446013498E+02  0.00000000000E+00 0.  1.
         14    1    4    4    0    0  0.38265286126E+02 -0.20728447934E+03 -0.18953887036E+03  0.28347146396E+03  0.00000000000E+00 0. -1.
        -11    1    3    3    0    0  0.22784041201E+02  0.14103583033E+03 -0.42381196241E+01  0.14292718296E+03  0.00000000000E+00 0.  1.
         11    1    3    3    0    0 -0.46546768099E+02  0.83416092205E+02 -0.44444059025E+02  0.10535710912E+03  0.00000000000E+00 0. -1.
         21    1    1    2  502  501  0.11137809684E+02  0.20384250643E+02  0.88184493688E+01  0.24846197458E+02  0.00000000000E+00 0. -1.
<scales pt_clust_5="13000.00000" pt_clust_6="13000.00000" pt_clust_7="13000.00000" pt_clust_8="13000.00000" pt_clust_9="23.22861"></scales>
<clustering>
<clus scale="   23.229">  1  9  2 -1</clus>
<clus scale="   77.523">  5  6 -1 -1</clus>
<clus scale="   91.279">  7  8 -1 -1</clus>
<clus scale="  250.460">  2  5  1 -1</clus>
<clus scale="  250.460">  2  5  1 -1</clus>
</clustering>
</event>
<event>
 9    2  0.2869112E-005  0.9495508E+02  0.7546771E-02  0.1291815E+00
          2   -1    0    0  502    0  0.00000000000E+00  0.00000000000E+00  0.32882387887E+03  0.32882387887E+03  0.00000000000E+00 0. -1.
         -1   -1    0    0    0  501 -0.00000000000E+00 -0.00000000000E+00 -0.85261022696E+02  0.85261022696E+02  0.00000000000E+00 0.  1.
         23    2    1    2    0    0 -0.33786231057E+02 -0.16077764518E+02  0.83139046704E+02  0.12959545345E+03  0.92102532793E+02 0.  0.
         24    2    1    2    0    0  0.45657308302E+01  0.11924712496E+02  0.20815386617E+03  0.22837132460E+03  0.93071935783E+02 0.  0.
        -13    1    4    4    0    0  0.20819800476E+02 -0.19652683205E+02  0.15669200612E+02  0.32637645394E+02  0.00000000000E+00 0.  1.
         14    1    4    4    0    0 -0.16254069646E+02  0.31577395701E+02  0.19248466556E+03  0.19573367920E+03  0.00000000000E+00 0. -1.
        -13    1    3    3    0    0  0.28891428178E+02 -0.21551497399E+01  0.48882230316E+02  0.56822809973E+02  0.00000000000E+00 0.  1.
         13    1    3    3    0    0 -0.62677659235E+02 -0.13922614778E+02  0.34256816388E+02  0.72772643476E+02  0.00000000000E+00 0. -1.
         21    1    1    2  502  501  0.29220500227E+02  0.41530520216E+01 -0.47730056701E+02  0.56118123519E+02  0.00000000000E+00 0.  1.
<scales pt_clust_5="13000.00000" pt_clust_6="13000.00000" pt_clust_7="13000.00000" pt_clust_8="13000.00000" pt_clust_9="29.51416"></scales>
<clustering>
<clus scale="   29.514">  2  9  1 -1</clus>
<clus scale="   92.103">  7  8 -1 -1</clus>
<clus scale="   93.072">  5  6 -1 -1</clus>
<clus scale="   94.005">  2  7  1 -1</clus>
<clus scale="   94.955">  1  5  2 -1</clus>
</clustering>
</event>
<event>
 9    2  0.2869112E-005  0.1817552E+03  0.7546771E-02  0.1167141E+00
         -1   -1    0    0    0  501 -0.00000000000E+00  0.00000000000E+00  0.54795692959E+02  0.54795692959E+02  0.00000000000E+00 0.  1.
          2   -1    0    0  502    0  0.00000000000E+00 -0.00000000000E+00 -0.91775469116E+03  0.91775469116E+03  0.00000000000E+00 0. -1.
         23    2    1    2    0    0  0.10744695537E+03 -0.80152221100E+02 -0.19818252656E+03  0.25632289854E+03  0.91955900923E+02 0.  0.
         24    2    1    2    0    0 -0.12540957153E+03  0.11052343772E+03 -0.65276585038E+03  0.67895388365E+03  0.83259412586E+02 0.  0.
        -13    1    4    4    0    0 -0.44820218998E+02 -0.58359938640E+01 -0.15529055001E+03  0.16173455345E+03  0.00000000000E+00 0.  1.
         14    1    4    4    0    0 -0.80589352527E+02  0.11635943158E+03 -0.49747530037E+03  0.51721933020E+03  0.00000000000E+00 0. -1.
        -13    1    3    3    0    0  0.77689344835E+02 -0.85762207016E+00 -0.88982558819E+02  0.11812817441E+03  0.00000000000E+00 0.  1.
         13    1    3    3    0    0  0.29757610530E+02 -0.79294599030E+02 -0.10919996774E+03  0.13819472412E+03  0.00000000000E+00 0. -1.
         21    1    1    2  502  501  0.17962616160E+02 -0.30371216618E+02 -0.12010621260E+02  0.37273601935E+02  0.00000000000E+00 0.  1.
<scales pt_clust_5="13000.00000" pt_clust_6="13000.00000" pt_clust_7="13000.00000" pt_clust_8="13000.00000" pt_clust_9="35.28550"></scales>
<clustering>
<clus scale="   35.285">  1  9  2 -1</clus>
<clus scale="   83.259">  5  6 -1 -1</clus>
<clus scale="   91.956">  7  8 -1 -1</clus>
<clus scale="  177.514">  2  5  1 -1</clus>
<clus scale="  177.514">  2  5  1 -1</clus>
</clustering>
</event>
<event>
 9    2  0.2869112E-005  0.1625647E+03  0.7546771E-02  0.1189388E+00
         -1   -1    0    0    0  501 -0.00000000000E+00  0.00000000000E+00  0.86974750308E+02  0.86974750308E+02  0.00000000000E+00 0.  1.
          2   -1    0    0  502    0  0.00000000000E+00 -0.00000000000E+00 -0.36947999843E+03  0.36947999843E+03  0.00000000000E+00 0. -1.
         23    2    1    2    0    0 -0.11356986318E+03 -0.73038110605E+02 -0.83808713449E+02  0.18888074967E+03  0.10207525520E+03 0.  0.
         24    2    1    2    0    0  0.88866449751E+02  0.85276295344E+02 -0.18569634259E+03  0.23709389416E+03  0.81000558998E+02 0.  0.
        -11    1    4    4    0    0  0.15892966550E+01  0.31415839438E+02 -0.88776741689E+01  0.32684766025E+02  0.00000000000E+00 0.  1.
         12    1    4    4    0    0  0.87277153096E+02  0.53860455906E+02 -0.17681866842E+03  0.20440912814E+03  0.00000000000E+00 0. -1.
        -13    1    3    3    0    0 -0.73639964735E+01 -0.32753649111E+02 -0.65804744747E+02  0.73873502729E+02  0.00000000000E+00 0. -1.
         13    1    3    3    0    0 -0.10620586670E+03 -0.40284461493E+02 -0.18003968701E+02  0.11500724694E+03  0.00000000000E+00 0.  1.
         21    1    1    2  502  501  0.24703413427E+02 -0.12238184739E+02 -0.13000192075E+02  0.30480104899E+02  0.00000000000E+00 0. -1.
<scales pt_clust_5="13000.00000" pt_clust_6="13000.00000" pt_clust_7="13000.00000" pt_clust_8="13000.00000" pt_clust_9="27.56867"></scales>
<clustering>
<clus scale="   27.569">  1  9  2 -1</clus>
<clus scale="   81.001">  5  6 -1 -1</clus>
<clus scale="  102.075">  7  8 -1 -1</clus>
<clus scale="  150.230">  2  5  1 -1</clus>
<clus scale="  150.230">  2  5  1 -1</clus>
</clustering>
</event>
<event>
 9    2  0.2869112E-005  0.9580782E+02  0.7546771E-02  0.1289512E+00
         -1   -1    0    0    0  501 -0.00000000000E+00  0.00000000000E+00  0.42087123661E+02  0.42087123661E+02  0.00000000000E+00 0.  1.
          2   -1    0    0  502    0  0.00000000000E+00 -0.00000000000E+00 -0.71634238360E+03  0.71634238360E+03  0.00000000000E+00 0. -1.
         24    2    1    2    0    0  0.12743866976E+02 -0.36944400380E+02 -0.23642460877E+03  0.25427580472E+03  0.85042897225E+02 0.  0.
         23    2    1    2    0    0 -0.38037246025E+02  0.31445922015E+02 -0.45983708593E+03  0.47017913178E+03  0.84750175632E+02 0.  0.
        -11    1    3    3    0    0 -0.26923484526E+02 -0.98131330825E+01 -0.26877291987E+02  0.39288171559E+02  0.00000000000E+00 0.  1.
         12    1    3    3    0    0  0.39667351503E+02 -0.27131267297E+02 -0.20954731679E+03  0.21498763316E+03  0.00000000000E+00 0. -1.
        -13    1    4    4    0    0  0.18732685312E+02 -0.14538624779E+02 -0.82768695816E+02  0.86098444333E+02  0.00000000000E+00 0.  1.
         13    1    4    4    0    0 -0.56769931336E+02  0.45984546794E+02 -0.37706839011E+03  0.38408068745E+03  0.00000000000E+00 0. -1.
         21    1    1    2  502  501  0.25293379048E+02  0.54984783646E+01  0.22006434756E+02  0.33974570765E+02  0.00000000000E+00 0.  1.
<scales pt_clust_5="13000.00000" pt_clust_6="13000.00000" pt_clust_7="13000.00000" pt_clust_8="13000.00000" pt_clust_9="25.88413"></scales>
<clustering>
<clus scale="   25.884">  1  9  2 -1</clus>
<clus scale="   84.750">  7  8 -1 -1</clus>
<clus scale="   85.043">  5  6 -1 -1</clus>
<clus scale="   95.548">  2  7  1 -1</clus>
<clus scale="   95.548">  2  5  1 -1</clus>
</clustering>
</event>
<event>
 9    2  0.2869112E-005  0.9748103E+02  0.7546771E-02  0.1295404E+00
          4   -1    0    0  502    0  0.00000000000E+00  0.00000000000E+00  0.42307189684E+03  0.42307189684E+03  0.00000000000E+00 0. -1.
         -3   -1    0    0    0  501 -0.00000000000E+00 -0.00000000000E+00 -0.69386994261E+02  0.69386994261E+02  0.00000000000E+00 0.  1.
         23    2    1    2    0    0 -0.32701761187E+01 -0.40193169889E+01  0.92962592859E+01  0.95612049819E+02  0.95017865020E+02 0.  0.
         24    2    1    2    0    0  0.18332082614E+02 -0.15661249550E+02  0.35889751382E+03  0.36812937185E+03  0.78297311580E+02 0.  0.
        -11    1    4    4    0    0  0.13788829882E+02  0.30919688365E+02  0.18339095039E+03  0.18648967704E+03  0.00000000000E+00 0.  1.
         12    1    4    4    0    0  0.45432527324E+01 -0.46580937915E+02  0.17550656344E+03  0.18163969481E+03  0.00000000000E+00 0. -1.
        -13    1    3    3    0    0 -0.25201226207E+02 -0.69985070441E+01 -0.36409209237E+02  0.44829805046E+02  0.00000000000E+00 0.  1.
         13    1    3    3    0    0  0.21931050089E+02  0.29791900552E+01  0.45705468522E+02  0.50782244773E+02  0.00000000000E+00 0. -1.
         21    1    1    2  502  501 -0.15061906496E+02  0.19680566539E+02 -0.14508870529E+02  0.28717469432E+02  0.00000000000E+00 0.  1.
<scales pt_clust_5="13000.00000" pt_clust_6="13000.00000" pt_clust_7="13000.00000" pt_clust_8="13000.00000" pt_clust_9="24.78277"></scales>
<clustering>
<clus scale="   24.783">  2  9  1 -1</clus>
<clus scale="   78.297">  5  6 -1 -1</clus>
<clus scale="   81.269">  1  5  2 -1</clus>
<clus scale="   95.018">  7  8 -1 -1</clus>
<clus scale="   81.269">  1  5  2 -1</clus>
</clustering>
</event>
<event>
 9    2  0.2869112E-005  0.9715918E+02  0.7546771E-02  0.1294971E+00
          2   -1    0    0  502    0  0.00000000000E+00  0.00000000000E+00  0.60380863925E+02  0.60380863925E+02  0.00000000000E+00 0. -1.
         -1   -1    0    0    0  501 -0.00000000000E+00 -0.00000000000E+00 -0.22293603595E+03  0.22293603595E+03  0.00000000000E+00 0.  1.
         24    2    1    2    0    0 -0.44233131417E+02  0.34815146802E+01 -0.12451651394E+03  0.15304467182E+03  0.77133769969E+02 0.  0.
         23    2    1    2    0    0  0.24389348120E+02 -0.97087424487E+00 -0.10411501075E+02  0.96164474458E+02  0.92430643699E+02 0.  0.
        -11    1    3    3    0    0 -0.27315779874E+01 -0.20341186926E+02 -0.96115654781E+00  0.20546270361E+02  0.00000000000E+00 0.  1.
         12    1    3    3    0    0 -0.41501553430E+02  0.23822701606E+02 -0.12355535740E+03  0.13249840146E+03  0.00000000000E+00 0. -1.
        -11    1    4    4    0    0 -0.23196354201E+02  0.24277034294E+02  0.14791907565E+02  0.36691221999E+02  0.00000000000E+00 0. -1.
         11    1    4    4    0    0  0.47585702322E+02 -0.25247908539E+02 -0.25203408640E+02  0.59473252460E+02  0.00000000000E+00 0.  1.
         21    1    1    2  502  501  0.19843783297E+02 -0.25106404353E+01 -0.27627157005E+02  0.34107753593E+02  0.00000000000E+00 0. -1.
<scales pt_clust_5="13000.00000" pt_clust_6="13000.00000" pt_clust_7="13000.00000" pt_clust_8="13000.00000" pt_clust_9="20.00198"></scales>
<clustering>
<clus scale="   20.002">  2  9  1 -1</clus>
<clus scale="   77.134">  5  6 -1 -1</clus>
<clus scale="   82.741">  2  5  1 -1</clus>
<clus scale="   92.431">  7  8 -1 -1</clus>
<clus scale="   97.159">  1  5  2 -1</clus>
</clustering>
</event>
<event>
 9    2  0.2869112E-005  0.1067175E+03  0.7546771E-02  0.1271390E+00
         -3   -1    0    0    0  501 -0.00000000000E+00  0.00000000000E+00  0.45202463241E+03  0.45202463241E+03  0.00000000000E+00 0.  1.
          4   -1    0    0  502    0  0.00000000000E+00 -0.00000000000E+00 -0.71328996529E+02  0.71328996529E+02  0.00000000000E+00 0. -1.
         24    2    1    2    0    0 -0.64240457049E+02  0.30114473803E+02  0.33755271024E+03  0.35436903392E+03  0.81251843986E+02 0.  0.
         23    2    1    2    0    0  0.29227234084E+02 -0.44070951118E+02 -0.68777748562E+01  0.10635249847E+03  0.92016684348E+02 0.  0.
        -13    1    3    3    0    0 -0.49409674331E+02  0.46340194877E+02  0.31739602487E+03  0.32454424379E+03  0.00000000000E+00 0.  1.
         14    1    3    3    0    0 -0.14830782718E+02 -0.16225721074E+02  0.20156685378E+02  0.29824790122E+02  0.00000000000E+00 0. -1.
        -13    1    4    4    0    0  0.50758838622E+02 -0.96446326912E+01 -0.29879746520E+02  0.59684821271E+02  0.00000000000E+00 0.  1.
         13    1    4    4    0    0 -0.21531604538E+02 -0.34426318427E+02  0.23001971664E+02  0.46667677196E+02  0.00000000000E+00 0. -1.
         21    1    1    2  502  501  0.35013222965E+02  0.13956477315E+02  0.50020700497E+02  0.62632096561E+02  0.00000000000E+00 0.  1.
<scales pt_clust_5="13000.00000" pt_clust_6="13000.00000" pt_clust_7="13000.00000" pt_clust_8="13000.00000" pt_clust_9="37.69229"></scales>
<clustering>
<clus scale="   37.692">  1  9  2 -1</clus>
<clus scale="   81.252">  5  6 -1 -1</clus>
<clus scale="   92.017">  7  8 -1 -1</clus>
<clus scale="   97.588">  1  5  2 -1</clus>
<clus scale="  106.718">  2  5  1 -1</clus>
</clustering>
</event>
<event>
 9    2  0.2869112E-005  0.1164745E+03  0.7546771E-02  0.1254671E+00
         -1   -1    0    0    0  501 -0.00000000000E+00  0.00000000000E+00  0.19585289539E+03  0.19585289539E+03  0.00000000000E+00 0.  1.
          2   -1    0    0  502    0  0.00000000000E+00 -0.00000000000E+00 -0.81720912714E+02  0.81720912714E+02  0.00000000000E+00 0. -1.
         24    2    1    2    0    0 -0.78003185115E+02  0.27743869594E+02  0.53052738615E+02  0.12430160304E+03  0.76039964851E+02 0.  0.
         23    2    1    2    0    0  0.56591349168E+02 -0.24470923198E+02  0.29230484797E+02  0.11475568441E+03  0.92266131276E+02 0.  0.
        -13    1    3    3    0    0 -0.88363900567E+01 -0.17977997819E+02  0.33630080423E+02  0.39144252503E+02  0.00000000000E+00 0.  1.
         14    1    3    3    0    0 -0.69166795058E+02  0.45721867413E+02  0.19422658193E+02  0.85157350532E+02  0.00000000000E+00 0. -1.
        -13    1    4    4    0    0  0.70998992037E+02  0.10128305141E+02  0.93337531774E+01  0.72322599398E+02  0.00000000000E+00 0.  1.
         13    1    4    4    0    0 -0.14407642869E+02 -0.34599228339E+02  0.19896731619E+02  0.42433085014E+02  0.00000000000E+00 0. -1.
         21    1    1    2  502  501  0.21411835947E+02 -0.32729463956E+01  0.31848759264E+02  0.38516520655E+02  0.00000000000E+00 0.  1.
<scales pt_clust_5="13000.00000" pt_clust_6="13000.00000" pt_clust_7="13000.00000" pt_clust_8="13000.00000" pt_clust_9="21.66054"></scales>
<clustering>
<clus scale="   21.661">  1  9  2 -1</clus>
<clus scale="   76.040">  5  6 -1 -1</clus>
<clus scale="   92.266">  7  8 -1 -1</clus>
<clus scale="  104.093">  1  5  2 -1</clus>
<clus scale="  116.475">  2  5  1 -1</clus>
</clustering>
</event>
<event>
 9    2  0.2869112E-005  0.9580849E+02  0.7546771E-02  0.1301232E+00
          2   -1    0    0  502    0  0.00000000000E+00  0.00000000000E+00  0.26056035751E+03  0.26056035751E+03  0.00000000000E+00 0. -1.
         -1   -1    0    0    0  501 -0.00000000000E+00 -0.00000000000E+00 -0.58603562573E+02  0.58603562573E+02  0.00000000000E+00 0.  1.
         23    2    1    2    0    0  0.19987312519E+02 -0.16203242495E+02  0.22503330138E+02  0.97551377444E+02  0.91366479876E+02 0.  0.
         24    2    1    2    0    0  0.12431548576E+02  0.30974990594E+02  0.16569135226E+03  0.18342114520E+03  0.71243939055E+02 0.  0.
        -11    1    4    4    0    0  0.34434536307E+02  0.44509508397E+01  0.12675338170E+03  0.13142285960E+03  0.00000000000E+00 0.  1.
         12    1    4    4    0    0 -0.22002987732E+02  0.26524039755E+02  0.38937970559E+02  0.51998285600E+02  0.00000000000E+00 0. -1.
        -13    1    3    3    0    0 -0.12134112754E+02 -0.48126131331E+02  0.12058083753E+02  0.51076007998E+02  0.00000000000E+00 0.  1.
         13    1    3    3    0    0  0.32121425273E+02  0.31922888835E+02  0.10445246385E+02  0.46475369446E+02  0.00000000000E+00 0. -1.
         21    1    1    2  502  501 -0.32418861094E+02 -0.14771748099E+02  0.13762112540E+02  0.38191397436E+02  0.00000000000E+00 0. -1.
<scales pt_clust_5="13000.00000" pt_clust_6="13000.00000" pt_clust_7="13000.00000" pt_clust_8="13000.00000" pt_clust_9="35.62565"></scales>
<clustering>
<clus scale="   35.626">  2  9  1 -1</clus>
<clus scale="   71.244">  5  6 -1 -1</clus>
<clus scale="   76.858">  1  5  2 -1</clus>
<clus scale="   91.366">  7  8 -1 -1</clus>
<clus scale="   76.858">  1  5  2 -1</clus>
</clustering>
</event>
<event>
 9    2  0.2869112E-005  0.1222847E+03  0.7546771E-02  0.1242820E+00
         -1   -1    0    0    0  501 -0.00000000000E+00  0.00000000000E+00  0.77344380078E+02  0.77344380078E+02  0.00000000000E+00 0.  1.
          2   -1    0    0  502    0  0.00000000000E+00 -0.00000000000E+00 -0.40496759994E+03  0.40496759994E+03  0.00000000000E+00 0. -1.
         24    2    1    2    0    0  0.57170549857E+02  0.25457658609E+02 -0.47488134755E+02  0.11256417347E+03  0.80616413049E+02 0.  0.
         23    2    1    2    0    0 -0.57112492404E+02 -0.69916328815E+02 -0.29577662686E+03  0.32261783142E+03  0.91914755787E+02 0.  0.
        -11    1    3    3    0    0 -0.17892365271E+02  0.15698698056E+02 -0.11892559386E+01  0.23832754464E+02  0.00000000000E+00 0.  1.
         12    1    3    3    0    0  0.75062915128E+02  0.97589605535E+01 -0.46298878817E+02  0.88731419003E+02  0.00000000000E+00 0. -1.
        -11    1    4    4    0    0 -0.82120231543E+01 -0.74540822658E+02 -0.13409756635E+03  0.15364221056E+03  0.00000000000E+00 0. -1.
         11    1    4    4    0    0 -0.48900469249E+02  0.46244938422E+01 -0.16167906051E+03  0.16897562086E+03  0.00000000000E+00 0.  1.
         21    1    1    2  502  501 -0.58057453430E-01  0.44458670206E+02  0.15641541753E+02  0.47129975128E+02  0.00000000000E+00 0.  1.
<scales pt_clust_5="13000.00000" pt_clust_6="13000.00000" pt_clust_7="13000.00000" pt_clust_8="13000.00000" pt_clust_9="44.45871"></scales>
<clustering>
<clus scale="   44.459">  1  9  2 -1</clus>
<clus scale="   80.616">  5  6 -1 -1</clus>
<clus scale="   91.915">  7  8 -1 -1</clus>
<clus scale="  114.036">  1  5  2 -1</clus>
<clus scale="  122.285">  2  5  1 -1</clus>
</clustering>
</event>
<event>
 9    2  0.2883578E-005  0.1010455E+03  0.7546771E-02  0.1283190E+00
         -1   -1    0    0    0  501 -0.00000000000E+00  0.00000000000E+00  0.64376493157E+02  0.64376493157E+02  0.00000000000E+00 0.  1.
          2   -1    0    0  502    0  0.00000000000E+00 -0.00000000000E+00 -0.51915155275E+03  0.51915155275E+03  0.00000000000E+00 0. -1.
         24    2    1    2    0    0 -0.11034749407E+02  0.44481524368E+02 -0.95946748597E+01  0.91813353698E+02  0.78976340932E+02 0.  0.
         23    2    1    2    0    0 -0.11716540906E+02 -0.45999188633E+02 -0.45552526619E+03  0.46667590055E+03  0.89609850622E+02 0.  0.
        -11    1    3    3    0    0 -0.21683322777E+02  0.61253195833E+02  0.77529272838E+01  0.65438737517E+02  0.00000000000E+00 0.  1.
         12    1    3    3    0    0  0.10648573370E+02 -0.16771671464E+02 -0.17347602144E+02  0.26374616180E+02  0.00000000000E+00 0. -1.
        -13    1    4    4    0    0 -0.11653877767E+02 -0.72832786464E+02 -0.35845303221E+03  0.36596311829E+03  0.00000000000E+00 0. -1.
         13    1    4    4    0    0 -0.62663138946E-01  0.26833597832E+02 -0.97072233984E+02  0.10071278226E+03  0.00000000000E+00 0.  1.
         21    1    1    2  502  501  0.22751290313E+02  0.15176642646E+01  0.10344881455E+02  0.25038791665E+02  0.00000000000E+00 0. -1.
<scales pt_clust_5="13000.00000" pt_clust_6="13000.00000" pt_clust_7="13000.00000" pt_clust_8="13000.00000" pt_clust_9="22.80185"></scales>
<clustering>
<clus scale="   22.802">  1  9  2 -1</clus>
<clus scale="   78.976">  5  6 -1 -1</clus>
<clus scale="   89.610">  7  8 -1 -1</clus>
<clus scale="   91.747">  1  5  2 -1</clus>
<clus scale="  101.046">  2  5  1 -1</clus>
</clustering>
</event>
<event>
 9    2  0.2869112E-005  0.1922280E+03  0.7546771E-02  0.1157305E+00
         -1   -1    0    0    0  501 -0.00000000000E+00  0.00000000000E+00  0.77783160621E+03  0.77783160621E+03  0.00000000000E+00 0.  1.
          2   -1    0    0  502    0  0.00000000000E+00 -0.00000000000E+00 -0.47466473763E+03  0.47466473763E+03  0.00000000000E+00 0. -1.
         23    2    1    2    0    0 -0.34232555321E+02 -0.16415160918E+03  0.70377135733E+03  0.72917593367E+03  0.91026370924E+02 0.  0.
         24    2    1    2    0    0  0.94420746300E+02  0.18015461647E+03 -0.15214931455E+03  0.26717848044E+03  0.82849039370E+02 0.  0.
        -11    1    4    4    0    0  0.37576668998E+02  0.53287063526E+02 -0.60141866676E+01  0.65480437028E+02  0.00000000000E+00 0.  1.
         12    1    4    4    0    0  0.56844077303E+02  0.12686755294E+03 -0.14613512788E+03  0.20169804341E+03  0.00000000000E+00 0. -1.
        -13    1    3    3    0    0 -0.59344933482E+02 -0.14759024378E+03  0.55258800217E+03  0.57502887000E+03  0.00000000000E+00 0.  1.
         13    1    3    3    0    0  0.25112378161E+02 -0.16561365397E+02  0.15118335516E+03  0.15414706367E+03  0.00000000000E+00 0. -1.
         21    1    1    2  502  501 -0.60188190980E+02 -0.16003007290E+02 -0.24845517420E+03  0.25614192972E+03  0.00000000000E+00 0. -1.
<scales pt_clust_5="13000.00000" pt_clust_6="13000.00000" pt_clust_7="13000.00000" pt_clust_8="13000.00000" pt_clust_9="62.27933"></scales>
<clustering>
<clus scale="   62.279">  2  9  1 -1</clus>
<clus scale="   82.849">  5  6 -1 -1</clus>
<clus scale="   91.026">  7  8 -1 -1</clus>
<clus scale="  188.493">  2  5  1 -1</clus>
<clus scale="   62.279">  2  5  1 -1</clus>
</clustering>
</event>
<event>
 9    2  0.2869112E-005  0.1809440E+03  0.7546771E-02  0.1184686E+00
          2   -1    0    0  502    0  0.00000000000E+00  0.00000000000E+00  0.10619438588E+04  0.10619438588E+04  0.00000000000E+00 0. -1.
         -1   -1    0    0    0  501 -0.00000000000E+00 -0.00000000000E+00 -0.27456375617E+03  0.27456375617E+03  0.00000000000E+00 0.  1.
         23    2    1    2    0    0 -0.19219433854E+03  0.10228216494E+03  0.11828945429E+03  0.26368278604E+03  0.90199288390E+02 0.  0.
         24    2    1    2    0    0  0.44922613050E+02 -0.77958532329E+02  0.83842002633E+03  0.84709703155E+03  0.80806351136E+02 0.  0.
        -11    1    4    4    0    0 -0.16017954702E+02 -0.14225630829E+02  0.60220799043E+02  0.63917822888E+02  0.00000000000E+00 0.  1.
         12    1    4    4    0    0  0.60940567752E+02 -0.63732901501E+02  0.77819922728E+03  0.78317920866E+03  0.00000000000E+00 0. -1.
        -11    1    3    3    0    0 -0.16204215076E+03  0.77955619964E+02  0.52486612391E+02  0.18732213374E+03  0.00000000000E+00 0.  1.
         11    1    3    3    0    0 -0.30152187776E+02  0.24326544981E+02  0.65802841896E+02  0.76360652302E+02  0.00000000000E+00 0. -1.
         21    1    1    2  502  501  0.14727172549E+03 -0.24323632615E+02 -0.16932937803E+03  0.22572779735E+03  0.00000000000E+00 0.  1.
<scales pt_clust_5="13000.00000" pt_clust_6="13000.00000" pt_clust_7="13000.00000" pt_clust_8="13000.00000" pt_clust_9="156.85927"></scales>
<clustering>
<clus scale="   80.806">  5  6 -1 -1</clus>
<clus scale="   90.199">  7  8 -1 -1</clus>
<clus scale="  120.935">  1  5  2 -1</clus>
<clus scale="  156.859">  2  9  1 -1</clus>
<clus scale="  120.935">  1  5  2 -1</clus>
</clustering>
</event>
<event>
 9    2  0.2869112E-005  0.1886513E+03  0.7546771E-02  0.1161215E+00
         -1   -1    0    0    0  501 -0.00000000000E+00  0.00000000000E+00  0.40776936576E+03  0.40776936576E+03  0.00000000000E+00 0.  1.
          2   -1    0    0  502    0  0.00000000000E+00 -0.00000000000E+00 -0.23005452097E+03  0.23005452097E+03  0.00000000000E+00 0. -1.
         23    2    1    2    0    0 -0.10313576813E+03 -0.10250937553E+03  0.16636942281E+03  0.23909367565E+03  0.91333685738E+02 0.  0.
         24    2    1    2    0    0  0.10896293466E+03  0.12988888403E+03 -0.14747670440E+03  0.23746006138E+03  0.76771473157E+02 0.  0.
        -13    1    4    4    0    0  0.16545595650E+02  0.33732057422E+02  0.13798069875E+01  0.37596705981E+02  0.00000000000E+00 0.  1.
         14    1    4    4    0    0  0.92417339009E+02  0.96156826603E+02 -0.14885651138E+03  0.19986335540E+03  0.00000000000E+00 0. -1.
        -11    1    3    3    0    0 -0.70687440247E+02 -0.11633354501E+03  0.13786975381E+03  0.19374797268E+03  0.00000000000E+00 0.  1.
         11    1    3    3    0    0 -0.32448327887E+02  0.13824169482E+02  0.28499669002E+02  0.45345702969E+02  0.00000000000E+00 0. -1.
         21    1    1    2  502  501 -0.58271665248E+01 -0.27379508499E+02  0.15882212637E+03  0.16127014969E+03  0.00000000000E+00 0.  1.
<scales pt_clust_5="13000.00000" pt_clust_6="13000.00000" pt_clust_7="13000.00000" pt_clust_8="13000.00000" pt_clust_9="27.99274"></scales>
<clustering>
<clus scale="   27.993">  1  9  2 -1</clus>
<clus scale="   76.771">  5  6 -1 -1</clus>
<clus scale="   91.334">  7  8 -1 -1</clus>
<clus scale="  182.048">  2  5  1 -1</clus>
<clus scale="  182.048">  2  5  1 -1</clus>
</clustering>
</event>
<event>
 9    2  0.2869112E-005  0.9621276E+02  0.7546771E-02  0.1291395E+00
         -1   -1    0    0    0  501 -0.00000000000E+00  0.00000000000E+00  0.20255968211E+02  0.20255968211E+02  0.00000000000E+00 0.  1.
          2   -1    0    0  502    0  0.00000000000E+00 -0.00000000000E+00 -0.65069652504E+03  0.65069652504E+03  0.00000000000E+00 0. -1.
         24    2    1    2    0    0 -0.18252307312E+02  0.38270429798E+01 -0.18254008706E+03  0.20311388496E+03  0.87100940864E+02 0.  0.
         23    2    1    2    0    0  0.25524164313E+02  0.23936713916E+02 -0.39967553597E+03  0.41171953541E+03  0.92455354346E+02 0.  0.
        -13    1    3    3    0    0  0.19368159407E+02 -0.17117642689E+02 -0.14484618339E+02  0.29630110672E+02  0.00000000000E+00 0.  1.
         14    1    3    3    0    0 -0.37620466719E+02  0.20944685668E+02 -0.16805546872E+03  0.17348377429E+03  0.00000000000E+00 0. -1.
        -13    1    4    4    0    0 -0.32499040668E+02 -0.58174218118E+01 -0.15716411411E+03  0.16059448560E+03  0.00000000000E+00 0.  1.
         13    1    4    4    0    0  0.58023204981E+02  0.29754135728E+02 -0.24251142186E+03  0.25112504981E+03  0.00000000000E+00 0. -1.
         21    1    1    2  502  501 -0.72718570010E+01 -0.27763756896E+02 -0.48224933802E+02  0.56119072885E+02  0.00000000000E+00 0.  1.
<scales pt_clust_5="13000.00000" pt_clust_6="13000.00000" pt_clust_7="13000.00000" pt_clust_8="13000.00000" pt_clust_9="28.70028"></scales>
<clustering>
<clus scale="   28.700">  1  9  2 -1</clus>
<clus scale="   87.101">  5  6 -1 -1</clus>
<clus scale="   91.080">  1  5  2 -1</clus>
<clus scale="   92.455">  7  8 -1 -1</clus>
<clus scale="   96.213">  2  5  1 -1</clus>
</clustering>
</event>
<event>
 9    2  0.2869112E-005  0.1036985E+03  0.7546771E-02  0.1279965E+00
         -1   -1    0    0    0  501 -0.00000000000E+00  0.00000000000E+00  0.40512391745E+03  0.40512391745E+03  0.00000000000E+00 0.  1.
          2   -1    0    0  502    0  0.00000000000E+00 -0.00000000000E+00 -0.61213163371E+02  0.61213163371E+02  0.00000000000E+00 0. -1.
         23    2    1    2    0    0  0.14817779579E+02 -0.14822529465E+02  0.28748555842E+03  0.30372071404E+03  0.95702935534E+02 0.  0.
         24    2    1    2    0    0 -0.20426387245E+02  0.37459455490E+02 -0.10173556623E+02  0.92052348285E+02  0.80930127078E+02 0.  0.
        -11    1    4    4    0    0 -0.32058502419E+02 -0.14876079918E+02  0.64416875821E+01  0.35924095952E+02  0.00000000000E+00 0.  1.
         12    1    4    4    0    0  0.11632115174E+02  0.52335535409E+02 -0.16615244205E+02  0.56128252333E+02  0.00000000000E+00 0. -1.
        -13    1    3    3    0    0 -0.17552760495E+02 -0.44817835900E+02  0.20030341043E+03  0.20600532528E+03  0.00000000000E+00 0.  1.
         13    1    3    3    0    0  0.32370540075E+02  0.29995306434E+02  0.87182147989E+02  0.97715388762E+02  0.00000000000E+00 0. -1.
         21    1    1    2  502  501  0.56086076651E+01 -0.22636926025E+02  0.66598752282E+02  0.70564018489E+02  0.00000000000E+00 0. -1.
<scales pt_clust_5="13000.00000" pt_clust_6="13000.00000" pt_clust_7="13000.00000" pt_clust_8="13000.00000" pt_clust_9="23.32138"></scales>
<clustering>
<clus scale="   23.321">  1  9  2 -1</clus>
<clus scale="   80.930">  5  6 -1 -1</clus>
<clus scale="   90.244">  2  5  1 -1</clus>
<clus scale="   95.703">  7  8 -1 -1</clus>
<clus scale="   90.244">  2  5  1 -1</clus>
</clustering>
</event>
<event>
 9    2  0.2869112E-005  0.1501398E+03  0.7546771E-02  0.1225933E+00
          2   -1    0    0  502    0  0.00000000000E+00  0.00000000000E+00  0.34971650752E+03  0.34971650752E+03  0.00000000000E+00 0. -1.
         -1   -1    0    0    0  501 -0.00000000000E+00 -0.00000000000E+00 -0.18512855278E+03  0.18512855278E+03  0.00000000000E+00 0.  1.
         23    2    1    2    0    0  0.70893762042E+02 -0.10173294802E+03 -0.10881270621E+02  0.15370685514E+03  0.90176920870E+02 0.  0.
         24    2    1    2    0    0 -0.30911459664E+02 -0.10843589650E+02  0.23284972772E+03  0.24860676215E+03  0.80704551985E+02 0.  0.
        -13    1    4    4    0    0 -0.11686702048E+02 -0.20673450067E+02  0.11823880876E+02  0.26528752353E+02  0.00000000000E+00 0.  1.
         14    1    4    4    0    0 -0.19224757616E+02  0.98298604168E+01  0.22102584685E+03  0.22207800980E+03  0.00000000000E+00 0. -1.
        -11    1    3    3    0    0  0.77747359766E+02 -0.42590971591E+02 -0.25802614564E+02  0.92327773340E+02  0.00000000000E+00 0. -1.
         11    1    3    3    0    0 -0.68535977247E+01 -0.59141976425E+02  0.14921343943E+02  0.61379081797E+02  0.00000000000E+00 0.  1.
         21    1    1    2  502  501 -0.39982302378E+02  0.11257653767E+03 -0.57380502358E+02  0.13253144301E+03  0.00000000000E+00 0.  1.
<scales pt_clust_5="13000.00000" pt_clust_6="13000.00000" pt_clust_7="13000.00000" pt_clust_8="13000.00000" pt_clust_9="120.04199"></scales>
<clustering>
<clus scale="   80.705">  5  6 -1 -1</clus>
<clus scale="   87.100">  1  5  2 -1</clus>
<clus scale="   90.177">  7  8 -1 -1</clus>
<clus scale="  120.042">  2  9  1 -1</clus>
<clus scale="   87.100">  1  5  2 -1</clus>
</clustering>
</event>
<event>
 9    2  0.2869112E-005  0.1157517E+03  0.7546771E-02  0.1256422E+00
         -1   -1    0    0    0  501 -0.00000000000E+00  0.00000000000E+00  0.18997966052E+03  0.18997966052E+03  0.00000000000E+00 0.  1.
          2   -1    0    0  502    0  0.00000000000E+00 -0.00000000000E+00 -0.83600576171E+02  0.83600576171E+02  0.00000000000E+00 0. -1.
         24    2    1    2    0    0 -0.18085770514E+02 -0.41418413779E+02  0.61106504461E+02  0.11223559666E+03  0.82584769637E+02 0.  0.
         23    2    1    2    0    0  0.36341822802E+02  0.64927326633E+02  0.27098984611E+02  0.12647012219E+03  0.98610602940E+02 0.  0.
        -11    1    3    3    0    0  0.44544111998E+01 -0.28435545737E+02  0.76689836290E+02  0.81913082171E+02  0.00000000000E+00 0.  1.
         12    1    3    3    0    0 -0.22540181713E+02 -0.12982868042E+02 -0.15583331830E+02  0.30322514493E+02  0.00000000000E+00 0. -1.
        -13    1    4    4    0    0  0.70426622512E+02  0.38273341643E+02  0.15055539843E+02  0.81556281910E+02  0.00000000000E+00 0.  1.
         13    1    4    4    0    0 -0.34084799710E+02  0.26653984990E+02  0.12043444768E+02  0.44913840283E+02  0.00000000000E+00 0. -1.
         21    1    1    2  502  501 -0.18256052289E+02 -0.23508912854E+02  0.18173595273E+02  0.34874517830E+02  0.00000000000E+00 0. -1.
<scales pt_clust_5="13000.00000" pt_clust_6="13000.00000" pt_clust_7="13000.00000" pt_clust_8="13000.00000" pt_clust_9="29.76495"></scales>
<clustering>
<clus scale="   29.765">  1  9  2 -1</clus>
<clus scale="   82.585">  5  6 -1 -1</clus>
<clus scale="   98.611">  7  8 -1 -1</clus>
<clus scale="  102.443">  1  5  2 -1</clus>
<clus scale="  115.752">  2  5  1 -1</clus>
</clustering>
</event>
<event>
 9    2  0.2869112E-005  0.1365765E+03  0.7546771E-02  0.1220206E+00
         -1   -1    0    0    0  501 -0.00000000000E+00  0.00000000000E+00  0.26174757821E+02  0.26174757821E+02  0.00000000000E+00 0.  1.
          2   -1    0    0  502    0  0.00000000000E+00 -0.00000000000E+00 -0.18715131468E+04  0.18715131468E+04  0.00000000000E+00 0. -1.
         23    2    1    2    0    0  0.68780937801E+02  0.90867493046E+02 -0.25576650424E+03  0.29421577667E+03  0.90325521618E+02 0.  0.
         24    2    1    2    0    0 -0.27827446068E+02 -0.97850817514E+02 -0.14890749666E+04  0.14947266183E+04  0.80710954401E+02 0.  0.
        -13    1    4    4    0    0 -0.33530825421E+02 -0.30462904415E+02 -0.26975258456E+03  0.27353018421E+03  0.00000000000E+00 0.  1.
         14    1    4    4    0    0  0.57033793527E+01 -0.67387913099E+02 -0.12193223820E+04  0.12211964341E+04  0.00000000000E+00 0. -1.
        -13    1    3    3    0    0  0.42747863463E+02 -0.60699872296E+01 -0.56615345980E+02  0.71200575672E+02  0.00000000000E+00 0.  1.
         13    1    3    3    0    0  0.26033074338E+02  0.96937480275E+02 -0.19915115826E+03  0.22301520100E+03  0.00000000000E+00 0. -1.
         21    1    1    2  502  501 -0.40953491733E+02  0.69833244686E+01 -0.10049691816E+03  0.10874550964E+03  0.00000000000E+00 0.  1.
<scales pt_clust_5="13000.00000" pt_clust_6="13000.00000" pt_clust_7="13000.00000" pt_clust_8="13000.00000" pt_clust_9="41.54462"></scales>
<clustering>
<clus scale="   41.545">  1  9  2 -1</clus>
<clus scale="   80.711">  5  6 -1 -1</clus>
<clus scale="   90.326">  7  8 -1 -1</clus>
<clus scale="  130.417">  2  5  1 -1</clus>
<clus scale="  130.417">  2  5  1 -1</clus>
</clustering>
</event>
<event>
 9    2  0.2869112E-005  0.1723716E+03  0.7546771E-02  0.1176544E+00
          2   -1    0    0  502    0  0.00000000000E+00  0.00000000000E+00  0.45721228663E+03  0.45721228663E+03  0.00000000000E+00 0. -1.
         -1   -1    0    0    0  501 -0.00000000000E+00 -0.00000000000E+00 -0.12519078354E+03  0.12519078354E+03  0.00000000000E+00 0.  1.
         24    2    1    2    0    0  0.11606857165E+03  0.25194543530E+02 -0.73912684043E+01  0.15527596779E+03  0.99746262973E+02 0.  0.
         23    2    1    2    0    0 -0.13937863225E+03 -0.43497146714E+02  0.35421803250E+03  0.39399796170E+03  0.91899806188E+02 0.  0.
        -11    1    3    3    0    0  0.98159021642E+02 -0.18486391410E+02  0.18271219586E+02  0.10154199950E+03  0.00000000000E+00 0.  1.
         12    1    3    3    0    0  0.17909550003E+02  0.43680934939E+02 -0.25662487990E+02  0.53733968291E+02  0.00000000000E+00 0. -1.
        -13    1    4    4    0    0 -0.28984902600E+02 -0.24449186593E+02  0.23003372026E+02  0.44351352047E+02  0.00000000000E+00 0.  1.
         13    1    4    4    0    0 -0.11039372965E+03 -0.19047960121E+02  0.33121466048E+03  0.34964660966E+03  0.00000000000E+00 0. -1.
         21    1    1    2  502  501  0.23310060604E+02  0.18302603184E+02 -0.14805261005E+02  0.33129140679E+02  0.00000000000E+00 0.  1.
<scales pt_clust_5="13000.00000" pt_clust_6="13000.00000" pt_clust_7="13000.00000" pt_clust_8="13000.00000" pt_clust_9="29.63687"></scales>
<clustering>
<clus scale="   29.637">  2  9  1 -1</clus>
<clus scale="   91.900">  7  8 -1 -1</clus>
<clus scale="   99.746">  5  6 -1 -1</clus>
<clus scale="  167.953">  1  7  2 -1</clus>
<clus scale="  167.953">  1  5  2 -1</clus>
</clustering>
</event>
<event>
 9    2  0.2869112E-005  0.1004675E+03  0.7546771E-02  0.1284854E+00
          2   -1    0    0  502    0  0.00000000000E+00  0.00000000000E+00  0.28348894664E+03  0.28348894664E+03  0.00000000000E+00 0. -1.
         -1   -1    0    0    0  501 -0.00000000000E+00 -0.00000000000E+00 -0.18350146016E+03  0.18350146016E+03  0.00000000000E+00 0.  1.
         24    2    1    2    0    0  0.43379073687E+02 -0.42539871121E+02  0.10711387929E+02  0.10079837926E+03  0.79713203186E+02 0.  0.
         23    2    1    2    0    0 -0.21538222715E+02  0.32097334608E+02  0.21581697424E+03  0.23735623066E+03  0.90922384127E+02 0.  0.
        -13    1    3    3    0    0  0.34632299463E+02 -0.13283448185E+02 -0.31525291170E+02  0.48679463279E+02  0.00000000000E+00 0.  1.
         14    1    3    3    0    0  0.87467742238E+01 -0.29256422935E+02  0.42236679098E+02  0.52118915986E+02  0.00000000000E+00 0. -1.
        -11    1    4    4    0    0 -0.50186559133E+02  0.44610539987E+02  0.13715434936E+03  0.15270922220E+03  0.00000000000E+00 0. -1.
         11    1    4    4    0    0  0.28648336418E+02 -0.12513205379E+02  0.78662624878E+02  0.84647008459E+02  0.00000000000E+00 0.  1.
         21    1    1    2  502  501 -0.21840850971E+02  0.10442536513E+02 -0.12654087568E+03  0.12883579688E+03  0.00000000000E+00 0.  1.
<scales pt_clust_5="13000.00000" pt_clust_6="13000.00000" pt_clust_7="13000.00000" pt_clust_8="13000.00000" pt_clust_9="24.20887"></scales>
<clustering>
<clus scale="   24.209">  2  9  1 -1</clus>
<clus scale="   79.713">  5  6 -1 -1</clus>
<clus scale="   90.449">  2  5  1 -1</clus>
<clus scale="   90.922">  7  8 -1 -1</clus>
<clus scale="  100.468">  1  5  2 -1</clus>
</clustering>
</event>
<event>
 9    2  0.2869112E-005  0.2059339E+03  0.7546771E-02  0.1179165E+00
         -1   -1    0    0    0  501 -0.00000000000E+00  0.00000000000E+00  0.21794521769E+03  0.21794521769E+03  0.00000000000E+00 0.  1.
          2   -1    0    0  502    0  0.00000000000E+00 -0.00000000000E+00 -0.11620616020E+04  0.11620616020E+04  0.00000000000E+00 0. -1.
         23    2    1    2    0    0 -0.11462782465E+02 -0.32526139486E+02  0.45257993310E+02  0.10328135268E+03  0.86194006291E+02 0.  0.
         24    2    1    2    0    0 -0.96614472493E+02 -0.15990870938E+03 -0.10320098721E+04  0.10519374569E+04  0.81381112764E+02 0.  0.
        -11    1    4    4    0    0  0.56979353686E+01 -0.38064795730E+02 -0.11616059941E+03  0.12237107500E+03  0.00000000000E+00 0.  1.
         12    1    4    4    0    0 -0.10231240786E+03 -0.12184391365E+03 -0.91584927269E+03  0.92956638191E+03  0.00000000000E+00 0. -1.
        -13    1    3    3    0    0 -0.73784757380E+00 -0.49502699474E+02 -0.44134125593E+01  0.49704525797E+02  0.00000000000E+00 0.  1.
         13    1    3    3    0    0 -0.10724934891E+02  0.16976559988E+02  0.49671405869E+02  0.53576826880E+02  0.00000000000E+00 0. -1.
         21    1    1    2  502  501  0.10807725496E+03  0.19243484887E+03  0.42635494480E+02  0.22478801011E+03  0.00000000000E+00 0.  1.
<scales pt_clust_5="13000.00000" pt_clust_6="13000.00000" pt_clust_7="13000.00000" pt_clust_8="13000.00000" pt_clust_9="189.17155"></scales>
<clustering>
<clus scale="   81.381">  5  6 -1 -1</clus>
<clus scale="   86.194">  7  8 -1 -1</clus>
<clus scale="   92.837">  1  7  2 -1</clus>
<clus scale="  189.172">  1  9  2 -1</clus>
<clus scale="  205.934">  2  5  1 -1</clus>
</clustering>
</event>
<event>
 9    2  0.2869112E-005  0.1012471E+03  0.7546771E-02  0.1287231E+00
          2   -1    0    0  502    0  0.00000000000E+00  0.00000000000E+00  0.60366032563E+03  0.60366032563E+03  0.00000000000E+00 0. -1.
         -1   -1    0    0    0  501 -0.00000000000E+00 -0.00000000000E+00 -0.50745949122E+02  0.50745949122E+02  0.00000000000E+00 0.  1.
         23    2    1    2    0    0  0.32632672022E+02 -0.40778670869E+02  0.93764582474E+02  0.13987806302E+03  0.89701083089E+02 0.  0.
         24    2    1    2    0    0 -0.20039089496E+01  0.47469005251E+02  0.47279085683E+03  0.48033815037E+03  0.70258254212E+02 0.  0.
        -11    1    4    4    0    0  0.32637680839E+02  0.34215424216E+02  0.24043868394E+03  0.24504422907E+03  0.00000000000E+00 0.  1.
         12    1    4    4    0    0 -0.34641589788E+02  0.13253581036E+02  0.23235217289E+03  0.23529392130E+03  0.00000000000E+00 0. -1.
        -11    1    3    3    0    0  0.17542079679E+02 -0.18363633968E+02 -0.13847153133E+02  0.28925616015E+02  0.00000000000E+00 0.  1.
         11    1    3    3    0    0  0.15090592344E+02 -0.22415036900E+02  0.10761173561E+03  0.11095244701E+03  0.00000000000E+00 0. -1.
         21    1    1    2  502  501 -0.30628763073E+02 -0.66903343824E+01 -0.13641062800E+02  0.34190061360E+02  0.00000000000E+00 0.  1.
<scales pt_clust_5="13000.00000" pt_clust_6="13000.00000" pt_clust_7="13000.00000" pt_clust_8="13000.00000" pt_clust_9="31.35094"></scales>
<clustering>
<clus scale="   31.351">  2  9  1 -1</clus>
<clus scale="   70.258">  5  6 -1 -1</clus>
<clus scale="   84.504">  1  5  2 -1</clus>
<clus scale="   89.701">  7  8 -1 -1</clus>
<clus scale="   84.504">  1  5  2 -1</clus>
</clustering>
</event>
<event>
 9    2  0.2869112E-005  0.1053342E+03  0.7546771E-02  0.1275460E+00
          2   -1    0    0  502    0  0.00000000000E+00  0.00000000000E+00  0.16936692678E+03  0.16936692678E+03  0.00000000000E+00 0. -1.
         -1   -1    0    0    0  501 -0.00000000000E+00 -0.00000000000E+00 -0.14211089704E+03  0.14211089704E+03  0.00000000000E+00 0.  1.
         23    2    1    2    0    0  0.68807507672E+02  0.71104947621E+01 -0.61806305023E+02  0.13212214853E+03  0.94080872356E+02 0.  0.
         24    2    1    2    0    0 -0.42591825342E+02  0.11818105333E+02  0.10786275871E+03  0.14195233530E+03  0.81008392047E+02 0.  0.
        -13    1    4    4    0    0 -0.19940191524E+02 -0.34075718851E+02  0.34073089727E+02  0.52151138978E+02  0.00000000000E+00 0.  1.
         14    1    4    4    0    0 -0.22651633819E+02  0.45893824184E+02  0.73789668985E+02  0.89801196327E+02  0.00000000000E+00 0. -1.
        -13    1    3    3    0    0  0.63148037522E+02  0.26405044681E+02 -0.79804333739E+02  0.10513625783E+03  0.00000000000E+00 0.  1.
         13    1    3    3    0    0  0.56594701502E+01 -0.19294549919E+02  0.17998028716E+02  0.26985890696E+02  0.00000000000E+00 0. -1.
         21    1    1    2  502  501 -0.26215682330E+02 -0.18928600095E+02 -0.18800423947E+02  0.37403339986E+02  0.00000000000E+00 0. -1.
<scales pt_clust_5="13000.00000" pt_clust_6="13000.00000" pt_clust_7="13000.00000" pt_clust_8="13000.00000" pt_clust_9="32.33503"></scales>
<clustering>
<clus scale="   32.335">  2  9  1 -1</clus>
<clus scale="   81.008">  5  6 -1 -1</clus>
<clus scale="   93.843">  1  5  2 -1</clus>
<clus scale="   94.081">  7  8 -1 -1</clus>
<clus scale="   93.843">  1  5  2 -1</clus>
</clustering>
</event>
<event>
 9    2  0.2869112E-005  0.1256118E+03  0.7546771E-02  0.1237395E+00
         -1   -1    0    0    0  501 -0.00000000000E+00  0.00000000000E+00  0.34334682857E+03  0.34334682857E+03  0.00000000000E+00 0.  1.
          2   -1    0    0  502    0  0.00000000000E+00 -0.00000000000E+00 -0.25664334299E+03  0.25664334299E+03  0.00000000000E+00 0. -1.
         24    2    1    2    0    0  0.63712358451E+02 -0.32753378064E+02  0.21361986967E+03  0.23900801324E+03  0.79745427964E+02 0.  0.
         23    2    1    2    0    0 -0.55925067207E+02 -0.73627465519E+02 -0.19507625856E+03  0.23439900670E+03  0.91321031892E+02 0.  0.
        -13    1    3    3    0    0  0.70726517554E+02 -0.18113290817E+01  0.11131114672E+03  0.13189273135E+03  0.00000000000E+00 0.  1.
         14    1    3    3    0    0 -0.70141591027E+01 -0.30942048982E+02  0.10230872295E+03  0.10711528189E+03  0.00000000000E+00 0. -1.
        -11    1    4    4    0    0 -0.21108933842E+02  0.18497761723E+01  0.12247792075E+01  0.21225193613E+02  0.00000000000E+00 0.  1.
         11    1    4    4    0    0 -0.34816133366E+02 -0.75477241691E+02 -0.19630103777E+03  0.21317381309E+03  0.00000000000E+00 0. -1.
         21    1    1    2  502  501 -0.77872912439E+01  0.10638084358E+03  0.68159874466E+02  0.12658315162E+03  0.00000000000E+00 0.  1.
<scales pt_clust_5="13000.00000" pt_clust_6="13000.00000" pt_clust_7="13000.00000" pt_clust_8="13000.00000" pt_clust_9="106.66549"></scales>
<clustering>
<clus scale="   79.745">  5  6 -1 -1</clus>
<clus scale="   91.321">  7  8 -1 -1</clus>
<clus scale="  106.665">  1  9  2 -1</clus>
<clus scale="  117.465">  1  5  2 -1</clus>
<clus scale="  125.612">  2  5  1 -1</clus>
</clustering>
</event>
<event>
 9    2  0.2869112E-005  0.2098022E+03  0.7546771E-02  0.1142983E+00
         -1   -1    0    0    0  501 -0.00000000000E+00  0.00000000000E+00  0.54935541407E+02  0.54935541407E+02  0.00000000000E+00 0.  1.
          2   -1    0    0  502    0  0.00000000000E+00 -0.00000000000E+00 -0.13137238031E+04  0.13137238031E+04  0.00000000000E+00 0. -1.
         23    2    1    2    0    0 -0.11483621510E+02 -0.17666386821E+03 -0.41590235345E+03  0.46183528397E+03  0.94736825060E+02 0.  0.
         24    2    1    2    0    0 -0.18787080111E+02  0.19278674577E+03 -0.84676593674E+03  0.87230859767E+03  0.79937814699E+02 0.  0.
        -11    1    4    4    0    0 -0.36961646286E+02  0.35893015933E+02 -0.19793286339E+03  0.20452845841E+03  0.00000000000E+00 0.  1.
         12    1    4    4    0    0  0.18174566174E+02  0.15689372983E+03 -0.64883307335E+03  0.66778013926E+03  0.00000000000E+00 0. -1.
        -13    1    3    3    0    0  0.21126518912E+02 -0.15790381646E+03 -0.36739554529E+03  0.40044903765E+03  0.00000000000E+00 0.  1.
         13    1    3    3    0    0 -0.32610140421E+02 -0.18760051758E+02 -0.48506808156E+02  0.61386246324E+02  0.00000000000E+00 0. -1.
         21    1    1    2  502  501  0.30270701621E+02 -0.16122877553E+02  0.38800284769E+01  0.34515462885E+02  0.00000000000E+00 0.  1.
<scales pt_clust_5="13000.00000" pt_clust_6="13000.00000" pt_clust_7="13000.00000" pt_clust_8="13000.00000" pt_clust_9="34.29668"></scales>
<clustering>
<clus scale="   34.297">  1  9  2 -1</clus>
<clus scale="   79.938">  5  6 -1 -1</clus>
<clus scale="   94.737">  7  8 -1 -1</clus>
<clus scale="  203.548">  2  5  1 -1</clus>
<clus scale="  203.548">  2  5  1 -1</clus>
</clustering>
</event>
<event>
 9    2  0.2869112E-005  0.1062669E+03  0.7546771E-02  0.1271700E+00
          2   -1    0    0  502    0  0.00000000000E+00  0.00000000000E+00  0.78778168178E+03  0.78778168178E+03  0.00000000000E+00 0. -1.
         -1   -1    0    0    0  501 -0.00000000000E+00 -0.00000000000E+00 -0.69143405605E+02  0.69143405605E+02  0.00000000000E+00 0.  1.
         23    2    1    2    0    0  0.39728433441E+02  0.59818184472E+02  0.18935143875E+02  0.11661831015E+03  0.89915109811E+02 0.  0.
         24    2    1    2    0    0 -0.40323870195E+02 -0.38441184121E+02  0.70991525234E+03  0.71660829447E+03  0.80274797137E+02 0.  0.
        -13    1    4    4    0    0 -0.42136683571E+01  0.22247994322E+02  0.95490667278E+02  0.98138655939E+02  0.00000000000E+00 0.  1.
         14    1    4    4    0    0 -0.36110201838E+02 -0.60689178443E+02  0.61442458507E+03  0.61846963854E+03  0.00000000000E+00 0. -1.
        -13    1    3    3    0    0 -0.46031368026E+01  0.42284329107E+02  0.45301330792E+02  0.62139873898E+02  0.00000000000E+00 0. -1.
         13    1    3    3    0    0  0.44331570244E+02  0.17533855364E+02 -0.26366186918E+02  0.54478436255E+02  0.00000000000E+00 0.  1.
         21    1    1    2  502  501  0.59543675338E+00 -0.21377000351E+02 -0.10212120047E+02  0.23698482753E+02  0.00000000000E+00 0.  1.
<scales pt_clust_5="13000.00000" pt_clust_6="13000.00000" pt_clust_7="13000.00000" pt_clust_8="13000.00000" pt_clust_9="21.38529"></scales>
<clustering>
<clus scale="   21.385">  2  9  1 -1</clus>
<clus scale="   80.275">  5  6 -1 -1</clus>
<clus scale="   89.915">  7  8 -1 -1</clus>
<clus scale="   98.244">  1  5  2 -1</clus>
<clus scale="   98.244">  1  5  2 -1</clus>
</clustering>
</event>
<event>
 9    2  0.2869112E-005  0.1203471E+03  0.7546771E-02  0.1245187E+00
          2   -1    0    0  502    0  0.00000000000E+00  0.00000000000E+00  0.18764207627E+03  0.18764207627E+03  0.00000000000E+00 0. -1.
         -1   -1    0    0    0  501 -0.00000000000E+00 -0.00000000000E+00 -0.12287063275E+03  0.12287063275E+03  0.00000000000E+00 0.  1.
         23    2    1    2    0    0 -0.70009927003E+02  0.47378587008E+02 -0.10860295383E+02  0.12449293375E+03  0.90743727893E+02 0.  0.
         24    2    1    2    0    0  0.80591651533E+02 -0.26062361888E+01  0.79375816615E+02  0.13986184627E+03  0.82213192458E+02 0.  0.
        -13    1    4    4    0    0  0.62049478303E+02 -0.38375872412E+02  0.38604299669E+02  0.82541730621E+02  0.00000000000E+00 0.  1.
         14    1    4    4    0    0  0.18542173231E+02  0.35769636223E+02  0.40771516947E+02  0.57320115647E+02  0.00000000000E+00 0. -1.
        -11    1    3    3    0    0 -0.91429856330E+02  0.31654366979E+02 -0.13899943601E+02  0.97747767286E+02  0.00000000000E+00 0.  1.
         11    1    3    3    0    0  0.21419929326E+02  0.15724220029E+02  0.30396482186E+01  0.26745166464E+02  0.00000000000E+00 0. -1.
         21    1    1    2  502  501 -0.10581724530E+02 -0.44772350819E+02 -0.37440777094E+01  0.46157929002E+02  0.00000000000E+00 0.  1.
<scales pt_clust_5="13000.00000" pt_clust_6="13000.00000" pt_clust_7="13000.00000" pt_clust_8="13000.00000" pt_clust_9="46.00583"></scales>
<clustering>
<clus scale="   46.006">  2  9  1 -1</clus>
<clus scale="   82.213">  5  6 -1 -1</clus>
<clus scale="   90.744">  7  8 -1 -1</clus>
<clus scale="  114.053">  1  5  2 -1</clus>
<clus scale="  114.053">  1  5  2 -1</clus>
</clustering>
</event>
<event>
 9    2  0.2869112E-005  0.1085021E+03  0.7546771E-02  0.1266221E+00
         -1   -1    0    0    0  501 -0.00000000000E+00  0.00000000000E+00  0.42490455884E+02  0.42490455884E+02  0.00000000000E+00 0.  1.
          2   -1    0    0  502    0  0.00000000000E+00 -0.00000000000E+00 -0.48255671740E+03  0.48255671740E+03  0.00000000000E+00 0. -1.
         23    2    1    2    0    0 -0.28654435919E+02 -0.13722437411E+02 -0.11777558853E+03  0.15935279177E+03  0.10253214619E+03 0.  0.
         24    2    1    2    0    0  0.94620281462E+01  0.39648732243E+02 -0.31596937038E+03  0.33282372369E+03  0.96298681636E+02 0.  0.
        -11    1    4    4    0    0 -0.41121933928E+01 -0.30823305674E+02 -0.69956997230E+02  0.76556957676E+02  0.00000000000E+00 0.  1.
         12    1    4    4    0    0  0.13574221539E+02  0.70472037916E+02 -0.24601237315E+03  0.25626676601E+03  0.00000000000E+00 0. -1.
        -13    1    3    3    0    0 -0.49825926674E+01  0.20420849009E+02 -0.11587142490E+03  0.11776257645E+03  0.00000000000E+00 0. -1.
         13    1    3    3    0    0 -0.23671843252E+02 -0.34143286420E+02 -0.19041636299E+01  0.41590215311E+02  0.00000000000E+00 0.  1.
         21    1    1    2  502  501  0.19192407773E+02 -0.25926294831E+02 -0.63213026025E+01  0.32870657834E+02  0.00000000000E+00 0.  1.
<scales pt_clust_5="13000.00000" pt_clust_6="13000.00000" pt_clust_7="13000.00000" pt_clust_8="13000.00000" pt_clust_9="32.25711"></scales>
<clustering>
<clus scale="   32.257">  1  9  2 -1</clus>
<clus scale="   96.299">  5  6 -1 -1</clus>
<clus scale="  102.532">  7  8 -1 -1</clus>
<clus scale="  102.632">  2  5  1 -1</clus>
<clus scale="  102.632">  2  5  1 -1</clus>
</clustering>
</event>
<event>
 9    2  0.2869112E-005  0.1052002E+03  0.7546771E-02  0.1273073E+00
          2   -1    0    0  502    0  0.00000000000E+00  0.00000000000E+00  0.18982969787E+04  0.18982969787E+04  0.00000000000E+00 0. -1.
         -1   -1    0    0    0  501 -0.00000000000E+00 -0.00000000000E+00 -0.15578947333E+02  0.15578947333E+02  0.00000000000E+00 0.  1.
         23    2    1    2    0    0 -0.25233846723E+02 -0.18882276511E+02  0.17628316608E+03  0.20149176471E+03  0.92357399370E+02 0.  0.
         24    2    1    2    0    0  0.49147540436E+02  0.19346770507E+02  0.16074388984E+04  0.16105397606E+04  0.84786378986E+02 0.  0.
        -13    1    4    4    0    0  0.10847408750E+02  0.21253119857E+02  0.10773991049E+03  0.11035057631E+03  0.00000000000E+00 0.  1.
         14    1    4    4    0    0  0.38300131686E+02 -0.19063493496E+01  0.14996989879E+04  0.15001891842E+04  0.00000000000E+00 0. -1.
        -13    1    3    3    0    0 -0.53796250084E+02 -0.13774330539E+02  0.60473018802E+02  0.82102099290E+02  0.00000000000E+00 0.  1.
         13    1    3    3    0    0  0.28562403361E+02 -0.51079459728E+01  0.11581014728E+03  0.11938966542E+03  0.00000000000E+00 0. -1.
         21    1    1    2  502  501 -0.23913693713E+02 -0.46449399599E+00  0.98995966910E+02  0.10184440076E+03  0.00000000000E+00 0.  1.
<scales pt_clust_5="13000.00000" pt_clust_6="13000.00000" pt_clust_7="13000.00000" pt_clust_8="13000.00000" pt_clust_9="23.91820"></scales>
<clustering>
<clus scale="   23.918">  2  9  1 -1</clus>
<clus scale="   84.786">  5  6 -1 -1</clus>
<clus scale="   92.357">  7  8 -1 -1</clus>
<clus scale="   98.620">  1  5  2 -1</clus>
<clus scale="   98.620">  1  5  2 -1</clus>
</clustering>
</event>
<event>
 9    2  0.2869112E-005  0.1128442E+03  0.7546771E-02  0.1258879E+00
          2   -1    0    0  502    0  0.00000000000E+00  0.00000000000E+00  0.53346493726E+03  0.53346493726E+03  0.00000000000E+00 0. -1.
         -1   -1    0    0    0  501 -0.00000000000E+00 -0.00000000000E+00 -0.93555170648E+02  0.93555170648E+02  0.00000000000E+00 0.  1.
         23    2    1    2    0    0 -0.43274101915E+02 -0.33054603507E+02  0.10624201810E+03  0.14962304280E+03  0.90191096097E+02 0.  0.
         24    2    1    2    0    0  0.80659969806E+01  0.77468298145E+02  0.38496756201E+03  0.40095193583E+03  0.80597974654E+02 0.  0.
        -11    1    4    4    0    0 -0.34267273690E+01  0.54485303936E+02  0.92879581776E+02  0.10773582281E+03  0.00000000000E+00 0.  1.
         12    1    4    4    0    0  0.11492724350E+02  0.22982994209E+02  0.29208798024E+03  0.29321611302E+03  0.00000000000E+00 0. -1.
        -11    1    3    3    0    0 -0.70188480294E+02 -0.13256166120E+02  0.79077998396E+02  0.10656208771E+03  0.00000000000E+00 0. -1.
         11    1    3    3    0    0  0.26914378379E+02 -0.19798437387E+02  0.27164019708E+02  0.43060955090E+02  0.00000000000E+00 0.  1.
         21    1    1    2  502  501  0.35208104934E+02 -0.44413694638E+02 -0.51299813509E+02  0.76445129279E+02  0.00000000000E+00 0.  1.
<scales pt_clust_5="13000.00000" pt_clust_6="13000.00000" pt_clust_7="13000.00000" pt_clust_8="13000.00000" pt_clust_9="56.67616"></scales>
<clustering>
<clus scale="   56.676">  2  9  1 -1</clus>
<clus scale="   80.598">  5  6 -1 -1</clus>
<clus scale="   90.191">  7  8 -1 -1</clus>
<clus scale="  105.335">  1  5  2 -1</clus>
<clus scale="  105.335">  1  5  2 -1</clus>
</clustering>
</event>
<event>
 9    2  0.2869112E-005  0.1004096E+03  0.7546771E-02  0.1284926E+00
         -1   -1    0    0    0  501 -0.00000000000E+00  0.00000000000E+00  0.27578669892E+03  0.27578669892E+03  0.00000000000E+00 0.  1.
          2   -1    0    0  502    0  0.00000000000E+00 -0.00000000000E+00 -0.87023064277E+02  0.87023064277E+02  0.00000000000E+00 0. -1.
         23    2    1    2    0    0 -0.75227129993E+01  0.29549965257E+02  0.70189007200E+02  0.11939301104E+03  0.91642799477E+02 0.  0.
         24    2    1    2    0    0 -0.15752688612E+02 -0.43823541459E+02 -0.25680954570E+02  0.96600022049E+02  0.80643678287E+02 0.  0.
        -11    1    4    4    0    0  0.23362217489E+02 -0.18638289667E+02  0.16208205742E+02  0.33998308504E+02  0.00000000000E+00 0.  1.
         12    1    4    4    0    0 -0.39114906101E+02 -0.25185251792E+02 -0.41889160313E+02  0.62601713545E+02  0.00000000000E+00 0. -1.
        -13    1    3    3    0    0 -0.10164176784E+02  0.57285883859E+02  0.70656437409E+02  0.91527674102E+02  0.00000000000E+00 0.  1.
         13    1    3    3    0    0  0.26414637850E+01 -0.27735918602E+02 -0.46743020953E+00  0.27865336938E+02  0.00000000000E+00 0. -1.
         21    1    1    2  502  501  0.23275401611E+02  0.14273576203E+02  0.14425558202E+03  0.14681673011E+03  0.00000000000E+00 0.  1.
<scales pt_clust_5="13000.00000" pt_clust_6="13000.00000" pt_clust_7="13000.00000" pt_clust_8="13000.00000" pt_clust_9="27.30347"></scales>
<clustering>
<clus scale="   27.303">  1  9  2 -1</clus>
<clus scale="   80.644">  5  6 -1 -1</clus>
<clus scale="   90.483">  2  5  1 -1</clus>
<clus scale="   91.643">  7  8 -1 -1</clus>
<clus scale="   90.483">  2  5  1 -1</clus>
</clustering>
</event>
<event>
 9    2  0.2869112E-005  0.1138888E+03  0.7546771E-02  0.1257486E+00
          2   -1    0    0  502    0  0.00000000000E+00  0.00000000000E+00  0.27735060282E+03  0.27735060282E+03  0.00000000000E+00 0. -1.
         -1   -1    0    0    0  501 -0.00000000000E+00 -0.00000000000E+00 -0.12713243546E+03  0.12713243546E+03  0.00000000000E+00 0.  1.
         24    2    1    2    0    0  0.58263281838E+02 -0.22776748072E+02 -0.47697222887E+02  0.11286175787E+03  0.80928122769E+02 0.  0.
         23    2    1    2    0    0 -0.48959269767E+02  0.48615086301E+02  0.22527279183E+03  0.25285774362E+03  0.91808338709E+02 0.  0.
        -11    1    3    3    0    0  0.78844769409E+02 -0.19872018343E+02 -0.40717227979E+02  0.90935622451E+02  0.00000000000E+00 0.  1.
         12    1    3    3    0    0 -0.20581487571E+02 -0.29047297289E+01 -0.69799949083E+01  0.21926135418E+02  0.00000000000E+00 0. -1.
        -13    1    4    4    0    0  0.21249331825E+02  0.25739922463E+01  0.14165005695E+02  0.25667234472E+02  0.00000000000E+00 0.  1.
         13    1    4    4    0    0 -0.70208601592E+02  0.46041094054E+02  0.21110778613E+03  0.22719050915E+03  0.00000000000E+00 0. -1.
         21    1    1    2  502  501 -0.93040120713E+01 -0.25838338229E+02 -0.27357401582E+02  0.38763536789E+02  0.00000000000E+00 0.  1.
<scales pt_clust_5="13000.00000" pt_clust_6="13000.00000" pt_clust_7="13000.00000" pt_clust_8="13000.00000" pt_clust_9="27.46242"></scales>
<clustering>
<clus scale="   27.462">  2  9  1 -1</clus>
<clus scale="   80.928">  5  6 -1 -1</clus>
<clus scale="   91.808">  7  8 -1 -1</clus>
<clus scale="  105.315">  2  5  1 -1</clus>
<clus scale="  113.889">  1  5  2 -1</clus>
</clustering>
</event>
<event>
 9    2  0.2869112E-005  0.9844819E+02  0.7546771E-02  0.1288507E+00
         -3   -1    0    0    0  501 -0.00000000000E+00  0.00000000000E+00  0.98995947337E+02  0.98995947337E+02  0.00000000000E+00 0.  1.
          4   -1    0    0  502    0  0.00000000000E+00 -0.00000000000E+00 -0.14716506290E+03  0.14716506290E+03  0.00000000000E+00 0. -1.
         23    2    1    2    0    0 -0.28911178353E+02 -0.23781501242E+02  0.23331038021E+02  0.10185005816E+03  0.91802401800E+02 0.  0.
         24    2    1    2    0    0  0.36648052810E+02  0.22642399036E+01 -0.79345502950E+02  0.12013655925E+03  0.82394644690E+02 0.  0.
        -11    1    4    4    0    0  0.45521401945E+02  0.16678965898E+02 -0.10982530186E+02  0.49709173276E+02  0.00000000000E+00 0.  1.
         12    1    4    4    0    0 -0.88733491351E+01 -0.14414725995E+02 -0.68362972764E+02  0.70427385977E+02  0.00000000000E+00 0. -1.
        -13    1    3    3    0    0 -0.54973425569E+01  0.21261877040E+02  0.42296351172E+02  0.47657837896E+02  0.00000000000E+00 0. -1.
         13    1    3    3    0    0 -0.23413835796E+02 -0.45043378283E+02 -0.18965313151E+02  0.54192220260E+02  0.00000000000E+00 0.  1.
         21    1    1    2  502  501 -0.77368744570E+01  0.21517261339E+02  0.78453493672E+01  0.24174392828E+02  0.00000000000E+00 0.  1.
<scales pt_clust_5="13000.00000" pt_clust_6="13000.00000" pt_clust_7="13000.00000" pt_clust_8="13000.00000" pt_clust_9="22.86595"></scales>
<clustering>
<clus scale="   22.866">  1  9  2 -1</clus>
<clus scale="   82.395">  5  6 -1 -1</clus>
<clus scale="   89.740">  2  5  1 -1</clus>
<clus scale="   91.802">  7  8 -1 -1</clus>
<clus scale="   89.740">  2  5  1 -1</clus>
</clustering>
</event>
<event>
 9    2  0.2869112E-005  0.1365113E+03  0.7546771E-02  0.1220808E+00
          2   -1    0    0  502    0  0.00000000000E+00  0.00000000000E+00  0.36859500604E+03  0.36859500604E+03  0.00000000000E+00 0. -1.
         -1   -1    0    0    0  501 -0.00000000000E+00 -0.00000000000E+00 -0.74815234124E+02  0.74815234124E+02  0.00000000000E+00 0.  1.
         24    2    1    2    0    0 -0.31205150724E+02 -0.91233222631E+02  0.30544414819E+02  0.12865905524E+03  0.79516846481E+02 0.  0.
         23    2    1    2    0    0  0.48452899374E+02  0.10700116689E+03  0.21920873590E+03  0.26490686455E+03  0.91248253797E+02 0.  0.
        -13    1    3    3    0    0  0.10753013368E+01 -0.92659631340E+02  0.23033525585E+02  0.95485636899E+02  0.00000000000E+00 0.  1.
         14    1    3    3    0    0 -0.32280452061E+02  0.14264087100E+01  0.75108892343E+01  0.33173418337E+02  0.00000000000E+00 0. -1.
        -13    1    4    4    0    0 -0.24702879551E+02  0.18530349443E+02  0.26972560456E+02  0.41001525900E+02  0.00000000000E+00 0. -1.
         13    1    4    4    0    0  0.73155778925E+02  0.88470817442E+02  0.19223617544E+03  0.22390533865E+03  0.00000000000E+00 0.  1.
         21    1    1    2  502  501 -0.17247748650E+02 -0.15767944255E+02  0.44026621203E+02  0.49844320379E+02  0.00000000000E+00 0. -1.
<scales pt_clust_5="13000.00000" pt_clust_6="13000.00000" pt_clust_7="13000.00000" pt_clust_8="13000.00000" pt_clust_9="23.36906"></scales>
<clustering>
<clus scale="   23.369">  1  9  2 -1</clus>
<clus scale="   79.517">  5  6 -1 -1</clus>
<clus scale="   91.248">  7  8 -1 -1</clus>
<clus scale="  128.965">  2  5  1 -1</clus>
<clus scale="   23.369">  1  5  2 -1</clus>
</clustering>
</event>
<event>
 9    2  0.2869112E-005  0.8557026E+02  0.7546771E-02  0.1314502E+00
          2   -1    0    0  502    0  0.00000000000E+00  0.00000000000E+00  0.81308747726E+03  0.81308747726E+03  0.00000000000E+00 0. -1.
         -1   -1    0    0    0  501 -0.00000000000E+00 -0.00000000000E+00 -0.11406368182E+03  0.11406368182E+03  0.00000000000E+00 0.  1.
         23    2    1    2    0    0 -0.39408854093E+02  0.75254086102E+01 -0.83839806801E+02  0.12604361673E+03  0.85136305756E+02 0.  0.
         24    2    1    2    0    0  0.78636327542E+01  0.10528898144E+01  0.74996857620E+03  0.75473113746E+03  0.84280954311E+02 0.  0.
        -13    1    4    4    0    0 -0.10315329644E+02 -0.28348586561E+02  0.11723773534E+03  0.12105674278E+03  0.00000000000E+00 0.  1.
         14    1    4    4    0    0  0.18178962398E+02  0.29401476375E+02  0.63273084087E+03  0.63367439468E+03  0.00000000000E+00 0. -1.
        -11    1    3    3    0    0 -0.10860410589E+02  0.45194710951E+02 -0.47154082163E+02  0.66211916455E+02  0.00000000000E+00 0. -1.
         11    1    3    3    0    0 -0.28548443503E+02 -0.37669302341E+02 -0.36685724638E+02  0.59831700273E+02  0.00000000000E+00 0.  1.
         21    1    1    2  502  501  0.31545221339E+02 -0.85782984246E+01  0.32895026038E+02  0.46376404898E+02  0.00000000000E+00 0. -1.
<scales pt_clust_5="13000.00000" pt_clust_6="13000.00000" pt_clust_7="13000.00000" pt_clust_8="13000.00000" pt_clust_9="32.69080"></scales>
<clustering>
<clus scale="   32.691">  2  9  1 -1</clus>
<clus scale="   84.281">  5  6 -1 -1</clus>
<clus scale="   84.719">  1  5  2 -1</clus>
<clus scale="   85.136">  7  8 -1 -1</clus>
<clus scale="   84.719">  1  5  2 -1</clus>
</clustering>
</event>
<event>
 9    2  0.2869112E-005  0.1330683E+03  0.7546771E-02  0.1223098E+00
          2   -1    0    0  502    0  0.00000000000E+00  0.00000000000E+00  0.55090584935E+03  0.55090584935E+03  0.00000000000E+00 0. -1.
         -1   -1    0    0    0  501 -0.00000000000E+00 -0.00000000000E+00 -0.83467354148E+02  0.83467354148E+02  0.00000000000E+00 0.  1.
         23    2    1    2    0    0  0.73129265520E+02  0.35014327131E+02  0.32616818927E+02  0.12637924766E+03  0.91290551446E+02 0.  0.
         24    2    1    2    0    0 -0.92918902448E+02  0.60888553196E+02  0.34975890759E+03  0.37828402251E+03  0.91794171440E+02 0.  0.
        -13    1    4    4    0    0 -0.11385117684E+02  0.60077154644E+02  0.12411163341E+03  0.13835672359E+03  0.00000000000E+00 0.  1.
         14    1    4    4    0    0 -0.81533784764E+02  0.81139855229E+00  0.22564727418E+03  0.23992729893E+03  0.00000000000E+00 0. -1.
        -11    1    3    3    0    0  0.27446402220E+02  0.19861911059E+02 -0.31464173509E+02  0.46236292243E+02  0.00000000000E+00 0.  1.
         11    1    3    3    0    0  0.45682863300E+02  0.15152416072E+02  0.64080992436E+02  0.80142955421E+02  0.00000000000E+00 0. -1.
         21    1    1    2  502  501  0.19789636928E+02 -0.95902880327E+02  0.85062768689E+02  0.12970993332E+03  0.00000000000E+00 0. -1.
<scales pt_clust_5="13000.00000" pt_clust_6="13000.00000" pt_clust_7="13000.00000" pt_clust_8="13000.00000" pt_clust_9="97.92340"></scales>
<clustering>
<clus scale="   91.291">  7  8 -1 -1</clus>
<clus scale="   91.794">  5  6 -1 -1</clus>
<clus scale="   97.923">  2  9  1 -1</clus>
<clus scale="  132.721">  2  7  1 -1</clus>
<clus scale="  133.068">  1  5  2 -1</clus>
</clustering>
</event>
<event>
 9    2  0.2869112E-005  0.9985717E+02  0.7546771E-02  0.1286937E+00
         -1   -1    0    0    0  501 -0.00000000000E+00  0.00000000000E+00  0.30513568896E+02  0.30513568896E+02  0.00000000000E+00 0.  1.
          2   -1    0    0  502    0  0.00000000000E+00 -0.00000000000E+00 -0.45110093979E+03  0.45110093979E+03  0.00000000000E+00 0. -1.
         24    2    1    2    0    0 -0.25949963963E+02  0.86848071642E+01 -0.11490124135E+03  0.14201968312E+03  0.78857267404E+02 0.  0.
         23    2    1    2    0    0  0.46998914835E+02 -0.12529851263E+02 -0.30015147055E+03  0.31749335170E+03  0.91352219109E+02 0.  0.
        -11    1    3    3    0    0  0.45931192656E+00  0.25039712581E+02 -0.22279731359E+01  0.25142832734E+02  0.00000000000E+00 0.  1.
         12    1    3    3    0    0 -0.26409275890E+02 -0.16354905417E+02 -0.11267326822E+03  0.11687685038E+03  0.00000000000E+00 0. -1.
        -13    1    4    4    0    0  0.58774769727E+02  0.24852837596E+02 -0.17065722651E+03  0.18219776633E+03  0.00000000000E+00 0.  1.
         13    1    4    4    0    0 -0.11775854892E+02 -0.37382688859E+02 -0.12949424403E+03  0.13529558538E+03  0.00000000000E+00 0. -1.
         21    1    1    2  502  501 -0.21048950872E+02  0.38450440988E+01 -0.55346589938E+01  0.22101473868E+02  0.00000000000E+00 0. -1.
<scales pt_clust_5="13000.00000" pt_clust_6="13000.00000" pt_clust_7="13000.00000" pt_clust_8="13000.00000" pt_clust_9="21.39726"></scales>
<clustering>
<clus scale="   21.397">  1  9  2 -1</clus>
<clus scale="   78.857">  5  6 -1 -1</clus>
<clus scale="   88.570">  1  5  2 -1</clus>
<clus scale="   91.352">  7  8 -1 -1</clus>
<clus scale="   99.857">  2  5  1 -1</clus>
</clustering>
</event>
<event>
 9    2  0.2869112E-005  0.1069916E+03  0.7546771E-02  0.1267102E+00
         -1   -1    0    0    0  501 -0.00000000000E+00  0.00000000000E+00  0.13467275803E+03  0.13467275803E+03  0.00000000000E+00 0.  1.
          2   -1    0    0  502    0  0.00000000000E+00 -0.00000000000E+00 -0.56048884449E+03  0.56048884449E+03  0.00000000000E+00 0. -1.
         24    2    1    2    0    0  0.26391576295E+02 -0.12302871854E+03  0.45715990215E+02  0.16076400237E+03  0.89008605262E+02 0.  0.
         23    2    1    2    0    0 -0.32225089888E+01  0.51941609380E+02 -0.44155086863E+03  0.45384292552E+03  0.91092898232E+02 0.  0.
        -13    1    3    3    0    0  0.40785870053E+02 -0.10015731518E+03  0.56640959177E+00  0.10814479090E+03  0.00000000000E+00 0.  1.
         14    1    3    3    0    0 -0.14394293758E+02 -0.22871403361E+02  0.45149580623E+02  0.52619211463E+02  0.00000000000E+00 0. -1.
        -11    1    4    4    0    0 -0.19429091734E+02 -0.14023126718E+02 -0.40316706821E+02  0.46899621933E+02  0.00000000000E+00 0.  1.
         11    1    4    4    0    0  0.16206582745E+02  0.65964736097E+02 -0.40123416181E+03  0.40694330359E+03  0.00000000000E+00 0. -1.
         21    1    1    2  502  501 -0.23169067306E+02  0.71087109160E+02 -0.29981208045E+02  0.80554674628E+02  0.00000000000E+00 0. -1.
<scales pt_clust_5="13000.00000" pt_clust_6="13000.00000" pt_clust_7="13000.00000" pt_clust_8="13000.00000" pt_clust_9="74.76752"></scales>
<clustering>
<clus scale="   74.768">  1  9  2 -1</clus>
<clus scale="   89.009">  5  6 -1 -1</clus>
<clus scale="   91.093">  7  8 -1 -1</clus>
<clus scale="  105.223">  1  5  2 -1</clus>
<clus scale="  106.992">  2  5  1 -1</clus>
</clustering>
</event>
<event>
 9    2  0.2869112E-005  0.1105904E+03  0.7546771E-02  0.1260006E+00
          2   -1    0    0  502    0  0.00000000000E+00  0.00000000000E+00  0.11016014653E+04  0.11016014653E+04  0.00000000000E+00 0. -1.
         -1   -1    0    0    0  501 -0.00000000000E+00 -0.00000000000E+00 -0.41428634563E+02  0.41428634563E+02  0.00000000000E+00 0.  1.
         23    2    1    2    0    0 -0.43999081083E+02  0.55755231446E+02  0.52503765867E+02  0.12434020295E+03  0.87517287838E+02 0.  0.
         24    2    1    2    0    0  0.11281947812E+02 -0.33516752329E+02  0.88311544929E+03  0.88800491722E+03  0.86076600738E+02 0.  0.
        -13    1    4    4    0    0  0.24057283217E+02 -0.17004597078E+02  0.91741922707E+02  0.96356056268E+02  0.00000000000E+00 0.  1.
         14    1    4    4    0    0 -0.12775335406E+02 -0.16512155251E+02  0.79137352659E+03  0.79164886095E+03  0.00000000000E+00 0. -1.
        -13    1    3    3    0    0 -0.49207533998E+02  0.75110374557E+02  0.31126105362E+02  0.95035699625E+02  0.00000000000E+00 0.  1.
         13    1    3    3    0    0  0.52084529149E+01 -0.19355143111E+02  0.21377660505E+02  0.29304503328E+02  0.00000000000E+00 0. -1.
         21    1    1    2  502  501  0.32717133271E+02 -0.22238479117E+02  0.12455361555E+03  0.13068497966E+03  0.00000000000E+00 0.  1.
<scales pt_clust_5="13000.00000" pt_clust_6="13000.00000" pt_clust_7="13000.00000" pt_clust_8="13000.00000" pt_clust_9="39.55958"></scales>
<clustering>
<clus scale="   39.560">  1  9  2 -1</clus>
<clus scale="   86.077">  5  6 -1 -1</clus>
<clus scale="   87.517">  7  8 -1 -1</clus>
<clus scale="  109.454">  1  5  2 -1</clus>
<clus scale="   39.560">  1  5  2 -1</clus>
</clustering>
</event>
<event>
 9    2  0.2869112E-005  0.1534793E+03  0.7546771E-02  0.1198251E+00
         -1   -1    0    0    0  501 -0.00000000000E+00  0.00000000000E+00  0.33767357208E+02  0.33767357208E+02  0.00000000000E+00 0.  1.
          2   -1    0    0  502    0  0.00000000000E+00 -0.00000000000E+00 -0.22186244754E+04  0.22186244754E+04  0.00000000000E+00 0. -1.
         23    2    1    2    0    0  0.10237264666E+03 -0.42960553066E+01 -0.14627208145E+03  0.20061396362E+03  0.91388323736E+02 0.  0.
         24    2    1    2    0    0 -0.11996127629E+03 -0.39232758023E+02 -0.18912772797E+04  0.18971696778E+04  0.79956992884E+02 0.  0.
        -11    1    4    4    0    0 -0.27119722252E+02 -0.81588070714E+01 -0.12443896229E+03  0.12762092620E+03  0.00000000000E+00 0.  1.
         12    1    4    4    0    0 -0.92841554038E+02 -0.31073950951E+02 -0.17668383174E+04  0.17695487516E+04  0.00000000000E+00 0. -1.
        -13    1    3    3    0    0  0.65981181740E+02  0.41858359651E+02 -0.76011933937E+02  0.10901125042E+03  0.00000000000E+00 0.  1.
         13    1    3    3    0    0  0.36391464918E+02 -0.46154414957E+02 -0.70260147511E+02  0.91602713209E+02  0.00000000000E+00 0. -1.
         21    1    1    2  502  501  0.17588629633E+02  0.43528813329E+02 -0.14730775708E+03  0.15460819117E+03  0.00000000000E+00 0. -1.
<scales pt_clust_5="13000.00000" pt_clust_6="13000.00000" pt_clust_7="13000.00000" pt_clust_8="13000.00000" pt_clust_9="46.94803"></scales>
<clustering>
<clus scale="   46.948">  1  9  2 -1</clus>
<clus scale="   79.957">  5  6 -1 -1</clus>
<clus scale="   91.388">  7  8 -1 -1</clus>
<clus scale="  146.960">  2  5  1 -1</clus>
<clus scale="  146.960">  2  5  1 -1</clus>
</clustering>
</event>
<event>
 9    2  0.2869112E-005  0.1147093E+03  0.7546771E-02  0.1255499E+00
          2   -1    0    0  502    0  0.00000000000E+00  0.00000000000E+00  0.44083678898E+03  0.44083678898E+03  0.00000000000E+00 0. -1.
         -1   -1    0    0    0  501 -0.00000000000E+00 -0.00000000000E+00 -0.73355424957E+02  0.73355424957E+02  0.00000000000E+00 0.  1.
         23    2    1    2    0    0  0.10829978479E+02 -0.54859897645E+02 -0.99924117207E+01  0.10711677709E+03  0.90814419778E+02 0.  0.
         24    2    1    2    0    0  0.82273226148E+01  0.71877409000E+02  0.36017780643E+03  0.37622212305E+03  0.81123257212E+02 0.  0.
        -11    1    4    4    0    0 -0.31610810776E+02  0.10424308087E+02  0.80397933721E+02  0.87015730208E+02  0.00000000000E+00 0.  1.
         12    1    4    4    0    0  0.39838133391E+02  0.61453100913E+02  0.27977987271E+03  0.28920639284E+03  0.00000000000E+00 0. -1.
        -11    1    3    3    0    0 -0.22501927740E+02  0.10019315087E+02  0.16351017116E+02  0.29564830247E+02  0.00000000000E+00 0.  1.
         11    1    3    3    0    0  0.33331906219E+02 -0.64879212732E+02 -0.26343428837E+02  0.77551946847E+02  0.00000000000E+00 0. -1.
         21    1    1    2  502  501 -0.19057301094E+02 -0.17017511355E+02  0.17295969307E+02  0.30853313792E+02  0.00000000000E+00 0. -1.
<scales pt_clust_5="13000.00000" pt_clust_6="13000.00000" pt_clust_7="13000.00000" pt_clust_8="13000.00000" pt_clust_9="25.54949"></scales>
<clustering>
<clus scale="   25.549">  2  9  1 -1</clus>
<clus scale="   81.123">  5  6 -1 -1</clus>
<clus scale="   90.814">  7  8 -1 -1</clus>
<clus scale="  107.201">  1  5  2 -1</clus>
<clus scale="  107.201">  1  5  2 -1</clus>
</clustering>
</event>
<event>
 9    2  0.2869112E-005  0.9392563E+02  0.7546771E-02  0.1300846E+00
         -1   -1    0    0    0  501 -0.00000000000E+00  0.00000000000E+00  0.41264905559E+02  0.41264905559E+02  0.00000000000E+00 0.  1.
          2   -1    0    0  502    0  0.00000000000E+00 -0.00000000000E+00 -0.30731242050E+03  0.30731242050E+03  0.00000000000E+00 0. -1.
         23    2    1    2    0    0  0.17161583396E+02  0.29496843197E+01 -0.11061240254E+03  0.14571125568E+03  0.93238650000E+02 0.  0.
         24    2    1    2    0    0  0.10885255059E+02 -0.16574040054E+02 -0.14915504090E+03  0.17105903476E+03  0.81368172924E+02 0.  0.
        -13    1    4    4    0    0  0.35900388927E+02  0.11860804837E+02 -0.11115462652E+03  0.11740897586E+03  0.00000000000E+00 0.  1.
         14    1    4    4    0    0 -0.25015133868E+02 -0.28434844891E+02 -0.38000414384E+02  0.53650058898E+02  0.00000000000E+00 0. -1.
        -11    1    3    3    0    0  0.18058424769E+02 -0.27577908012E+02 -0.11035097140E+03  0.11516937355E+03  0.00000000000E+00 0. -1.
         11    1    3    3    0    0 -0.89684137327E+00  0.30527592332E+02 -0.26143114822E+00  0.30541882134E+02  0.00000000000E+00 0.  1.
         21    1    1    2  502  501 -0.28046838454E+02  0.13624355734E+02 -0.62800714888E+01  0.31807035611E+02  0.00000000000E+00 0.  1.
<scales pt_clust_5="13000.00000" pt_clust_6="13000.00000" pt_clust_7="13000.00000" pt_clust_8="13000.00000" pt_clust_9="31.18090"></scales>
<clustering>
<clus scale="   31.181">  1  9  2 -1</clus>
<clus scale="   81.368">  5  6 -1 -1</clus>
<clus scale="   82.154">  2  5  1 -1</clus>
<clus scale="   93.239">  7  8 -1 -1</clus>
<clus scale="   82.154">  2  5  1 -1</clus>
</clustering>
</event>
<event>
 9    2  0.2869112E-005  0.9320742E+02  0.7546771E-02  0.1301843E+00
         -1   -1    0    0    0  501 -0.00000000000E+00  0.00000000000E+00  0.13226203948E+03  0.13226203948E+03  0.00000000000E+00 0.  1.
          2   -1    0    0  502    0  0.00000000000E+00 -0.00000000000E+00 -0.13608717935E+03  0.13608717935E+03  0.00000000000E+00 0. -1.
         23    2    1    2    0    0  0.76066490899E+01  0.26545485832E+02  0.23709895760E+02  0.98825765025E+02  0.91879533887E+02 0.  0.
         24    2    1    2    0    0 -0.13134151160E+02 -0.55165771256E+01 -0.78744676135E+02  0.11388897204E+03  0.81037246889E+02 0.  0.
        -13    1    4    4    0    0 -0.46254491066E+02 -0.95622666394E+01 -0.57159207204E+02  0.74149105559E+02  0.00000000000E+00 0.  1.
         14    1    4    4    0    0  0.33120339905E+02  0.40456895138E+01 -0.21585468931E+02  0.39739866483E+02  0.00000000000E+00 0. -1.
        -11    1    3    3    0    0 -0.17950722854E+02  0.36682902681E+02  0.47375893236E+02  0.62548693512E+02  0.00000000000E+00 0. -1.
         11    1    3    3    0    0  0.25557371944E+02 -0.10137416849E+02 -0.23665997476E+02  0.36277071513E+02  0.00000000000E+00 0.  1.
         21    1    1    2  502  501  0.55275020703E+01 -0.21028908707E+02  0.51209640505E+02  0.55634481764E+02  0.00000000000E+00 0.  1.
<scales pt_clust_5="13000.00000" pt_clust_6="13000.00000" pt_clust_7="13000.00000" pt_clust_8="13000.00000" pt_clust_9="21.74324"></scales>
<clustering>
<clus scale="   21.743">  1  9  2 -1</clus>
<clus scale="   81.037">  5  6 -1 -1</clus>
<clus scale="   82.540">  2  5  1 -1</clus>
<clus scale="   91.880">  7  8 -1 -1</clus>
<clus scale="   82.540">  2  5  1 -1</clus>
</clustering>
</event>
<event>
 9    2  0.2869112E-005  0.1129256E+03  0.7546771E-02  0.1260828E+00
          2   -1    0    0  502    0  0.00000000000E+00  0.00000000000E+00  0.38531574740E+03  0.38531574740E+03  0.00000000000E+00 0. -1.
         -1   -1    0    0    0  501 -0.00000000000E+00 -0.00000000000E+00 -0.16074857034E+03  0.16074857034E+03  0.00000000000E+00 0.  1.
         24    2    1    2    0    0 -0.53061759252E+02  0.55793777295E+02  0.15411019535E+03  0.18860829631E+03  0.76776567039E+02 0.  0.
         23    2    1    2    0    0  0.10378991605E+02 -0.61107238782E+02  0.19580432868E+03  0.22493429145E+03  0.91729396830E+02 0.  0.
        -11    1    3    3    0    0  0.15796468401E+02  0.27074744868E+02  0.66624389442E+02  0.73630017603E+02  0.00000000000E+00 0.  1.
         12    1    3    3    0    0 -0.68858227653E+02  0.28719032427E+02  0.87485805905E+02  0.11497827870E+03  0.00000000000E+00 0. -1.
        -13    1    4    4    0    0 -0.13043660621E+02 -0.67004502324E+02  0.73668312449E+02  0.10043286650E+03  0.00000000000E+00 0.  1.
         13    1    4    4    0    0  0.23422652226E+02  0.58972635416E+01  0.12213601623E+03  0.12450142496E+03  0.00000000000E+00 0. -1.
         21    1    1    2  502  501  0.42682767647E+02  0.53134614872E+01 -0.12534734697E+03  0.13252172999E+03  0.00000000000E+00 0.  1.
<scales pt_clust_5="13000.00000" pt_clust_6="13000.00000" pt_clust_7="13000.00000" pt_clust_8="13000.00000" pt_clust_9="43.01223"></scales>
<clustering>
<clus scale="   43.012">  2  9  1 -1</clus>
<clus scale="   76.777">  5  6 -1 -1</clus>
<clus scale="   91.729">  7  8 -1 -1</clus>
<clus scale="  101.156">  2  5  1 -1</clus>
<clus scale="  112.926">  1  5  2 -1</clus>
</clustering>
</event>
<event>
 9    2  0.2869112E-005  0.1394081E+03  0.7546771E-02  0.1217605E+00
          2   -1    0    0  502    0  0.00000000000E+00  0.00000000000E+00  0.13495752292E+04  0.13495752292E+04  0.00000000000E+00 0. -1.
         -1   -1    0    0    0  501 -0.00000000000E+00 -0.00000000000E+00 -0.43610829569E+02  0.43610829569E+02  0.00000000000E+00 0.  1.
         23    2    1    2    0    0  0.26000432190E+02 -0.12583940782E+03  0.14855724167E+03  0.21878647584E+03  0.96367468196E+02 0.  0.
         24    2    1    2    0    0 -0.35647579318E+02  0.91271962994E+02  0.10951806134E+04  0.11025656179E+04  0.81418944607E+02 0.  0.
        -11    1    4    4    0    0 -0.33958873445E+02  0.20730490302E+02  0.16566558832E+03  0.17037618809E+03  0.00000000000E+00 0.  1.
         12    1    4    4    0    0 -0.16887058729E+01  0.70541472692E+02  0.92951502511E+03  0.93218942979E+03  0.00000000000E+00 0. -1.
        -13    1    3    3    0    0  0.13403702048E+02 -0.89515928004E+02  0.31921527285E+02  0.95977833374E+02  0.00000000000E+00 0.  1.
         13    1    3    3    0    0  0.12596730142E+02 -0.36323479815E+02  0.11663571438E+03  0.12280864247E+03  0.00000000000E+00 0. -1.
         21    1    1    2  502  501  0.96471471283E+01  0.34567444825E+02  0.62226544484E+02  0.71833965002E+02  0.00000000000E+00 0. -1.
<scales pt_clust_5="13000.00000" pt_clust_6="13000.00000" pt_clust_7="13000.00000" pt_clust_8="13000.00000" pt_clust_9="35.88838"></scales>
<clustering>
<clus scale="   35.888">  2  9  1 -1</clus>
<clus scale="   81.419">  5  6 -1 -1</clus>
<clus scale="   96.367">  7  8 -1 -1</clus>
<clus scale="  129.526">  1  5  2 -1</clus>
<clus scale="  129.526">  1  5  2 -1</clus>
</clustering>
</event>
<event>
 9    2  0.2869112E-005  0.1485074E+03  0.7546771E-02  0.1203510E+00
          2   -1    0    0  502    0  0.00000000000E+00  0.00000000000E+00  0.70184977434E+02  0.70184977434E+02  0.00000000000E+00 0. -1.
         -1   -1    0    0    0  501 -0.00000000000E+00 -0.00000000000E+00 -0.42325777079E+03  0.42325777079E+03  0.00000000000E+00 0.  1.
         23    2    1    2    0    0  0.13311247406E+03 -0.46232093804E+02 -0.14568196560E+03  0.22189674455E+03  0.90324929528E+02 0.  0.
         24    2    1    2    0    0 -0.91506959857E+02  0.35444863014E+02 -0.13144223058E+03  0.18427875567E+03  0.83974625906E+02 0.  0.
        -11    1    4    4    0    0 -0.12122861799E+02  0.19610109853E+02 -0.90837719666E+02  0.93717722447E+02  0.00000000000E+00 0.  1.
         12    1    4    4    0    0 -0.79384098058E+02  0.15834753162E+02 -0.40604510913E+02  0.90561033225E+02  0.00000000000E+00 0. -1.
        -13    1    3    3    0    0  0.74352345481E+02 -0.43783692218E+02 -0.13776369124E+03  0.16255496796E+03  0.00000000000E+00 0.  1.
         13    1    3    3    0    0  0.58760128578E+02 -0.24484015854E+01 -0.79182743593E+01  0.59341776597E+02  0.00000000000E+00 0. -1.
         21    1    1    2  502  501 -0.41605514203E+02  0.10787230790E+02 -0.75948597176E+02  0.87267247998E+02  0.00000000000E+00 0.  1.
<scales pt_clust_5="13000.00000" pt_clust_6="13000.00000" pt_clust_7="13000.00000" pt_clust_8="13000.00000" pt_clust_9="42.98120"></scales>
<clustering>
<clus scale="   42.981">  2  9  1 -1</clus>
<clus scale="   83.975">  5  6 -1 -1</clus>
<clus scale="   90.325">  7  8 -1 -1</clus>
<clus scale="  144.733">  1  5  2 -1</clus>
<clus scale="  144.733">  1  5  2 -1</clus>
</clustering>
</event>
<event>
 9    2  0.2869112E-005  0.1256824E+03  0.7546771E-02  0.1237144E+00
         -3   -1    0    0    0  501 -0.00000000000E+00  0.00000000000E+00  0.60594905403E+02  0.60594905403E+02  0.00000000000E+00 0.  1.
          4   -1    0    0  502    0  0.00000000000E+00 -0.00000000000E+00 -0.58393884876E+03  0.58393884876E+03  0.00000000000E+00 0. -1.
         23    2    1    2    0    0  0.36505757529E+02 -0.67613917037E+02 -0.11161055699E+03  0.15898668686E+03  0.83159714145E+02 0.  0.
         24    2    1    2    0    0 -0.19570459725E+02  0.84708127906E+02 -0.43417593076E+03  0.45264290107E+03  0.93906268175E+02 0.  0.
        -13    1    4    4    0    0 -0.22213930916E+02 -0.15537660565E+02 -0.75825885550E+02  0.80526036423E+02  0.00000000000E+00 0.  1.
         14    1    4    4    0    0  0.26434711911E+01  0.10024578847E+03 -0.35835004521E+03  0.37211686464E+03  0.00000000000E+00 0. -1.
        -13    1    3    3    0    0 -0.50429862104E+01 -0.42764072201E+02 -0.68784313992E+01  0.43606311466E+02  0.00000000000E+00 0.  1.
         13    1    3    3    0    0  0.41548743740E+02 -0.24849844836E+02 -0.10473212560E+03  0.11538037540E+03  0.00000000000E+00 0. -1.
         21    1    1    2  502  501 -0.16935297804E+02 -0.17094210869E+02  0.22442544398E+02  0.32904166241E+02  0.00000000000E+00 0.  1.
<scales pt_clust_5="13000.00000" pt_clust_6="13000.00000" pt_clust_7="13000.00000" pt_clust_8="13000.00000" pt_clust_9="24.06276"></scales>
<clustering>
<clus scale="   24.063">  1  9  2 -1</clus>
<clus scale="   83.160">  7  8 -1 -1</clus>
<clus scale="   93.906">  5  6 -1 -1</clus>
<clus scale="  117.869">  1  7  2 -1</clus>
<clus scale="  125.682">  2  5  1 -1</clus>
</clustering>
</event>
<event>
 9    2  0.2869112E-005  0.9620150E+02  0.7546771E-02  0.1295674E+00
         -1   -1    0    0    0  501 -0.00000000000E+00  0.00000000000E+00  0.48639059989E+02  0.48639059989E+02  0.00000000000E+00 0.  1.
          2   -1    0    0  502    0  0.00000000000E+00 -0.00000000000E+00 -0.80889784352E+03  0.80889784352E+03  0.00000000000E+00 0. -1.
         23    2    1    2    0    0 -0.11574970512E+02  0.80240611613E+02 -0.14077466228E+03  0.18661429549E+03  0.91841461489E+02 0.  0.
         24    2    1    2    0    0 -0.10510794592E+02 -0.20953574108E+02 -0.59865596941E+03  0.60431520794E+03  0.79109871453E+02 0.  0.
        -13    1    4    4    0    0  0.12967720182E+02  0.21306377485E+02 -0.90801820275E+02  0.94165248651E+02  0.00000000000E+00 0.  1.
         14    1    4    4    0    0 -0.23478514774E+02 -0.42259951593E+02 -0.50785414914E+03  0.51014995929E+03  0.00000000000E+00 0. -1.
        -13    1    3    3    0    0  0.23515198844E+01  0.24892887541E+02  0.88109041970E+01  0.26510705925E+02  0.00000000000E+00 0.  1.
         13    1    3    3    0    0 -0.13926490396E+02  0.55347724072E+02 -0.14958556648E+03  0.16010358957E+03  0.00000000000E+00 0. -1.
         21    1    1    2  502  501  0.22085765103E+02 -0.59287037506E+02 -0.20828151845E+02  0.66607400082E+02  0.00000000000E+00 0.  1.
<scales pt_clust_5="13000.00000" pt_clust_6="13000.00000" pt_clust_7="13000.00000" pt_clust_8="13000.00000" pt_clust_9="63.26716"></scales>
<clustering>
<clus scale="   63.267">  1  9  2 -1</clus>
<clus scale="   79.110">  5  6 -1 -1</clus>
<clus scale="   84.132">  2  5  1 -1</clus>
<clus scale="   91.841">  7  8 -1 -1</clus>
<clus scale="   84.132">  2  5  1 -1</clus>
</clustering>
</event>
<event>
 9    2  0.2869112E-005  0.9682710E+02  0.7546771E-02  0.1291746E+00
          2   -1    0    0  502    0  0.00000000000E+00  0.00000000000E+00  0.34188519104E+03  0.34188519104E+03  0.00000000000E+00 0. -1.
         -1   -1    0    0    0  501 -0.00000000000E+00 -0.00000000000E+00 -0.79831717093E+02  0.79831717093E+02  0.00000000000E+00 0.  1.
         23    2    1    2    0    0 -0.46250350485E+01 -0.18216170069E+01  0.28382618942E+01  0.89906312148E+02  0.89723909833E+02 0.  0.
         24    2    1    2    0    0  0.40509630583E+02  0.98200491382E+01  0.27655449225E+03  0.29116173683E+03  0.80964845916E+02 0.  0.
        -13    1    4    4    0    0 -0.13380303927E+02 -0.18178645837E+02  0.31871253789E+02  0.39054737430E+02  0.00000000000E+00 0.  1.
         14    1    4    4    0    0  0.53889934510E+02  0.27998694975E+02  0.24468323846E+03  0.25210699940E+03  0.00000000000E+00 0. -1.
        -11    1    3    3    0    0  0.17185869541E+02 -0.13250802899E+02 -0.37103719810E+02  0.42983996011E+02  0.00000000000E+00 0.  1.
         11    1    3    3    0    0 -0.21810904590E+02  0.11429185892E+02  0.39941981704E+02  0.46922316137E+02  0.00000000000E+00 0. -1.
         21    1    1    2  502  501 -0.35884595534E+02 -0.79984321312E+01 -0.17339280196E+02  0.40648859159E+02  0.00000000000E+00 0.  1.
<scales pt_clust_5="13000.00000" pt_clust_6="13000.00000" pt_clust_7="13000.00000" pt_clust_8="13000.00000" pt_clust_9="36.76519"></scales>
<clustering>
<clus scale="   36.765">  2  9  1 -1</clus>
<clus scale="   80.965">  5  6 -1 -1</clus>
<clus scale="   88.772">  1  5  2 -1</clus>
<clus scale="   89.724">  7  8 -1 -1</clus>
<clus scale="   88.772">  1  5  2 -1</clus>
</clustering>
</event>
<event>
 9    2  0.2869112E-005  0.1195259E+03  0.7546771E-02  0.1250264E+00
          2   -1    0    0  502    0  0.00000000000E+00  0.00000000000E+00  0.32779840855E+03  0.32779840855E+03  0.00000000000E+00 0. -1.
         -1   -1    0    0    0  501 -0.00000000000E+00 -0.00000000000E+00 -0.11833496618E+03  0.11833496618E+03  0.00000000000E+00 0.  1.
         23    2    1    2    0    0 -0.39003050657E+01  0.88503078962E+02  0.10234393985E+03  0.16510127600E+03  0.94531169177E+02 0.  0.
         24    2    1    2    0    0 -0.29590665275E+02 -0.62574659744E+02  0.17396634370E+03  0.20189659347E+03  0.75543035414E+02 0.  0.
        -11    1    4    4    0    0 -0.52088179856E+02 -0.35331860193E+02  0.13697228912E+03  0.15074125783E+03  0.00000000000E+00 0.  1.
         12    1    4    4    0    0  0.22497514582E+02 -0.27242799551E+02  0.36994054577E+02  0.51155335634E+02  0.00000000000E+00 0. -1.
        -13    1    3    3    0    0  0.80835636763E+01 -0.18713335913E+02  0.25506546495E+02  0.32651444942E+02  0.00000000000E+00 0. -1.
         13    1    3    3    0    0 -0.11983868742E+02  0.10721641487E+03  0.76837393357E+02  0.13244983105E+03  0.00000000000E+00 0.  1.
         21    1    1    2  502  501  0.33490970340E+02 -0.25928419218E+02 -0.66846841183E+02  0.79135505266E+02  0.00000000000E+00 0.  1.
<scales pt_clust_5="13000.00000" pt_clust_6="13000.00000" pt_clust_7="13000.00000" pt_clust_8="13000.00000" pt_clust_9="42.35479"></scales>
<clustering>
<clus scale="   42.355">  2  9  1 -1</clus>
<clus scale="   75.543">  5  6 -1 -1</clus>
<clus scale="   94.531">  7  8 -1 -1</clus>
<clus scale="  105.153">  1  5  2 -1</clus>
<clus scale="  105.153">  1  5  2 -1</clus>
</clustering>
</event>
<event>
 9    2  0.2869112E-005  0.2086070E+03  0.7546771E-02  0.1142674E+00
          2   -1    0    0  502    0  0.00000000000E+00  0.00000000000E+00  0.72908550504E+03  0.72908550504E+03  0.00000000000E+00 0. -1.
         -1   -1    0    0    0  501 -0.00000000000E+00 -0.00000000000E+00 -0.33624538742E+02  0.33624538742E+02  0.00000000000E+00 0.  1.
         24    2    1    2    0    0 -0.39619643308E+02 -0.70348785764E+02  0.18297893116E+03  0.21567192430E+03  0.80711968674E+02 0.  0.
         23    2    1    2    0    0 -0.92783826979E+01 -0.12510528535E+02  0.20469889385E+03  0.22456774104E+03  0.91029838309E+02 0.  0.
        -13    1    3    3    0    0 -0.44115501752E+02 -0.20123354477E+02  0.14397717936E+03  0.15192285894E+03  0.00000000000E+00 0.  1.
         14    1    3    3    0    0  0.44958584442E+01 -0.50225431287E+02  0.39001751798E+02  0.63749065362E+02  0.00000000000E+00 0. -1.
        -11    1    4    4    0    0 -0.40601512637E+02  0.73844911785E+01  0.46928847171E+02  0.62492641448E+02  0.00000000000E+00 0.  1.
         11    1    4    4    0    0  0.31323129939E+02 -0.19895019714E+02  0.15777004668E+03  0.16207509959E+03  0.00000000000E+00 0. -1.
         21    1    1    2  502  501  0.48898026006E+02  0.82859314300E+02  0.30778314129E+03  0.32247037844E+03  0.00000000000E+00 0. -1.
<scales pt_clust_5="13000.00000" pt_clust_6="13000.00000" pt_clust_7="13000.00000" pt_clust_8="13000.00000" pt_clust_9="96.21166"></scales>
<clustering>
<clus scale="   80.712">  5  6 -1 -1</clus>
<clus scale="   91.030">  7  8 -1 -1</clus>
<clus scale="   91.257">  5  7 -1 -1</clus>
<clus scale="   96.212">  1  9  2 -1</clus>
<clus scale="   96.212">  1  5  2 -1</clus>
</clustering>
</event>
<event>
 9    2  0.2869112E-005  0.1259266E+03  0.7546771E-02  0.1236414E+00
         -1   -1    0    0    0  501 -0.00000000000E+00  0.00000000000E+00  0.37945821200E+02  0.37945821200E+02  0.00000000000E+00 0.  1.
          2   -1    0    0  502    0  0.00000000000E+00 -0.00000000000E+00 -0.50093177788E+03  0.50093177788E+03  0.00000000000E+00 0. -1.
         24    2    1    2    0    0  0.56197873441E+02  0.55224376554E+02 -0.17356249286E+03  0.20769508221E+03  0.82494699840E+02 0.  0.
         23    2    1    2    0    0 -0.50035999917E+02 -0.78038823853E+02 -0.27201974683E+03  0.30183363178E+03  0.92277512394E+02 0.  0.
        -11    1    3    3    0    0  0.63406701024E+02  0.99804193123E+01 -0.12740433956E+03  0.14266003029E+03  0.00000000000E+00 0.  1.
         12    1    3    3    0    0 -0.72088275822E+01  0.45243957242E+02 -0.46158153301E+02  0.65035051920E+02  0.00000000000E+00 0. -1.
        -13    1    4    4    0    0 -0.32942361260E+01 -0.83598935381E+02 -0.17862510847E+03  0.19724746732E+03  0.00000000000E+00 0.  1.
         13    1    4    4    0    0 -0.46741763791E+02  0.55601115278E+01 -0.93394638354E+02  0.10458616446E+03  0.00000000000E+00 0. -1.
         21    1    1    2  502  501 -0.61618735244E+01  0.22814447299E+02 -0.17403717000E+02  0.29348885094E+02  0.00000000000E+00 0.  1.
<scales pt_clust_5="13000.00000" pt_clust_6="13000.00000" pt_clust_7="13000.00000" pt_clust_8="13000.00000" pt_clust_9="23.63192"></scales>
<clustering>
<clus scale="   23.632">  1  9  2 -1</clus>
<clus scale="   82.495">  5  6 -1 -1</clus>
<clus scale="   92.278">  7  8 -1 -1</clus>
<clus scale="  118.944">  1  5  2 -1</clus>
<clus scale="  125.927">  2  5  1 -1</clus>
</clustering>
</event>
<event>
 9    2  0.2869112E-005  0.9548940E+02  0.7546771E-02  0.1295290E+00
         -1   -1    0    0    0  501 -0.00000000000E+00  0.00000000000E+00  0.55396687940E+02  0.55396687940E+02  0.00000000000E+00 0.  1.
          2   -1    0    0  502    0  0.00000000000E+00 -0.00000000000E+00 -0.49704897032E+03  0.49704897032E+03  0.00000000000E+00 0. -1.
         23    2    1    2    0    0  0.47427704155E+02  0.22024683190E+02 -0.95534594250E+02  0.14219859649E+03  0.91428159526E+02 0.  0.
         24    2    1    2    0    0  0.72671132271E+01 -0.28628786471E+02 -0.34422608318E+03  0.35512251734E+03  0.82146135842E+02 0.  0.
        -13    1    4    4    0    0 -0.37316448307E+02 -0.84278612502E+01 -0.14296960154E+03  0.14799950379E+03  0.00000000000E+00 0.  1.
         14    1    4    4    0    0  0.44583561534E+02 -0.20200925221E+02 -0.20125648164E+03  0.20712301355E+03  0.00000000000E+00 0. -1.
        -11    1    3    3    0    0 -0.26856260164E+02  0.31656525300E+01 -0.14587851250E+02  0.30725973867E+02  0.00000000000E+00 0. -1.
         11    1    3    3    0    0  0.74283964319E+02  0.18859030660E+02 -0.80946742999E+02  0.11147262262E+03  0.00000000000E+00 0.  1.
         21    1    1    2  502  501 -0.54694817382E+02  0.66041032816E+01 -0.18916049486E+01  0.55124544424E+02  0.00000000000E+00 0. -1.
<scales pt_clust_5="13000.00000" pt_clust_6="13000.00000" pt_clust_7="13000.00000" pt_clust_8="13000.00000" pt_clust_9="55.09208"></scales>
<clustering>
<clus scale="   55.092">  1  9  2 -1</clus>
<clus scale="   82.146">  5  6 -1 -1</clus>
<clus scale="   86.644">  2  5  1 -1</clus>
<clus scale="   91.428">  7  8 -1 -1</clus>
<clus scale="   86.644">  2  5  1 -1</clus>
</clustering>
</event>
<event>
 9    2  0.2869112E-005  0.9440238E+02  0.7546771E-02  0.1297795E+00
         -1   -1    0    0    0  501 -0.00000000000E+00  0.00000000000E+00  0.11799493801E+03  0.11799493801E+03  0.00000000000E+00 0.  1.
          2   -1    0    0  502    0  0.00000000000E+00 -0.00000000000E+00 -0.24922586045E+03  0.24922586045E+03  0.00000000000E+00 0. -1.
         23    2    1    2    0    0 -0.37377839066E+02 -0.15434388050E+02  0.36835976232E+02  0.10532589784E+03  0.90007402041E+02 0.  0.
         24    2    1    2    0    0  0.14206206533E+02  0.23968196196E+02 -0.20235625888E+03  0.21963959731E+03  0.80729216922E+02 0.  0.
        -11    1    4    4    0    0  0.22416002901E+02 -0.25916069205E+02 -0.69454600587E+02  0.77447152122E+02  0.00000000000E+00 0.  1.
         12    1    4    4    0    0 -0.82097963684E+01  0.49884265401E+02 -0.13290165829E+03  0.14219244518E+03  0.00000000000E+00 0. -1.
        -13    1    3    3    0    0  0.22833335857E+02 -0.13914310445E+02  0.36310209931E+02  0.45093243471E+02  0.00000000000E+00 0.  1.
         13    1    3    3    0    0 -0.60211174923E+02 -0.15200776054E+01  0.52576630084E+00  0.60232654364E+02  0.00000000000E+00 0. -1.
         21    1    1    2  502  501  0.23171632532E+02 -0.85338081465E+01  0.34289360199E+02  0.42255303318E+02  0.00000000000E+00 0.  1.
<scales pt_clust_5="13000.00000" pt_clust_6="13000.00000" pt_clust_7="13000.00000" pt_clust_8="13000.00000" pt_clust_9="24.69313"></scales>
<clustering>
<clus scale="   24.693">  1  9  2 -1</clus>
<clus scale="   80.729">  5  6 -1 -1</clus>
<clus scale="   85.602">  2  5  1 -1</clus>
<clus scale="   90.007">  7  8 -1 -1</clus>
<clus scale="   85.602">  2  5  1 -1</clus>
</clustering>
</event>
<event>
 9    2  0.2869112E-005  0.9355219E+02  0.7546771E-02  0.1300651E+00
         -3   -1    0    0    0  501 -0.00000000000E+00  0.00000000000E+00  0.12719520285E+03  0.12719520285E+03  0.00000000000E+00 0.  1.
          4   -1    0    0  502    0  0.00000000000E+00 -0.00000000000E+00 -0.60943010365E+03  0.60943010365E+03  0.00000000000E+00 0. -1.
         23    2    1    2    0    0 -0.21001873200E+02 -0.59974482207E+01  0.40610470995E+02  0.10401130194E+03  0.93231392317E+02 0.  0.
         24    2    1    2    0    0 -0.41605226957E+01  0.71169690578E+01 -0.57163864896E+03  0.57770331898E+03  0.83080795483E+02 0.  0.
        -11    1    4    4    0    0  0.17730870388E+02 -0.18001402550E+02 -0.61644353199E+02  0.66621772265E+02  0.00000000000E+00 0.  1.
         12    1    4    4    0    0 -0.21891393084E+02  0.25118371607E+02 -0.50999429576E+03  0.51108154671E+03  0.00000000000E+00 0. -1.
        -11    1    3    3    0    0  0.34006953872E+02 -0.10663198517E+02  0.27672793830E+00  0.35640612966E+02  0.00000000000E+00 0.  1.
         11    1    3    3    0    0 -0.55008827071E+02  0.46657502961E+01  0.40333743057E+02  0.68370688972E+02  0.00000000000E+00 0. -1.
         21    1    1    2  502  501  0.25162395895E+02 -0.11195208371E+01  0.48793277172E+02  0.54910685584E+02  0.00000000000E+00 0.  1.
<scales pt_clust_5="13000.00000" pt_clust_6="13000.00000" pt_clust_7="13000.00000" pt_clust_8="13000.00000" pt_clust_9="25.18729"></scales>
<clustering>
<clus scale="   25.187">  1  9  2 -1</clus>
<clus scale="   83.081">  5  6 -1 -1</clus>
<clus scale="   83.441">  2  5  1 -1</clus>
<clus scale="   93.231">  7  8 -1 -1</clus>
<clus scale="   83.441">  2  5  1 -1</clus>
</clustering>
</event>
<event>
 9    2  0.2869112E-005  0.1396032E+03  0.7546771E-02  0.1216924E+00
         -1   -1    0    0    0  501 -0.00000000000E+00  0.00000000000E+00  0.38597792542E+03  0.38597792542E+03  0.00000000000E+00 0.  1.
          2   -1    0    0  502    0  0.00000000000E+00 -0.00000000000E+00 -0.17061367097E+03  0.17061367097E+03  0.00000000000E+00 0. -1.
         24    2    1    2    0    0  0.89548797878E+02 -0.57294780656E+02  0.15665068010E+03  0.20595441759E+03  0.81093202274E+02 0.  0.
         23    2    1    2    0    0 -0.97203003479E+02  0.32591069140E+02 -0.11144035072E+03  0.17852901967E+03  0.94567739854E+02 0.  0.
        -11    1    3    3    0    0  0.73606840516E+02 -0.74693976724E+02  0.14673847787E+03  0.18035891444E+03  0.00000000000E+00 0.  1.
         12    1    3    3    0    0  0.15941957362E+02  0.17399196068E+02  0.99122022327E+01  0.25595503149E+02  0.00000000000E+00 0. -1.
        -11    1    4    4    0    0 -0.39345223261E+02  0.62583963176E+02 -0.52615999741E+02  0.90737216560E+02  0.00000000000E+00 0.  1.
         11    1    4    4    0    0 -0.57857780217E+02 -0.29992894036E+02 -0.58824350981E+02  0.87791803107E+02  0.00000000000E+00 0. -1.
         21    1    1    2  502  501  0.76542056007E+01  0.24703711516E+02  0.17015392507E+03  0.17210815914E+03  0.00000000000E+00 0.  1.
<scales pt_clust_5="13000.00000" pt_clust_6="13000.00000" pt_clust_7="13000.00000" pt_clust_8="13000.00000" pt_clust_9="25.86233"></scales>
<clustering>
<clus scale="   25.862">  1  9  2 -1</clus>
<clus scale="   81.093">  5  6 -1 -1</clus>
<clus scale="   94.568">  7  8 -1 -1</clus>
<clus scale="  130.851">  1  5  2 -1</clus>
<clus scale="  139.603">  2  5  1 -1</clus>
</clustering>
</event>
<event>
 9    2  0.2869112E-005  0.1212740E+03  0.7546771E-02  0.1243435E+00
          4   -1    0    0  502    0  0.00000000000E+00  0.00000000000E+00  0.36916988866E+03  0.36916988866E+03  0.00000000000E+00 0. -1.
         -3   -1    0    0    0  501 -0.00000000000E+00 -0.00000000000E+00 -0.93832338683E+02  0.93832338683E+02  0.00000000000E+00 0.  1.
         24    2    1    2    0    0 -0.98634077448E+01  0.61030998026E+02  0.68273192001E+01  0.10463951937E+03  0.84147175789E+02 0.  0.
         23    2    1    2    0    0 -0.78844572782E+02 -0.56112696951E+02  0.21947556490E+03  0.25688515404E+03  0.91953017150E+02 0.  0.
        -11    1    3    3    0    0  0.36924250322E+02  0.29860300726E+02 -0.29362660009E+01  0.47577930591E+02  0.00000000000E+00 0.  1.
         12    1    3    3    0    0 -0.46787658067E+02  0.31170697300E+02  0.97635852010E+01  0.57061588775E+02  0.00000000000E+00 0. -1.
        -13    1    4    4    0    0 -0.58842517670E+02 -0.13318325504E+02  0.19410574583E+03  0.20326549202E+03  0.00000000000E+00 0. -1.
         13    1    4    4    0    0 -0.20002055112E+02 -0.42794371447E+02  0.25369819070E+02  0.53619662027E+02  0.00000000000E+00 0.  1.
         21    1    1    2  502  501  0.88707980527E+02 -0.49183010754E+01  0.49034665873E+02  0.10147755393E+03  0.00000000000E+00 0.  1.
<scales pt_clust_5="13000.00000" pt_clust_6="13000.00000" pt_clust_7="13000.00000" pt_clust_8="13000.00000" pt_clust_9="88.84422"></scales>
<clustering>
<clus scale="   84.147">  5  6 -1 -1</clus>
<clus scale="   88.844">  2  9  1 -1</clus>
<clus scale="   91.953">  7  8 -1 -1</clus>
<clus scale="  115.468">  2  5  1 -1</clus>
<clus scale="  121.274">  1  5  2 -1</clus>
</clustering>
</event>
<event>
 9    2  0.2869112E-005  0.1778646E+03  0.7546771E-02  0.1191236E+00
          2   -1    0    0  502    0  0.00000000000E+00  0.00000000000E+00  0.23443900085E+04  0.23443900085E+04  0.00000000000E+00 0. -1.
         -1   -1    0    0    0  501 -0.00000000000E+00 -0.00000000000E+00 -0.21107169336E+03  0.21107169336E+03  0.00000000000E+00 0.  1.
         23    2    1    2    0    0  0.65702083533E+02  0.16452083796E+03 -0.10787290252E+03  0.22601438921E+03  0.89789036794E+02 0.  0.
         24    2    1    2    0    0  0.16890281955E+02 -0.73006056572E+02  0.21950667108E+04  0.21978269336E+04  0.80685806535E+02 0.  0.
        -13    1    4    4    0    0  0.12838803498E+02 -0.15465493142E+02  0.10178853754E+03  0.10375414559E+03  0.00000000000E+00 0.  1.
         14    1    4    4    0    0  0.40514784575E+01 -0.57540563429E+02  0.20932781733E+04  0.20940727880E+04  0.00000000000E+00 0. -1.
        -13    1    3    3    0    0  0.85817996491E+02  0.11698496412E+03 -0.92857743700E+02  0.17225786170E+03  0.00000000000E+00 0.  1.
         13    1    3    3    0    0 -0.20115912958E+02  0.47535873833E+02 -0.15015158819E+02  0.53756527507E+02  0.00000000000E+00 0. -1.
         21    1    1    2  502  501 -0.82592365488E+02 -0.91514781386E+02  0.46124506893E+02  0.13162037907E+03  0.00000000000E+00 0. -1.
<scales pt_clust_5="13000.00000" pt_clust_6="13000.00000" pt_clust_7="13000.00000" pt_clust_8="13000.00000" pt_clust_9="153.53739"></scales>
<clustering>
<clus scale="   80.686">  5  6 -1 -1</clus>
<clus scale="   89.789">  7  8 -1 -1</clus>
<clus scale="  110.115">  1  5  2 -1</clus>
<clus scale="  153.537">  1  9  2 -1</clus>
<clus scale="  110.115">  1  5  2 -1</clus>
</clustering>
</event>
<event>
 9    2  0.2869112E-005  0.1285916E+03  0.7546771E-02  0.1232101E+00
          4   -1    0    0  502    0  0.00000000000E+00  0.00000000000E+00  0.67041703943E+02  0.67041703943E+02  0.00000000000E+00 0. -1.
         -3   -1    0    0    0  501 -0.00000000000E+00 -0.00000000000E+00 -0.58720294002E+03  0.58720294002E+03  0.00000000000E+00 0.  1.
         23    2    1    2    0    0  0.16144880152E+02 -0.11797965332E+03 -0.42261992789E+03  0.44856157985E+03  0.91760730809E+02 0.  0.
         24    2    1    2    0    0 -0.35898213628E+02  0.77995187988E+02 -0.26589339117E+02  0.12187892599E+03  0.82313720328E+02 0.  0.
        -11    1    4    4    0    0  0.25692451384E+02  0.19094425166E+02  0.17776484354E+01  0.32060242740E+02  0.00000000000E+00 0.  1.
         12    1    4    4    0    0 -0.61590665012E+02  0.58900762822E+02 -0.28366987553E+02  0.89818683248E+02  0.00000000000E+00 0. -1.
        -13    1    3    3    0    0 -0.37986619358E+02 -0.56262325050E+02 -0.20670536628E+03  0.21756732503E+03  0.00000000000E+00 0.  1.
         13    1    3    3    0    0  0.54131499510E+02 -0.61717328273E+02 -0.21591456161E+03  0.23099425483E+03  0.00000000000E+00 0. -1.
         21    1    1    2  502  501  0.19753333476E+02  0.39984465334E+02 -0.70951969076E+02  0.83804138127E+02  0.00000000000E+00 0.  1.
<scales pt_clust_5="13000.00000" pt_clust_6="13000.00000" pt_clust_7="13000.00000" pt_clust_8="13000.00000" pt_clust_9="44.59766"></scales>
<clustering>
<clus scale="   44.598">  2  9  1 -1</clus>
<clus scale="   82.314">  5  6 -1 -1</clus>
<clus scale="   91.761">  7  8 -1 -1</clus>
<clus scale="  122.030">  1  5  2 -1</clus>
<clus scale="  122.030">  1  5  2 -1</clus>
</clustering>
</event>
<event>
 9    2  0.2869112E-005  0.1134941E+03  0.7546771E-02  0.1257953E+00
          2   -1    0    0  502    0  0.00000000000E+00  0.00000000000E+00  0.19536772569E+03  0.19536772569E+03  0.00000000000E+00 0. -1.
         -1   -1    0    0    0  501 -0.00000000000E+00 -0.00000000000E+00 -0.10712948593E+03  0.10712948593E+03  0.00000000000E+00 0.  1.
         24    2    1    2    0    0  0.15236375430E+01 -0.82360155557E+02  0.57937849032E+02  0.13079480539E+03  0.83456396238E+02 0.  0.
         23    2    1    2    0    0 -0.11034018102E+02  0.49018383483E+02  0.63555811647E+02  0.12366029840E+03  0.93423641183E+02 0.  0.
        -13    1    3    3    0    0  0.35195026087E+02 -0.87018781081E+01  0.16856822684E+02  0.39982058662E+02  0.00000000000E+00 0.  1.
         14    1    3    3    0    0 -0.33671388544E+02 -0.73658277449E+02  0.41081026348E+02  0.90812746732E+02  0.00000000000E+00 0. -1.
        -11    1    4    4    0    0 -0.33368704953E+02  0.42449231406E+02  0.79024283466E+02  0.95709169334E+02  0.00000000000E+00 0. -1.
         11    1    4    4    0    0  0.22334686851E+02  0.65691520765E+01 -0.15468471819E+02  0.27951129068E+02  0.00000000000E+00 0.  1.
         21    1    1    2  502  501  0.95103805587E+01  0.33341772074E+02 -0.33255420924E+02  0.48042107825E+02  0.00000000000E+00 0. -1.
<scales pt_clust_5="13000.00000" pt_clust_6="13000.00000" pt_clust_7="13000.00000" pt_clust_8="13000.00000" pt_clust_9="34.67162"></scales>
<clustering>
<clus scale="   34.672">  2  9  1 -1</clus>
<clus scale="   83.456">  5  6 -1 -1</clus>
<clus scale="   93.424">  7  8 -1 -1</clus>
<clus scale="  105.441">  2  5  1 -1</clus>
<clus scale="  113.494">  1  5  2 -1</clus>
</clustering>
</event>
<event>
 9    2  0.2869112E-005  0.1315972E+03  0.7546771E-02  0.1228043E+00
         -1   -1    0    0    0  501 -0.00000000000E+00  0.00000000000E+00  0.10346313156E+03  0.10346313156E+03  0.00000000000E+00 0.  1.
          2   -1    0    0  502    0  0.00000000000E+00 -0.00000000000E+00 -0.64891159061E+03  0.64891159061E+03  0.00000000000E+00 0. -1.
         23    2    1    2    0    0 -0.43194842056E+02 -0.88053590059E+02  0.16500988827E+02  0.13562901183E+03  0.92215601260E+02 0.  0.
         24    2    1    2    0    0  0.77489685380E+02  0.54127062001E+02 -0.55410229197E+03  0.56787114190E+03  0.80708696259E+02 0.  0.
        -13    1    4    4    0    0  0.57865468432E+02  0.13260045892E+02 -0.15136471502E+03  0.16259003108E+03  0.00000000000E+00 0.  1.
         14    1    4    4    0    0  0.19624216948E+02  0.40867016109E+02 -0.40273757695E+03  0.40528111082E+03  0.00000000000E+00 0. -1.
        -11    1    3    3    0    0 -0.14624766742E+02 -0.26185416510E+02  0.51062543828E+02  0.59219449695E+02  0.00000000000E+00 0.  1.
         11    1    3    3    0    0 -0.28570075314E+02 -0.61868173549E+02 -0.34561555001E+02  0.76409562136E+02  0.00000000000E+00 0. -1.
         21    1    1    2  502  501 -0.34294843325E+02  0.33926528058E+02 -0.78471559072E+01  0.48874568444E+02  0.00000000000E+00 0. -1.
<scales pt_clust_5="13000.00000" pt_clust_6="13000.00000" pt_clust_7="13000.00000" pt_clust_8="13000.00000" pt_clust_9="48.24050"></scales>
<clustering>
<clus scale="   48.240">  1  9  2 -1</clus>
<clus scale="   80.709">  5  6 -1 -1</clus>
<clus scale="   92.216">  7  8 -1 -1</clus>
<clus scale="  123.806">  2  5  1 -1</clus>
<clus scale="  123.806">  2  5  1 -1</clus>
</clustering>
</event>
<event>
 9    2  0.2869112E-005  0.1044921E+03  0.7546771E-02  0.1277125E+00
         -1   -1    0    0    0  501 -0.00000000000E+00  0.00000000000E+00  0.21786000637E+02  0.21786000637E+02  0.00000000000E+00 0.  1.
          2   -1    0    0  502    0  0.00000000000E+00 -0.00000000000E+00 -0.91328412214E+03  0.91328412214E+03  0.00000000000E+00 0. -1.
         23    2    1    2    0    0  0.52505040156E+01  0.32391683777E+02 -0.21477498505E+03  0.23639351334E+03  0.93149396004E+02 0.  0.
         24    2    1    2    0    0  0.17098506117E+02 -0.50271483844E+02 -0.65680297036E+03  0.66380572586E+03  0.80176797204E+02 0.  0.
        -11    1    4    4    0    0 -0.20141533227E+02  0.42476838682E+01 -0.61518247264E+02  0.64870786379E+02  0.00000000000E+00 0.  1.
         12    1    4    4    0    0  0.37240039344E+02 -0.54519167712E+02 -0.59528472310E+03  0.59893493948E+03  0.00000000000E+00 0. -1.
        -13    1    3    3    0    0 -0.33854680973E+02  0.42748990312E+02 -0.90069431619E+02  0.10529063638E+03  0.00000000000E+00 0.  1.
         13    1    3    3    0    0  0.39105184988E+02 -0.10357306536E+02 -0.12470555343E+03  0.13110287696E+03  0.00000000000E+00 0. -1.
         21    1    1    2  502  501 -0.22349010132E+02  0.17879800067E+02 -0.19920166094E+02  0.34870883579E+02  0.00000000000E+00 0.  1.
<scales pt_clust_5="13000.00000" pt_clust_6="13000.00000" pt_clust_7="13000.00000" pt_clust_8="13000.00000" pt_clust_9="28.62107"></scales>
<clustering>
<clus scale="   28.621">  1  9  2 -1</clus>
<clus scale="   80.177">  5  6 -1 -1</clus>
<clus scale="   93.113">  2  5  1 -1</clus>
<clus scale="   93.149">  7  8 -1 -1</clus>
<clus scale="   93.113">  2  5  1 -1</clus>
</clustering>
</event>
<event>
 9    2  0.2869112E-005  0.1100758E+03  0.7546771E-02  0.1263621E+00
         -1   -1    0    0    0  501 -0.00000000000E+00  0.00000000000E+00  0.54100700755E+03  0.54100700755E+03  0.00000000000E+00 0.  1.
          2   -1    0    0  502    0  0.00000000000E+00 -0.00000000000E+00 -0.13199659681E+03  0.13199659681E+03  0.00000000000E+00 0. -1.
         23    2    1    2    0    0 -0.65541535606E+02  0.51964444988E+01  0.77509541884E+02  0.13508856730E+03  0.88985931513E+02 0.  0.
         24    2    1    2    0    0  0.44981746077E+02  0.54682598813E+02 -0.72181058721E+02  0.12929870917E+03  0.80588503282E+02 0.  0.
        -13    1    4    4    0    0  0.25119578857E+02 -0.49346603189E+01  0.85539592461E+01  0.26991004672E+02  0.00000000000E+00 0.  1.
         14    1    4    4    0    0  0.19862167221E+02  0.59617259132E+02 -0.80735017968E+02  0.10230770450E+03  0.00000000000E+00 0. -1.
        -13    1    3    3    0    0  0.93000026934E+01 -0.26829843994E+02  0.27609982750E+02  0.39606081936E+02  0.00000000000E+00 0.  1.
         13    1    3    3    0    0 -0.74841538300E+02  0.32026288493E+02  0.49899559134E+02  0.95482485365E+02  0.00000000000E+00 0. -1.
         21    1    1    2  502  501  0.20559789529E+02 -0.59879043312E+02  0.40368192757E+03  0.40861632789E+03  0.00000000000E+00 0.  1.
<scales pt_clust_5="13000.00000" pt_clust_6="13000.00000" pt_clust_7="13000.00000" pt_clust_8="13000.00000" pt_clust_9="63.31038"></scales>
<clustering>
<clus scale="   63.310">  1  9  2 -1</clus>
<clus scale="   80.589">  5  6 -1 -1</clus>
<clus scale="   88.986">  7  8 -1 -1</clus>
<clus scale="  103.405">  2  5  1 -1</clus>
<clus scale="  103.405">  2  5  1 -1</clus>
</clustering>
</event>
<event>
 9    2  0.2869112E-005  0.9290086E+02  0.7546771E-02  0.1303763E+00
          2   -1    0    0  502    0  0.00000000000E+00  0.00000000000E+00  0.58911643067E+03  0.58911643067E+03  0.00000000000E+00 0. -1.
         -1   -1    0    0    0  501 -0.00000000000E+00 -0.00000000000E+00 -0.36304650824E+02  0.36304650824E+02  0.00000000000E+00 0.  1.
         23    2    1    2    0    0 -0.30785969280E+02 -0.51477211961E+02  0.16069507695E+03  0.19505650465E+03  0.92878700442E+02 0.  0.
         24    2    1    2    0    0 -0.14290794502E+02 -0.18946821730E+02  0.26712689934E+03  0.27998535571E+03  0.80447561803E+02 0.  0.
        -13    1    4    4    0    0  0.33538395558E+02 -0.40682632727E+01  0.10821073263E+03  0.11336197510E+03  0.00000000000E+00 0.  1.
         14    1    4    4    0    0 -0.47829190061E+02 -0.14878558458E+02  0.15891616671E+03  0.16662338061E+03  0.00000000000E+00 0. -1.
        -11    1    3    3    0    0 -0.32411141052E+02  0.48493007652E+01  0.12292671696E+03  0.12722018521E+03  0.00000000000E+00 0. -1.
         11    1    3    3    0    0  0.16251717728E+01 -0.56326512726E+02  0.37768359988E+02  0.67836319441E+02  0.00000000000E+00 0.  1.
         21    1    1    2  502  501  0.45076763782E+02  0.70424033691E+02  0.12498980355E+03  0.15037922113E+03  0.00000000000E+00 0. -1.
<scales pt_clust_5="13000.00000" pt_clust_6="13000.00000" pt_clust_7="13000.00000" pt_clust_8="13000.00000" pt_clust_9="83.61495"></scales>
<clustering>
<clus scale="   80.448">  5  6 -1 -1</clus>
<clus scale="   83.615">  2  9  1 -1</clus>
<clus scale="   80.473">  1  5  2 -1</clus>
<clus scale="   92.879">  7  8 -1 -1</clus>
<clus scale="   80.473">  1  5  2 -1</clus>
</clustering>
</event>
<event>
 9    2  0.2869112E-005  0.1367544E+03  0.7546771E-02  0.1223034E+00
          2   -1    0    0  502    0  0.00000000000E+00  0.00000000000E+00  0.53487544937E+03  0.53487544937E+03  0.00000000000E+00 0. -1.
         -1   -1    0    0    0  501 -0.00000000000E+00 -0.00000000000E+00 -0.12316004808E+03  0.12316004808E+03  0.00000000000E+00 0.  1.
         23    2    1    2    0    0  0.29787419434E+02  0.83078894801E+02 -0.68078062617E+02  0.15337074693E+03  0.10534975218E+03 0.  0.
         24    2    1    2    0    0 -0.67887110714E+01 -0.77692647435E+02  0.45816806307E+03  0.47263960089E+03  0.85953384188E+02 0.  0.
        -13    1    4    4    0    0 -0.12722630704E+02 -0.18277502172E+02  0.18545338572E+02  0.28980372676E+02  0.00000000000E+00 0.  1.
         14    1    4    4    0    0  0.59339196329E+01 -0.59415145263E+02  0.43962272450E+03  0.44365922822E+03  0.00000000000E+00 0. -1.
        -13    1    3    3    0    0  0.89504220884E+01  0.96811207173E+02 -0.79818801620E+02  0.12579173654E+03  0.00000000000E+00 0.  1.
         13    1    3    3    0    0  0.20836997345E+02 -0.13732312372E+02  0.11740739004E+02  0.27579010385E+02  0.00000000000E+00 0. -1.
         21    1    1    2  502  501 -0.22998708363E+02 -0.53862473663E+01  0.21625400845E+02  0.32025149629E+02  0.00000000000E+00 0. -1.
<scales pt_clust_5="13000.00000" pt_clust_6="13000.00000" pt_clust_7="13000.00000" pt_clust_8="13000.00000" pt_clust_9="23.62101"></scales>
<clustering>
<clus scale="   23.621">  1  9  2 -1</clus>
<clus scale="   85.953">  5  6 -1 -1</clus>
<clus scale="  105.350">  7  8 -1 -1</clus>
<clus scale="  122.438">  1  5  2 -1</clus>
<clus scale="   23.621">  1  5  2 -1</clus>
</clustering>
</event>
<event>
 9    2  0.2869112E-005  0.1234791E+03  0.7546771E-02  0.1249654E+00
         -1   -1    0    0    0  501 -0.00000000000E+00  0.00000000000E+00  0.26963413738E+02  0.26963413738E+02  0.00000000000E+00 0.  1.
          2   -1    0    0  502    0  0.00000000000E+00 -0.00000000000E+00 -0.72066850807E+03  0.72066850807E+03  0.00000000000E+00 0. -1.
         23    2    1    2    0    0  0.62439043899E+02 -0.16002857366E+02 -0.27314775014E+03  0.30163193624E+03  0.11053237493E+03 0.  0.
         24    2    1    2    0    0 -0.52085189308E+02 -0.92748979576E+01 -0.40157234695E+03  0.41273442771E+03  0.79312466257E+02 0.  0.
        -11    1    4    4    0    0 -0.20699516811E+02 -0.32992785638E+02 -0.82338610174E+02  0.91085896964E+02  0.00000000000E+00 0.  1.
         12    1    4    4    0    0 -0.31385672497E+02  0.23717887681E+02 -0.31923373678E+03  0.32164853074E+03  0.00000000000E+00 0. -1.
        -11    1    3    3    0    0  0.10391153665E+02 -0.24484554565E+02 -0.34431923056E+01  0.26820236016E+02  0.00000000000E+00 0. -1.
         11    1    3    3    0    0  0.52047890234E+02  0.84816971982E+01 -0.26970455783E+03  0.27481170022E+03  0.00000000000E+00 0.  1.
         21    1    1    2  502  501 -0.10353854591E+02  0.25277755324E+02 -0.18984997241E+02  0.33265557854E+02  0.00000000000E+00 0. -1.
<scales pt_clust_5="13000.00000" pt_clust_6="13000.00000" pt_clust_7="13000.00000" pt_clust_8="13000.00000" pt_clust_9="27.31606"></scales>
<clustering>
<clus scale="   27.316">  1  9  2 -1</clus>
<clus scale="   79.312">  5  6 -1 -1</clus>
<clus scale="   96.541">  2  5  1 -1</clus>
<clus scale="  110.532">  7  8 -1 -1</clus>
<clus scale="   96.541">  2  5  1 -1</clus>
</clustering>
</event>
<event>
 9    2  0.2869112E-005  0.1346422E+03  0.7546771E-02  0.1221793E+00
         -1   -1    0    0    0  501 -0.00000000000E+00  0.00000000000E+00  0.40911429976E+02  0.40911429976E+02  0.00000000000E+00 0.  1.
          2   -1    0    0  502    0  0.00000000000E+00 -0.00000000000E+00 -0.13888997140E+04  0.13888997140E+04  0.00000000000E+00 0. -1.
         23    2    1    2    0    0 -0.39879222339E+02  0.10206477511E+03 -0.11296969005E+03  0.18179248456E+03  0.90987833691E+02 0.  0.
         24    2    1    2    0    0  0.20032664687E+02 -0.96256815556E+02 -0.12016232370E+04  0.12087392995E+04  0.86519410344E+02 0.  0.
        -13    1    4    4    0    0  0.90630811279E+01 -0.49428053019E+02 -0.20918571493E+03  0.21513701493E+03  0.00000000000E+00 0.  1.
         14    1    4    4    0    0  0.10969583560E+02 -0.46828762536E+02 -0.99243752204E+03  0.99360228458E+03  0.00000000000E+00 0. -1.
        -13    1    3    3    0    0  0.16740821966E+02  0.20627170085E+02 -0.67773828300E+02  0.72794416463E+02  0.00000000000E+00 0. -1.
         13    1    3    3    0    0 -0.56620044305E+02  0.81437605026E+02 -0.45195861747E+02  0.10899806809E+03  0.00000000000E+00 0.  1.
         21    1    1    2  502  501  0.19846557651E+02 -0.58079595555E+01 -0.33395357004E+02  0.39279359901E+02  0.00000000000E+00 0. -1.
<scales pt_clust_5="13000.00000" pt_clust_6="13000.00000" pt_clust_7="13000.00000" pt_clust_8="13000.00000" pt_clust_9="20.67893"></scales>
<clustering>
<clus scale="   20.679">  1  9  2 -1</clus>
<clus scale="   86.519">  5  6 -1 -1</clus>
<clus scale="   90.988">  7  8 -1 -1</clus>
<clus scale="  131.664">  2  5  1 -1</clus>
<clus scale="  131.664">  2  5  1 -1</clus>
</clustering>
</event>
<event>
 9    2  0.2869112E-005  0.1238590E+03  0.7546771E-02  0.1238111E+00
          2   -1    0    0  502    0  0.00000000000E+00  0.00000000000E+00  0.17665899770E+03  0.17665899770E+03  0.00000000000E+00 0. -1.
         -1   -1    0    0    0  501 -0.00000000000E+00 -0.00000000000E+00 -0.10304965761E+03  0.10304965761E+03  0.00000000000E+00 0.  1.
         24    2    1    2    0    0  0.78330766112E+02 -0.23096807280E+02  0.17215302977E+02  0.12665258418E+03  0.95264573678E+02 0.  0.
         23    2    1    2    0    0 -0.65677980143E+02  0.41635180192E+02  0.47990816781E+02  0.12908987880E+03  0.91181100060E+02 0.  0.
        -11    1    3    3    0    0  0.50038264618E+02 -0.23729135834E+01 -0.36864333372E+02  0.62196766152E+02  0.00000000000E+00 0.  1.
         12    1    3    3    0    0  0.28292501493E+02 -0.20723893696E+02  0.54079636348E+02  0.64455818033E+02  0.00000000000E+00 0. -1.
        -11    1    4    4    0    0 -0.14446246359E+02  0.51908593385E+02 -0.56858427468E+01  0.54180484576E+02  0.00000000000E+00 0.  1.
         11    1    4    4    0    0 -0.51231733783E+02 -0.10273413193E+02  0.53676659528E+02  0.74909394225E+02  0.00000000000E+00 0. -1.
         21    1    1    2  502  501 -0.12652785969E+02 -0.18538372912E+02  0.84032203326E+01  0.23966192333E+02  0.00000000000E+00 0. -1.
<scales pt_clust_5="13000.00000" pt_clust_6="13000.00000" pt_clust_7="13000.00000" pt_clust_8="13000.00000" pt_clust_9="22.44469"></scales>
<clustering>
<clus scale="   22.445">  1  9  2 -1</clus>
<clus scale="   91.181">  7  8 -1 -1</clus>
<clus scale="   95.265">  5  6 -1 -1</clus>
<clus scale="  120.746">  1  7  2 -1</clus>
<clus scale="   22.445">  1  5  2 -1</clus>
</clustering>
</event>
<event>
 9    2  0.2869112E-005  0.2464934E+03  0.7546771E-02  0.1115904E+00
         -1   -1    0    0    0  501 -0.00000000000E+00  0.00000000000E+00  0.31193691859E+03  0.31193691859E+03  0.00000000000E+00 0.  1.
          2   -1    0    0  502    0  0.00000000000E+00 -0.00000000000E+00 -0.44669421976E+03  0.44669421976E+03  0.00000000000E+00 0. -1.
         23    2    1    2    0    0 -0.12866166425E+03 -0.17930759445E+03 -0.11460176075E+03  0.26361804238E+03  0.87497836695E+02 0.  0.
         24    2    1    2    0    0  0.80096806195E+02  0.22994621888E+03 -0.18468132542E+03  0.31615127875E+03  0.80954784640E+02 0.  0.
        -11    1    4    4    0    0  0.65023228023E+02  0.95248184226E+02 -0.11836351755E+03  0.16525785630E+03  0.00000000000E+00 0.  1.
         12    1    4    4    0    0  0.15073578173E+02  0.13469803466E+03 -0.66317807869E+02  0.15089342245E+03  0.00000000000E+00 0. -1.
        -13    1    3    3    0    0 -0.76459521680E+02 -0.35277437310E+02 -0.40951635280E+02  0.93635423162E+02  0.00000000000E+00 0.  1.
         13    1    3    3    0    0 -0.52202142573E+02 -0.14403015714E+03 -0.73650125474E+02  0.16998261922E+03  0.00000000000E+00 0. -1.
         21    1    1    2  502  501  0.48564858058E+02 -0.50638624433E+02  0.16452578501E+03  0.17886181721E+03  0.00000000000E+00 0.  1.
<scales pt_clust_5="13000.00000" pt_clust_6="13000.00000" pt_clust_7="13000.00000" pt_clust_8="13000.00000" pt_clust_9="70.16278"></scales>
<clustering>
<clus scale="   70.163">  1  9  2 -1</clus>
<clus scale="   80.955">  5  6 -1 -1</clus>
<clus scale="   87.498">  7  8 -1 -1</clus>
<clus scale="  244.247">  2  5  1 -1</clus>
<clus scale="  244.247">  2  5  1 -1</clus>
</clustering>
</event>
<event>
 9    2  0.2869112E-005  0.9576697E+02  0.7546771E-02  0.1293506E+00
         -1   -1    0    0    0  501 -0.00000000000E+00  0.00000000000E+00  0.42916832015E+02  0.42916832015E+02  0.00000000000E+00 0.  1.
          2   -1    0    0  502    0  0.00000000000E+00 -0.00000000000E+00 -0.78125934095E+03  0.78125934095E+03  0.00000000000E+00 0. -1.
         23    2    1    2    0    0  0.43990373060E+02  0.24458090655E+02 -0.16989809077E+03  0.19873756410E+03  0.89988371572E+02 0.  0.
         24    2    1    2    0    0 -0.27632911440E+02 -0.87600180526E+01 -0.58862391329E+03  0.59508719938E+03  0.82524831765E+02 0.  0.
        -13    1    4    4    0    0 -0.49241122589E+02  0.48271762863E+01 -0.21618059315E+03  0.22177023840E+03  0.00000000000E+00 0.  1.
         14    1    4    4    0    0  0.21608211150E+02 -0.13587194339E+02 -0.37244332014E+03  0.37331696098E+03  0.00000000000E+00 0. -1.
        -11    1    3    3    0    0 -0.19027499189E+02  0.28693997774E+02 -0.93347687554E+02  0.99494633048E+02  0.00000000000E+00 0.  1.
         11    1    3    3    0    0  0.63017872250E+02 -0.42359071189E+01 -0.76550403212E+02  0.99242931052E+02  0.00000000000E+00 0. -1.
         21    1    1    2  502  501 -0.16357461620E+02 -0.15698072602E+02  0.20179495124E+02  0.30351409482E+02  0.00000000000E+00 0.  1.
<scales pt_clust_5="13000.00000" pt_clust_6="13000.00000" pt_clust_7="13000.00000" pt_clust_8="13000.00000" pt_clust_9="22.67148"></scales>
<clustering>
<clus scale="   22.671">  1  9  2 -1</clus>
<clus scale="   82.525">  5  6 -1 -1</clus>
<clus scale="   88.790">  2  5  1 -1</clus>
<clus scale="   89.988">  7  8 -1 -1</clus>
<clus scale="   88.790">  2  5  1 -1</clus>
</clustering>
</event>
<event>
 9    2  0.2869112E-005  0.4971517E+03  0.7546771E-02  0.1014525E+00
          2   -1    0    0  502    0  0.00000000000E+00  0.00000000000E+00  0.57575095668E+03  0.57575095668E+03  0.00000000000E+00 0. -1.
         -1   -1    0    0    0  501 -0.00000000000E+00 -0.00000000000E+00 -0.70352454180E+03  0.70352454180E+03  0.00000000000E+00 0.  1.
         24    2    1    2    0    0 -0.14242134589E+03  0.36279972237E+02  0.11424997693E+03  0.20342938005E+03  0.82038888890E+02 0.  0.
         23    2    1    2    0    0 -0.31555329039E+03  0.83175863103E+01  0.24186309059E+03  0.40810664656E+03  0.91707246502E+02 0.  0.
        -13    1    3    3    0    0 -0.49683094017E+02  0.54276907089E+02  0.55715532364E+02  0.92296332651E+02  0.00000000000E+00 0.  1.
         14    1    3    3    0    0 -0.92738251871E+02 -0.17996934852E+02  0.58534444562E+02  0.11113304740E+03  0.00000000000E+00 0. -1.
        -13    1    4    4    0    0 -0.18881941811E+03 -0.28881048177E+02  0.17920117923E+03  0.26191592207E+03  0.00000000000E+00 0. -1.
         13    1    4    4    0    0 -0.12673387228E+03  0.37198634487E+02  0.62661911359E+02  0.14619072449E+03  0.00000000000E+00 0.  1.
         21    1    1    2  502  501  0.45797463628E+03 -0.44597558547E+02 -0.48388665263E+03  0.66773947188E+03  0.00000000000E+00 0.  1.
<scales pt_clust_5="13000.00000" pt_clust_6="13000.00000" pt_clust_7="13000.00000" pt_clust_8="13000.00000" pt_clust_9="460.14097"></scales>
<clustering>
<clus scale="   82.039">  5  6 -1 -1</clus>
<clus scale="   91.707">  7  8 -1 -1</clus>
<clus scale="   97.394">  5  7 -1 -1</clus>
<clus scale="  460.141">  2  9  1 -1</clus>
<clus scale="  497.152">  1  5  2 -1</clus>
</clustering>
</event>
<event>
 9    2  0.2869112E-005  0.9801132E+02  0.7546771E-02  0.1288729E+00
         -1   -1    0    0    0  501 -0.00000000000E+00  0.00000000000E+00  0.48908761574E+02  0.48908761574E+02  0.00000000000E+00 0.  1.
          2   -1    0    0  502    0  0.00000000000E+00 -0.00000000000E+00 -0.43066989543E+03  0.43066989543E+03  0.00000000000E+00 0. -1.
         24    2    1    2    0    0 -0.12288287786E+02 -0.23620401285E+02 -0.31687139693E+02  0.92814750683E+02  0.83075735018E+02 0.  0.
         23    2    1    2    0    0  0.37376634575E+02  0.13308442322E+02 -0.34517424496E+03  0.35919999542E+03  0.91133143672E+02 0.  0.
        -13    1    3    3    0    0 -0.95900080521E+01  0.31038494906E+02 -0.10700082385E+02  0.34203043484E+02  0.00000000000E+00 0.  1.
         14    1    3    3    0    0 -0.26982797339E+01 -0.54658896191E+02 -0.20987057308E+02  0.58611707199E+02  0.00000000000E+00 0. -1.
        -11    1    4    4    0    0  0.36449035842E+02  0.47564152156E+02 -0.27020548719E+03  0.27677045741E+03  0.00000000000E+00 0.  1.
         11    1    4    4    0    0  0.92759873322E+00 -0.34255709834E+02 -0.74968757768E+02  0.82429538012E+02  0.00000000000E+00 0. -1.
         21    1    1    2  502  501 -0.25088346789E+02  0.10311958962E+02 -0.48997492082E+01  0.27563910908E+02  0.00000000000E+00 0.  1.
<scales pt_clust_5="13000.00000" pt_clust_6="13000.00000" pt_clust_7="13000.00000" pt_clust_8="13000.00000" pt_clust_9="27.12493"></scales>
<clustering>
<clus scale="   27.125">  1  9  2 -1</clus>
<clus scale="   83.076">  5  6 -1 -1</clus>
<clus scale="   90.568">  1  5  2 -1</clus>
<clus scale="   91.133">  7  8 -1 -1</clus>
<clus scale="   98.011">  2  5  1 -1</clus>
</clustering>
</event>
<event>
 9    2  0.2869112E-005  0.9126189E+02  0.7546771E-02  0.1300263E+00
         -1   -1    0    0    0  501 -0.00000000000E+00  0.00000000000E+00  0.86724712372E+02  0.86724712372E+02  0.00000000000E+00 0.  1.
          2   -1    0    0  502    0  0.00000000000E+00 -0.00000000000E+00 -0.82472066569E+03  0.82472066569E+03  0.00000000000E+00 0. -1.
         23    2    1    2    0    0  0.81616109213E+01 -0.58615683904E+02  0.40448639111E+02  0.10727618097E+03  0.79810251886E+02 0.  0.
         24    2    1    2    0    0 -0.24338835028E+02  0.36569231083E+02 -0.77037734811E+03  0.77565903938E+03  0.78968343845E+02 0.  0.
        -13    1    4    4    0    0  0.12661415890E+02  0.44690729159E+02 -0.28056553376E+03  0.28438458372E+03  0.00000000000E+00 0.  1.
         14    1    4    4    0    0 -0.37000250918E+02 -0.81214980754E+01 -0.48981181435E+03  0.49127445566E+03  0.00000000000E+00 0. -1.
        -11    1    3    3    0    0 -0.24620091017E+02 -0.57868751762E+02  0.39906786853E+02  0.74481494004E+02  0.00000000000E+00 0. -1.
         11    1    3    3    0    0  0.32781701938E+02 -0.74693214144E+00  0.54185225870E+00  0.32794686970E+02  0.00000000000E+00 0.  1.
         21    1    1    2  502  501  0.16177224106E+02  0.22046452820E+02 -0.80672443154E+01  0.28510157709E+02  0.00000000000E+00 0.  1.
<scales pt_clust_5="13000.00000" pt_clust_6="13000.00000" pt_clust_7="13000.00000" pt_clust_8="13000.00000" pt_clust_9="27.34499"></scales>
<clustering>
<clus scale="   27.345">  1  9  2 -1</clus>
<clus scale="   78.968">  5  6 -1 -1</clus>
<clus scale="   79.810">  7  8 -1 -1</clus>
<clus scale="   90.527">  2  5  1 -1</clus>
<clus scale="   90.527">  2  5  1 -1</clus>
</clustering>
</event>
<event>
 9    2  0.7312495E-005  0.1056182E+03  0.7546771E-02  0.1272448E+00
         -1   -1    0    0    0  501 -0.00000000000E+00  0.00000000000E+00  0.32219876941E+03  0.32219876941E+03  0.00000000000E+00 0.  1.
          2   -1    0    0  502    0  0.00000000000E+00 -0.00000000000E+00 -0.25999437900E+03  0.25999437900E+03  0.00000000000E+00 0. -1.
         24    2    1    2    0    0  0.37601887643E+02  0.47347893960E+01  0.24869269854E+03  0.26412668265E+03  0.80489291191E+02 0.  0.
         23    2    1    2    0    0 -0.57548243175E+02  0.62977804635E+01 -0.23863379421E+03  0.26115665628E+03  0.88911467489E+02 0.  0.
        -11    1    3    3    0    0 -0.38723815521E+01 -0.32574132313E+02  0.10407672638E+03  0.10912394058E+03  0.00000000000E+00 0.  1.
         12    1    3    3    0    0  0.41474269195E+02  0.37308921709E+02  0.14461597216E+03  0.15500274207E+03  0.00000000000E+00 0. -1.
        -13    1    4    4    0    0  0.30111722175E+00 -0.23129284967E+02 -0.13344277594E+02  0.26704386141E+02  0.00000000000E+00 0.  1.
         13    1    4    4    0    0 -0.57849360397E+02  0.29427065431E+02 -0.22528951661E+03  0.23445227014E+03  0.00000000000E+00 0. -1.
         21    1    1    2  502  501  0.19946355532E+02 -0.11032569860E+02  0.52145486074E+02  0.56909809476E+02  0.00000000000E+00 0. -1.
<scales pt_clust_5="13000.00000" pt_clust_6="13000.00000" pt_clust_7="13000.00000" pt_clust_8="13000.00000" pt_clust_9="22.79418"></scales>
<clustering>
<clus scale="   22.794">  1  9  2 -1</clus>
<clus scale="   80.489">  5  6 -1 -1</clus>
<clus scale="   88.911">  7  8 -1 -1</clus>
<clus scale="   98.633">  1  5  2 -1</clus>
<clus scale="  105.618">  2  5  1 -1</clus>
</clustering>
</event>
<event>
 9    2  0.2869112E-005  0.9746902E+02  0.7546771E-02  0.1290915E+00
         -1   -1    0    0    0  501 -0.00000000000E+00  0.00000000000E+00  0.15221136715E+03  0.15221136715E+03  0.00000000000E+00 0.  1.
          2   -1    0    0  502    0  0.00000000000E+00 -0.00000000000E+00 -0.15083391754E+03  0.15083391754E+03  0.00000000000E+00 0. -1.
         24    2    1    2    0    0 -0.94302216914E+01 -0.20887185111E+02  0.68444822658E+02  0.10894513496E+03  0.81603585098E+02 0.  0.
         23    2    1    2    0    0 -0.31856059045E+02  0.24714589603E+02 -0.99870325219E+02  0.14123012350E+03  0.91357793797E+02 0.  0.
        -11    1    3    3    0    0 -0.74104715425E+01  0.30729886135E+02  0.16380554041E+02  0.35602858608E+02  0.00000000000E+00 0.  1.
         12    1    3    3    0    0 -0.20197501490E+01 -0.51617071246E+02  0.52064268617E+02  0.73342276357E+02  0.00000000000E+00 0. -1.
        -13    1    4    4    0    0 -0.40673274730E+02  0.53186084626E+02 -0.51736144889E+02  0.84615031543E+02  0.00000000000E+00 0.  1.
         13    1    4    4    0    0  0.88172156847E+01 -0.28471495023E+02 -0.48134180330E+02  0.56615091957E+02  0.00000000000E+00 0. -1.
         21    1    1    2  502  501  0.41286280737E+02 -0.38274044914E+01  0.32802952165E+02  0.52870026224E+02  0.00000000000E+00 0. -1.
<scales pt_clust_5="13000.00000" pt_clust_6="13000.00000" pt_clust_7="13000.00000" pt_clust_8="13000.00000" pt_clust_9="41.46331"></scales>
<clustering>
<clus scale="   41.463">  1  9  2 -1</clus>
<clus scale="   81.604">  5  6 -1 -1</clus>
<clus scale="   88.392">  1  5  2 -1</clus>
<clus scale="   91.358">  7  8 -1 -1</clus>
<clus scale="   97.469">  2  5  1 -1</clus>
</clustering>
</event>
<event>
 9    2  0.2869112E-005  0.1054010E+03  0.7546771E-02  0.1274731E+00
          2   -1    0    0  502    0  0.00000000000E+00  0.00000000000E+00  0.11521793434E+03  0.11521793434E+03  0.00000000000E+00 0. -1.
         -1   -1    0    0    0  501 -0.00000000000E+00 -0.00000000000E+00 -0.16630537835E+03  0.16630537835E+03  0.00000000000E+00 0.  1.
         23    2    1    2    0    0 -0.16238969037E+02 -0.80564006606E+02 -0.47203590787E+02  0.13165008465E+03  0.91374517938E+02 0.  0.
         24    2    1    2    0    0  0.21344680180E+02  0.36957661297E+02  0.29605576149E+02  0.94654358834E+02  0.79129598802E+02 0.  0.
        -13    1    4    4    0    0 -0.29207342468E+02  0.18474216270E+02  0.20150447269E+02  0.40005075253E+02  0.00000000000E+00 0.  1.
         14    1    4    4    0    0  0.50552022647E+02  0.18483445026E+02  0.94551288792E+01  0.54649283581E+02  0.00000000000E+00 0. -1.
        -11    1    3    3    0    0  0.28879427546E+02 -0.68302364856E+02 -0.17293226203E+02  0.76146503878E+02  0.00000000000E+00 0. -1.
         11    1    3    3    0    0 -0.45118396582E+02 -0.12261641750E+02 -0.29910364584E+02  0.55503580768E+02  0.00000000000E+00 0.  1.
         21    1    1    2  502  501 -0.51057111428E+01  0.43606345310E+02 -0.33489429366E+02  0.55218869210E+02  0.00000000000E+00 0.  1.
<scales pt_clust_5="13000.00000" pt_clust_6="13000.00000" pt_clust_7="13000.00000" pt_clust_8="13000.00000" pt_clust_9="43.90423"></scales>
<clustering>
<clus scale="   43.904">  2  9  1 -1</clus>
<clus scale="   79.130">  5  6 -1 -1</clus>
<clus scale="   91.375">  7  8 -1 -1</clus>
<clus scale="   94.982">  1  5  2 -1</clus>
<clus scale="   94.982">  1  5  2 -1</clus>
</clustering>
</event>
<event>
 9    2  0.2869112E-005  0.1048802E+03  0.7546771E-02  0.1275474E+00
         -1   -1    0    0    0  501 -0.00000000000E+00  0.00000000000E+00  0.41651742301E+02  0.41651742301E+02  0.00000000000E+00 0.  1.
          2   -1    0    0  502    0  0.00000000000E+00 -0.00000000000E+00 -0.64124891800E+03  0.64124891800E+03  0.00000000000E+00 0. -1.
         23    2    1    2    0    0 -0.30340888110E+02 -0.53001839106E+02 -0.59235995064E+02  0.12399842662E+03  0.90205001261E+02 0.  0.
         24    2    1    2    0    0 -0.45341397121E+01  0.53579122078E+02 -0.47858108490E+03  0.48795590855E+03  0.78548285266E+02 0.  0.
        -13    1    4    4    0    0  0.28132105518E+02  0.26009259928E+01 -0.80879042935E+02  0.85671464112E+02  0.00000000000E+00 0.  1.
         14    1    4    4    0    0 -0.32666245230E+02  0.50978196085E+02 -0.39770204196E+03  0.40228444443E+03  0.00000000000E+00 0. -1.
        -11    1    3    3    0    0 -0.54010511353E+02 -0.27482416698E+02 -0.64832381801E+02  0.88744894468E+02  0.00000000000E+00 0. -1.
         11    1    3    3    0    0  0.23669623243E+02 -0.25519422408E+02  0.55963867366E+01  0.35253532149E+02  0.00000000000E+00 0.  1.
         21    1    1    2  502  501  0.34875027823E+02 -0.57728297221E+00 -0.61780095740E+02  0.70946325140E+02  0.00000000000E+00 0.  1.
<scales pt_clust_5="13000.00000" pt_clust_6="13000.00000" pt_clust_7="13000.00000" pt_clust_8="13000.00000" pt_clust_9="34.87981"></scales>
<clustering>
<clus scale="   34.880">  1  9  2 -1</clus>
<clus scale="   78.548">  5  6 -1 -1</clus>
<clus scale="   90.205">  7  8 -1 -1</clus>
<clus scale="   95.041">  2  5  1 -1</clus>
<clus scale="   95.041">  2  5  1 -1</clus>
</clustering>
</event>
<event>
 9    2  0.2869112E-005  0.1067963E+03  0.7546771E-02  0.1271392E+00
         -3   -1    0    0    0  501 -0.00000000000E+00  0.00000000000E+00  0.36698495493E+03  0.36698495493E+03  0.00000000000E+00 0.  1.
          4   -1    0    0  502    0  0.00000000000E+00 -0.00000000000E+00 -0.63422902235E+02  0.63422902235E+02  0.00000000000E+00 0. -1.
         23    2    1    2    0    0 -0.12518741702E+02 -0.59302017021E+02  0.27218870783E+03  0.29346513349E+03  0.91442024194E+02 0.  0.
         24    2    1    2    0    0  0.35148255221E+02  0.26230675030E+02  0.11318891196E+02  0.92132126096E+02  0.80229441002E+02 0.  0.
        -11    1    4    4    0    0 -0.20868208157E+02 -0.36840691955E+01  0.18620993998E+02  0.28209854572E+02  0.00000000000E+00 0.  1.
         12    1    4    4    0    0  0.56016463378E+02  0.29914744226E+02 -0.73021028020E+01  0.63922271524E+02  0.00000000000E+00 0. -1.
        -11    1    3    3    0    0  0.32553848459E+02 -0.27047195341E+01  0.49408762845E+02  0.59230856849E+02  0.00000000000E+00 0. -1.
         11    1    3    3    0    0 -0.45072590161E+02 -0.56597297487E+02  0.22277994498E+03  0.23423427664E+03  0.00000000000E+00 0.  1.
         21    1    1    2  502  501 -0.22629513519E+02  0.33071341991E+02  0.20054453670E+02  0.44810597577E+02  0.00000000000E+00 0. -1.
<scales pt_clust_5="13000.00000" pt_clust_6="13000.00000" pt_clust_7="13000.00000" pt_clust_8="13000.00000" pt_clust_9="40.07254"></scales>
<clustering>
<clus scale="   40.073">  2  9  1 -1</clus>
<clus scale="   80.229">  5  6 -1 -1</clus>
<clus scale="   91.442">  7  8 -1 -1</clus>
<clus scale="   97.368">  2  5  1 -1</clus>
<clus scale="   40.073">  2  5  1 -1</clus>
</clustering>
</event>
<event>
 9    2  0.2869112E-005  0.1028592E+03  0.7546771E-02  0.1278951E+00
          2   -1    0    0  502    0  0.00000000000E+00  0.00000000000E+00  0.43124943968E+03  0.43124943968E+03  0.00000000000E+00 0. -1.
         -1   -1    0    0    0  501 -0.00000000000E+00 -0.00000000000E+00 -0.69365792878E+02  0.69365792878E+02  0.00000000000E+00 0.  1.
         24    2    1    2    0    0  0.10891210950E+02  0.20447983968E+02 -0.19013062320E+01  0.86629769661E+02  0.83452762098E+02 0.  0.
         23    2    1    2    0    0  0.48615282500E+01 -0.47622220090E+02  0.36773193436E+03  0.38232844847E+03  0.93041693123E+02 0.  0.
        -11    1    3    3    0    0 -0.26811326436E+02  0.30594975334E+02 -0.17887865870E+02  0.44439571176E+02  0.00000000000E+00 0.  1.
         12    1    3    3    0    0  0.37702537386E+02 -0.10146991367E+02  0.15986559638E+02  0.42190198485E+02  0.00000000000E+00 0. -1.
        -11    1    4    4    0    0 -0.26404408260E+02  0.16273631662E+02  0.15326774654E+03  0.15637463347E+03  0.00000000000E+00 0.  1.
         11    1    4    4    0    0  0.31265936510E+02 -0.63895851752E+02  0.21446418782E+03  0.22595381500E+03  0.00000000000E+00 0. -1.
         21    1    1    2  502  501 -0.15752739200E+02  0.27174236123E+02 -0.39469813206E+01  0.31657014431E+02  0.00000000000E+00 0.  1.
<scales pt_clust_5="13000.00000" pt_clust_6="13000.00000" pt_clust_7="13000.00000" pt_clust_8="13000.00000" pt_clust_9="31.41000"></scales>
<clustering>
<clus scale="   31.410">  2  9  1 -1</clus>
<clus scale="   83.453">  5  6 -1 -1</clus>
<clus scale="   93.042">  7  8 -1 -1</clus>
<clus scale="   94.274">  2  5  1 -1</clus>
<clus scale="  102.859">  1  5  2 -1</clus>
</clustering>
</event>
<event>
 9    2  0.2869112E-005  0.9618784E+02  0.7546771E-02  0.1294346E+00
          2   -1    0    0  502    0  0.00000000000E+00  0.00000000000E+00  0.13770157141E+04  0.13770157141E+04  0.00000000000E+00 0. -1.
         -1   -1    0    0    0  501 -0.00000000000E+00 -0.00000000000E+00 -0.16848693576E+02  0.16848693576E+02  0.00000000000E+00 0.  1.
         23    2    1    2    0    0  0.83804949900E+01  0.31515165169E+02  0.23337229255E+03  0.25287709723E+03  0.91764704784E+02 0.  0.
         24    2    1    2    0    0  0.18009839950E+02 -0.24051536935E+02  0.10972754212E+04  0.11006940728E+04  0.81309662489E+02 0.  0.
        -13    1    4    4    0    0  0.25123403755E+02 -0.31485440850E+01  0.99392463747E+02  0.10256685915E+03  0.00000000000E+00 0.  1.
         14    1    4    4    0    0 -0.71135638052E+01 -0.20902992850E+02  0.99788295748E+03  0.99812721370E+03  0.00000000000E+00 0. -1.
        -13    1    3    3    0    0  0.68255662021E+01 -0.32214503530E+02  0.94470370444E+02  0.10004505727E+03  0.00000000000E+00 0. -1.
         13    1    3    3    0    0  0.15549287879E+01  0.63729668699E+02  0.13890192210E+03  0.15283203996E+03  0.00000000000E+00 0.  1.
         21    1    1    2  502  501 -0.26390334940E+02 -0.74636282345E+01  0.29519306748E+02  0.40293237591E+02  0.00000000000E+00 0. -1.
<scales pt_clust_5="13000.00000" pt_clust_6="13000.00000" pt_clust_7="13000.00000" pt_clust_8="13000.00000" pt_clust_9="27.42545"></scales>
<clustering>
<clus scale="   27.425">  2  9  1 -1</clus>
<clus scale="   81.310">  5  6 -1 -1</clus>
<clus scale="   86.271">  1  5  2 -1</clus>
<clus scale="   91.765">  7  8 -1 -1</clus>
<clus scale="   86.271">  1  5  2 -1</clus>
</clustering>
</event>
<event>
 9    2  0.2869112E-005  0.1522955E+03  0.7546771E-02  0.1200555E+00
          2   -1    0    0  502    0  0.00000000000E+00  0.00000000000E+00  0.62986156012E+03  0.62986156012E+03  0.00000000000E+00 0. -1.
         -1   -1    0    0    0  501 -0.00000000000E+00 -0.00000000000E+00 -0.14669852583E+03  0.14669852583E+03  0.00000000000E+00 0.  1.
         23    2    1    2    0    0  0.91620543390E+02  0.16390345499E+02 -0.19831066053E+02  0.13420250253E+03  0.94625964231E+02 0.  0.
         24    2    1    2    0    0 -0.11951352736E+03 -0.26987925985E+02  0.55965547034E+03  0.57831979680E+03  0.78915844524E+02 0.  0.
        -13    1    4    4    0    0 -0.72655405445E+02  0.21890841488E+02  0.24593330065E+03  0.25737366852E+03  0.00000000000E+00 0.  1.
         14    1    4    4    0    0 -0.46858121919E+02 -0.48878767473E+02  0.31372216969E+03  0.32094612828E+03  0.00000000000E+00 0. -1.
        -13    1    3    3    0    0  0.27855567921E+02  0.86608592321E+01 -0.54053683839E+02  0.61422665877E+02  0.00000000000E+00 0.  1.
         13    1    3    3    0    0  0.63764975469E+02  0.77294862665E+01  0.34222617786E+02  0.72779836648E+02  0.00000000000E+00 0. -1.
         21    1    1    2  502  501  0.27892983974E+02  0.10597580486E+02 -0.56661369997E+02  0.64037786635E+02  0.00000000000E+00 0.  1.
<scales pt_clust_5="13000.00000" pt_clust_6="13000.00000" pt_clust_7="13000.00000" pt_clust_8="13000.00000" pt_clust_9="29.83835"></scales>
<clustering>
<clus scale="   29.838">  2  9  1 -1</clus>
<clus scale="   78.916">  5  6 -1 -1</clus>
<clus scale="   94.626">  7  8 -1 -1</clus>
<clus scale="  143.065">  1  5  2 -1</clus>
<clus scale="  143.065">  1  5  2 -1</clus>
</clustering>
</event>
<event>
 9    2  0.2869112E-005  0.1367050E+03  0.7546771E-02  0.1220370E+00
          2   -1    0    0  502    0  0.00000000000E+00  0.00000000000E+00  0.35780026870E+03  0.35780026870E+03  0.00000000000E+00 0. -1.
         -1   -1    0    0    0  501 -0.00000000000E+00 -0.00000000000E+00 -0.22222623979E+03  0.22222623979E+03  0.00000000000E+00 0.  1.
         24    2    1    2    0    0 -0.71564169099E+02 -0.44885789611E+02 -0.11063360394E+03  0.16066169749E+03  0.80226070027E+02 0.  0.
         23    2    1    2    0    0  0.92945800273E+02  0.45910014692E+02  0.31680111500E+03  0.34559718320E+03  0.91256864576E+02 0.  0.
        -13    1    3    3    0    0 -0.59931900951E+02 -0.56826308721E+02 -0.11666018199E+03  0.14293586036E+03  0.00000000000E+00 0.  1.
         14    1    3    3    0    0 -0.11632268148E+02  0.11940519110E+02  0.60265780541E+01  0.17725837129E+02  0.00000000000E+00 0. -1.
        -13    1    4    4    0    0  0.68329632128E+02  0.42535603146E+02  0.30936228935E+03  0.31966113657E+03  0.00000000000E+00 0. -1.
         13    1    4    4    0    0  0.24616168145E+02  0.33744115454E+01  0.74388256439E+01  0.25936046622E+02  0.00000000000E+00 0.  1.
         21    1    1    2  502  501 -0.21381631174E+02 -0.10242250808E+01 -0.70593482156E+02  0.73767627803E+02  0.00000000000E+00 0.  1.
<scales pt_clust_5="13000.00000" pt_clust_6="13000.00000" pt_clust_7="13000.00000" pt_clust_8="13000.00000" pt_clust_9="21.40615"></scales>
<clustering>
<clus scale="   21.406">  2  9  1 -1</clus>
<clus scale="   80.226">  5  6 -1 -1</clus>
<clus scale="   91.257">  7  8 -1 -1</clus>
<clus scale="  129.602">  2  5  1 -1</clus>
<clus scale="  136.705">  1  5  2 -1</clus>
</clustering>
</event>
<event>
 9    2  0.2869112E-005  0.9480886E+02  0.7546771E-02  0.1297467E+00
         -1   -1    0    0    0  501 -0.00000000000E+00  0.00000000000E+00  0.69168824252E+02  0.69168824252E+02  0.00000000000E+00 0.  1.
          2   -1    0    0  502    0  0.00000000000E+00 -0.00000000000E+00 -0.56662761789E+03  0.56662761789E+03  0.00000000000E+00 0. -1.
         23    2    1    2    0    0  0.22204084595E+02  0.13855066727E+02 -0.60102778356E+00  0.94758892960E+02  0.91070864243E+02 0.  0.
         24    2    1    2    0    0  0.13286022951E+02 -0.24874819854E+02 -0.49654867459E+03  0.50387468829E+03  0.80832172999E+02 0.  0.
        -13    1    4    4    0    0 -0.81222053175E+01 -0.27051179964E+02 -0.55241664033E+02  0.62043355823E+02  0.00000000000E+00 0.  1.
         14    1    4    4    0    0  0.21408228268E+02  0.21763601106E+01 -0.44130701055E+03  0.44183133246E+03  0.00000000000E+00 0. -1.
        -13    1    3    3    0    0  0.46362611606E+02  0.29982974274E+02  0.20457695717E+02  0.58881132932E+02  0.00000000000E+00 0. -1.
         13    1    3    3    0    0 -0.24158527011E+02 -0.16127907547E+02 -0.21058723501E+02  0.35877760028E+02  0.00000000000E+00 0.  1.
         21    1    1    2  502  501 -0.35490107546E+02  0.11019753126E+02 -0.30909126703E+00  0.37162860896E+02  0.00000000000E+00 0. -1.
<scales pt_clust_5="13000.00000" pt_clust_6="13000.00000" pt_clust_7="13000.00000" pt_clust_8="13000.00000" pt_clust_9="37.16158"></scales>
<clustering>
<clus scale="   37.162">  1  9  2 -1</clus>
<clus scale="   80.832">  5  6 -1 -1</clus>
<clus scale="   85.022">  2  5  1 -1</clus>
<clus scale="   91.071">  7  8 -1 -1</clus>
<clus scale="   85.022">  2  5  1 -1</clus>
</clustering>
</event>
<event>
 9    2  0.2869112E-005  0.1024868E+03  0.7546771E-02  0.1280149E+00
          2   -1    0    0  502    0  0.00000000000E+00  0.00000000000E+00  0.59376124031E+03  0.59376124031E+03  0.00000000000E+00 0. -1.
         -1   -1    0    0    0  501 -0.00000000000E+00 -0.00000000000E+00 -0.76205102392E+02  0.76205102392E+02  0.00000000000E+00 0.  1.
         23    2    1    2    0    0  0.33111131068E+02  0.72129119715E+02  0.10795743404E+02  0.12233743660E+03  0.92471311263E+02 0.  0.
         24    2    1    2    0    0  0.33227156812E+02 -0.31015660317E+02  0.42249327328E+03  0.43277233161E+03  0.82007986847E+02 0.  0.
        -11    1    4    4    0    0  0.24502933340E+02  0.75633603325E+01  0.35664677887E+02  0.43926841573E+02  0.00000000000E+00 0.  1.
         12    1    4    4    0    0  0.87242234724E+01 -0.38579020649E+02  0.38682859539E+03  0.38884549004E+03  0.00000000000E+00 0. -1.
        -13    1    3    3    0    0 -0.92307639589E+01  0.64239361884E+02  0.34157193837E+02  0.73339051734E+02  0.00000000000E+00 0. -1.
         13    1    3    3    0    0  0.42341895027E+02  0.78897578313E+01 -0.23361450432E+02  0.48998384865E+02  0.00000000000E+00 0.  1.
         21    1    1    2  502  501 -0.66338287881E+02 -0.41113459399E+02  0.84267121234E+02  0.11485657449E+03  0.00000000000E+00 0. -1.
<scales pt_clust_5="13000.00000" pt_clust_6="13000.00000" pt_clust_7="13000.00000" pt_clust_8="13000.00000" pt_clust_9="78.04540"></scales>
<clustering>
<clus scale="   78.045">  2  9  1 -1</clus>
<clus scale="   82.008">  5  6 -1 -1</clus>
<clus scale="   92.471">  7  8 -1 -1</clus>
<clus scale="   93.155">  1  5  2 -1</clus>
<clus scale="   93.155">  1  5  2 -1</clus>
</clustering>
</event>
<event>
 9    2  0.2869112E-005  0.2996263E+03  0.7546771E-02  0.1086471E+00
         -1   -1    0    0    0  501 -0.00000000000E+00  0.00000000000E+00  0.16123988776E+03  0.16123988776E+03  0.00000000000E+00 0.  1.
          2   -1    0    0  502    0  0.00000000000E+00 -0.00000000000E+00 -0.73609621591E+03  0.73609621591E+03  0.00000000000E+00 0. -1.
         23    2    1    2    0    0  0.17757260494E+03 -0.19819488171E+03 -0.17632635901E+03  0.33186930279E+03  0.90735925012E+02 0.  0.
         24    2    1    2    0    0 -0.25448856961E+03  0.19043998799E+03 -0.30774803462E+03  0.44622937541E+03  0.58137609042E+02 0.  0.
        -13    1    4    4    0    0 -0.76118697709E+02  0.60428073160E+02 -0.59102212844E+02  0.11374831748E+03  0.00000000000E+00 0.  1.
         14    1    4    4    0    0 -0.17836987190E+03  0.13001191483E+03 -0.24864582177E+03  0.33248105793E+03  0.00000000000E+00 0. -1.
        -11    1    3    3    0    0  0.39313495330E+02 -0.87275956324E+02 -0.25319212275E+02  0.99013665610E+02  0.00000000000E+00 0.  1.
         11    1    3    3    0    0  0.13825910961E+03 -0.11091892539E+03 -0.15100714674E+03  0.23285563718E+03  0.00000000000E+00 0. -1.
         21    1    1    2  502  501  0.76915964671E+02  0.77548937256E+01 -0.90781934517E+02  0.11923742547E+03  0.00000000000E+00 0. -1.
<scales pt_clust_5="13000.00000" pt_clust_6="13000.00000" pt_clust_7="13000.00000" pt_clust_8="13000.00000" pt_clust_9="77.30591"></scales>
<clustering>
<clus scale="   58.138">  5  6 -1 -1</clus>
<clus scale="   77.306">  2  9  1 -1</clus>
<clus scale="   90.736">  7  8 -1 -1</clus>
<clus scale="  291.415">  2  5  1 -1</clus>
<clus scale="   77.306">  2  5  1 -1</clus>
</clustering>
</event>
<event>
 9    2  0.2869112E-005  0.1128413E+03  0.7546771E-02  0.1259973E+00
         -1   -1    0    0    0  501 -0.00000000000E+00  0.00000000000E+00  0.19948935834E+02  0.19948935834E+02  0.00000000000E+00 0.  1.
          2   -1    0    0  502    0  0.00000000000E+00 -0.00000000000E+00 -0.82544966664E+03  0.82544966664E+03  0.00000000000E+00 0. -1.
         24    2    1    2    0    0 -0.65250689709E+02  0.15572731866E+02 -0.24474453167E+03  0.26609277016E+03  0.80033206004E+02 0.  0.
         23    2    1    2    0    0  0.64833524230E+02  0.10644633700E+02 -0.50701525610E+03  0.51950940062E+03  0.92243446002E+02 0.  0.
        -11    1    3    3    0    0 -0.79656481044E+02  0.22610695926E+01 -0.15563447620E+03  0.17484952843E+03  0.00000000000E+00 0.  1.
         12    1    3    3    0    0  0.14405791336E+02  0.13311662274E+02 -0.89110055464E+02  0.91243241730E+02  0.00000000000E+00 0. -1.
        -11    1    4    4    0    0  0.84452367973E+02  0.25891910092E+02 -0.38793839072E+03  0.39786780274E+03  0.00000000000E+00 0.  1.
         11    1    4    4    0    0 -0.19618843742E+02 -0.15247276391E+02 -0.11907686538E+03  0.12164159788E+03  0.00000000000E+00 0. -1.
         21    1    1    2  502  501  0.41716547832E+00 -0.26217365567E+02 -0.53740943037E+02  0.59796431689E+02  0.00000000000E+00 0.  1.
<scales pt_clust_5="13000.00000" pt_clust_6="13000.00000" pt_clust_7="13000.00000" pt_clust_8="13000.00000" pt_clust_9="26.22068"></scales>
<clustering>
<clus scale="   26.221">  1  9  2 -1</clus>
<clus scale="   80.033">  5  6 -1 -1</clus>
<clus scale="   92.243">  7  8 -1 -1</clus>
<clus scale="  103.100">  1  5  2 -1</clus>
<clus scale="  112.841">  2  5  1 -1</clus>
</clustering>
</event>
<event>
 9    2  0.2869112E-005  0.1033376E+03  0.7546771E-02  0.1278721E+00
          2   -1    0    0  502    0  0.00000000000E+00  0.00000000000E+00  0.30481516927E+03  0.30481516927E+03  0.00000000000E+00 0. -1.
         -1   -1    0    0    0  501 -0.00000000000E+00 -0.00000000000E+00 -0.29939942063E+03  0.29939942063E+03  0.00000000000E+00 0.  1.
         23    2    1    2    0    0 -0.12438382871E+02 -0.32815843887E+02 -0.54427995764E+02  0.11253728500E+03  0.92036084300E+02 0.  0.
         24    2    1    2    0    0  0.46358084189E+02  0.16726160117E+02  0.26590909748E+03  0.28222002096E+03  0.80694830722E+02 0.  0.
        -11    1    4    4    0    0 -0.66680575595E+01  0.35751325971E+02  0.78272744380E+02  0.86308996130E+02  0.00000000000E+00 0.  1.
         12    1    4    4    0    0  0.53026141749E+02 -0.19025165853E+02  0.18763635310E+03  0.19591102483E+03  0.00000000000E+00 0. -1.
        -11    1    3    3    0    0 -0.52180703101E+02 -0.11687971892E+02 -0.28513228097E+02  0.60600648838E+02  0.00000000000E+00 0.  1.
         11    1    3    3    0    0  0.39742320230E+02 -0.21127871996E+02 -0.25914767667E+02  0.51936636160E+02  0.00000000000E+00 0. -1.
         21    1    1    2  502  501 -0.33919701318E+02  0.16089683770E+02 -0.20606535307E+03  0.20945728394E+03  0.00000000000E+00 0.  1.
<scales pt_clust_5="13000.00000" pt_clust_6="13000.00000" pt_clust_7="13000.00000" pt_clust_8="13000.00000" pt_clust_9="37.54230"></scales>
<clustering>
<clus scale="   37.542">  2  9  1 -1</clus>
<clus scale="   80.695">  5  6 -1 -1</clus>
<clus scale="   92.036">  7  8 -1 -1</clus>
<clus scale="   93.379">  1  5  2 -1</clus>
<clus scale="   93.379">  1  5  2 -1</clus>
</clustering>
</event>
<event>
 9    2  0.2869112E-005  0.8814672E+02  0.7546771E-02  0.1311411E+00
         -1   -1    0    0    0  501 -0.00000000000E+00  0.00000000000E+00  0.20669981088E+03  0.20669981088E+03  0.00000000000E+00 0.  1.
          2   -1    0    0  502    0  0.00000000000E+00 -0.00000000000E+00 -0.74139123024E+02  0.74139123024E+02  0.00000000000E+00 0. -1.
         23    2    1    2    0    0 -0.23380043432E+02 -0.55078347389E+01  0.12028390307E+03  0.14969438412E+03  0.85809257229E+02 0.  0.
         24    2    1    2    0    0 -0.12344899264E+02  0.23396245596E+02 -0.11714759095E+02  0.84541320801E+02  0.79436883728E+02 0.  0.
        -11    1    4    4    0    0  0.20460863905E+02 -0.14239999945E+02  0.13777958676E+02  0.28482568274E+02  0.00000000000E+00 0.  1.
         12    1    4    4    0    0 -0.32805763170E+02  0.37636245541E+02 -0.25492717771E+02  0.56058752528E+02  0.00000000000E+00 0. -1.
        -13    1    3    3    0    0  0.95097802026E+01  0.35200950395E+02  0.55603897122E+02  0.66493128994E+02  0.00000000000E+00 0.  1.
         13    1    3    3    0    0 -0.32889823634E+02 -0.40708785134E+02  0.64680005946E+02  0.83201255128E+02  0.00000000000E+00 0. -1.
         21    1    1    2  502  501  0.35724942696E+02 -0.17888410857E+02  0.23991543887E+02  0.46603228984E+02  0.00000000000E+00 0.  1.
<scales pt_clust_5="13000.00000" pt_clust_6="13000.00000" pt_clust_7="13000.00000" pt_clust_8="13000.00000" pt_clust_9="39.95331"></scales>
<clustering>
<clus scale="   39.953">  1  9  2 -1</clus>
<clus scale="   79.437">  5  6 -1 -1</clus>
<clus scale="   81.956">  2  5  1 -1</clus>
<clus scale="   85.809">  7  8 -1 -1</clus>
<clus scale="   81.956">  2  5  1 -1</clus>
</clustering>
</event>
<event>
 9    2  0.2869112E-005  0.9608346E+02  0.7546771E-02  0.1294796E+00
         -1   -1    0    0    0  501 -0.00000000000E+00  0.00000000000E+00  0.24270430710E+03  0.24270430710E+03  0.00000000000E+00 0.  1.
          2   -1    0    0  502    0  0.00000000000E+00 -0.00000000000E+00 -0.25226793094E+03  0.25226793094E+03  0.00000000000E+00 0. -1.
         23    2    1    2    0    0  0.24403417428E+02 -0.69684009349E+02  0.12436921971E+03  0.17137569543E+03  0.91926809096E+02 0.  0.
         24    2    1    2    0    0  0.10648434306E+02  0.24116441886E+02 -0.21091297233E+03  0.22751857562E+03  0.81150652695E+02 0.  0.
        -13    1    4    4    0    0 -0.33628983068E+02  0.11391393074E+02 -0.59877484020E+02  0.69613112493E+02  0.00000000000E+00 0.  1.
         14    1    4    4    0    0  0.44277417374E+02  0.12725048813E+02 -0.15103548831E+03  0.15790546313E+03  0.00000000000E+00 0. -1.
        -11    1    3    3    0    0  0.24095028052E+02 -0.15963975780E+02 -0.67472635167E+01  0.29680708626E+02  0.00000000000E+00 0. -1.
         11    1    3    3    0    0  0.30838937581E+00 -0.53720033569E+02  0.13111648323E+03  0.14169498680E+03  0.00000000000E+00 0.  1.
         21    1    1    2  502  501 -0.35051851734E+02  0.45567567463E+02  0.76980128772E+02  0.96077966987E+02  0.00000000000E+00 0.  1.
<scales pt_clust_5="13000.00000" pt_clust_6="13000.00000" pt_clust_7="13000.00000" pt_clust_8="13000.00000" pt_clust_9="57.48944"></scales>
<clustering>
<clus scale="   57.489">  1  9  2 -1</clus>
<clus scale="   81.151">  5  6 -1 -1</clus>
<clus scale="   85.831">  2  5  1 -1</clus>
<clus scale="   91.927">  7  8 -1 -1</clus>
<clus scale="   85.831">  2  5  1 -1</clus>
</clustering>
</event>
<event>
 9    2  0.2869112E-005  0.9172136E+02  0.7546771E-02  0.1305066E+00
         -1   -1    0    0    0  501 -0.00000000000E+00  0.00000000000E+00  0.12770578813E+03  0.12770578813E+03  0.00000000000E+00 0.  1.
          2   -1    0    0  502    0  0.00000000000E+00 -0.00000000000E+00 -0.11164939258E+03  0.11164939258E+03  0.00000000000E+00 0. -1.
         23    2    1    2    0    0  0.16296525078E+02  0.33044895219E+02  0.47404482415E+02  0.10847532496E+03  0.90344725039E+02 0.  0.
         24    2    1    2    0    0  0.58377901312E+01 -0.10766545065E+02 -0.49160494757E+02  0.94775359209E+02  0.80097541674E+02 0.  0.
        -11    1    4    4    0    0 -0.25580244941E+02  0.92654403511E+01  0.63321217149E+01  0.27933726596E+02  0.00000000000E+00 0.  1.
         12    1    4    4    0    0  0.31418035072E+02 -0.20031985416E+02 -0.55492616472E+02  0.66841632613E+02  0.00000000000E+00 0. -1.
        -13    1    3    3    0    0  0.42424067261E+02  0.47127626364E+02  0.46761158022E+02  0.78787185184E+02  0.00000000000E+00 0.  1.
         13    1    3    3    0    0 -0.26127542183E+02 -0.14082731145E+02  0.64332439253E+00  0.29688139775E+02  0.00000000000E+00 0. -1.
         21    1    1    2  502  501 -0.22134315209E+02 -0.22278350154E+02  0.17812407889E+02  0.36104496536E+02  0.00000000000E+00 0. -1.
<scales pt_clust_5="13000.00000" pt_clust_6="13000.00000" pt_clust_7="13000.00000" pt_clust_8="13000.00000" pt_clust_9="31.40466"></scales>
<clustering>
<clus scale="   31.405">  1  9  2 -1</clus>
<clus scale="   80.098">  5  6 -1 -1</clus>
<clus scale="   81.647">  2  5  1 -1</clus>
<clus scale="   90.345">  7  8 -1 -1</clus>
<clus scale="   81.647">  2  5  1 -1</clus>
</clustering>
</event>
<event>
 9    2  0.2869112E-005  0.1438653E+03  0.7546771E-02  0.1211314E+00
          2   -1    0    0  502    0  0.00000000000E+00  0.00000000000E+00  0.19481239908E+04  0.19481239908E+04  0.00000000000E+00 0. -1.
         -1   -1    0    0    0  501 -0.00000000000E+00 -0.00000000000E+00 -0.32015167802E+02  0.32015167802E+02  0.00000000000E+00 0.  1.
         23    2    1    2    0    0  0.23363823144E+02  0.87129250251E+02  0.35419394192E+03  0.37717867387E+03  0.93129098859E+02 0.  0.
         24    2    1    2    0    0 -0.26964503742E+02 -0.11163981486E+03  0.15705818887E+04  0.15767145384E+04  0.78171183270E+02 0.  0.
        -13    1    4    4    0    0 -0.35441149119E+01 -0.35024089490E+02  0.15852112993E+03  0.16238286926E+03  0.00000000000E+00 0.  1.
         14    1    4    4    0    0 -0.23420388830E+02 -0.76615725370E+02  0.14120607588E+04  0.14143316692E+04  0.00000000000E+00 0. -1.
        -11    1    3    3    0    0 -0.25925433596E+02 -0.18064970909E+01  0.48595921174E+02  0.55108575500E+02  0.00000000000E+00 0. -1.
         11    1    3    3    0    0  0.49289256740E+02  0.88935747342E+02  0.30559802074E+03  0.32207009837E+03  0.00000000000E+00 0.  1.
         21    1    1    2  502  501  0.36006805980E+01  0.24510564608E+02 -0.86670075790E+01  0.26245946326E+02  0.00000000000E+00 0.  1.
<scales pt_clust_5="13000.00000" pt_clust_6="13000.00000" pt_clust_7="13000.00000" pt_clust_8="13000.00000" pt_clust_9="24.77363"></scales>
<clustering>
<clus scale="   24.774">  2  9  1 -1</clus>
<clus scale="   78.171">  5  6 -1 -1</clus>
<clus scale="   93.129">  7  8 -1 -1</clus>
<clus scale="  134.666">  1  5  2 -1</clus>
<clus scale="  134.666">  1  5  2 -1</clus>
</clustering>
</event>
<event>
 9    2  0.2869112E-005  0.2740715E+03  0.7546771E-02  0.1099330E+00
         -1   -1    0    0    0  501 -0.00000000000E+00  0.00000000000E+00  0.26964786091E+03  0.26964786091E+03  0.00000000000E+00 0.  1.
          2   -1    0    0  502    0  0.00000000000E+00 -0.00000000000E+00 -0.37765260913E+03  0.37765260913E+03  0.00000000000E+00 0. -1.
         24    2    1    2    0    0  0.50857090473E+02 -0.24592235326E+03  0.44281649741E+01  0.26914160405E+03  0.96712702903E+02 0.  0.
         23    2    1    2    0    0 -0.86828686890E+02  0.24547544592E+03 -0.16010821638E+03  0.31843374556E+03  0.89263620506E+02 0.  0.
        -13    1    3    3    0    0  0.41180207151E+02 -0.23345799324E+03  0.30143375593E+02  0.23897085002E+03  0.00000000000E+00 0.  1.
         14    1    3    3    0    0  0.96768833223E+01 -0.12464360021E+02 -0.25715210619E+02  0.30170754030E+02  0.00000000000E+00 0. -1.
        -13    1    4    4    0    0 -0.27122044930E+02  0.16077674151E+03 -0.58286705122E+02  0.17315341731E+03  0.00000000000E+00 0.  1.
         13    1    4    4    0    0 -0.59706641960E+02  0.84698704404E+02 -0.10182151126E+03  0.14528032825E+03  0.00000000000E+00 0. -1.
         21    1    1    2  502  501  0.35971596417E+02  0.44690734392E+00  0.47675303187E+02  0.59725120418E+02  0.00000000000E+00 0.  1.
<scales pt_clust_5="13000.00000" pt_clust_6="13000.00000" pt_clust_7="13000.00000" pt_clust_8="13000.00000" pt_clust_9="35.97437"></scales>
<clustering>
<clus scale="   35.974">  1  9  2 -1</clus>
<clus scale="   89.264">  7  8 -1 -1</clus>
<clus scale="   96.713">  5  6 -1 -1</clus>
<clus scale="  271.532">  2  7  1 -1</clus>
<clus scale="  271.532">  2  5  1 -1</clus>
</clustering>
</event>
<event>
 9    2  0.2869112E-005  0.1086892E+03  0.7546771E-02  0.1267038E+00
          2   -1    0    0  502    0  0.00000000000E+00  0.00000000000E+00  0.12911549092E+04  0.12911549092E+04  0.00000000000E+00 0. -1.
         -1   -1    0    0    0  501 -0.00000000000E+00 -0.00000000000E+00 -0.32272634286E+03  0.32272634286E+03  0.00000000000E+00 0.  1.
         23    2    1    2    0    0  0.52070129132E+02 -0.56008684441E+02 -0.14806375030E+03  0.18995785634E+03  0.91174787922E+02 0.  0.
         24    2    1    2    0    0 -0.18084418446E+02  0.37731902449E+02  0.12654263473E+04  0.12700714710E+04  0.10013470085E+03 0.  0.
        -11    1    4    4    0    0  0.20812771672E+02  0.20324583939E+02  0.10765684098E+03  0.11151796082E+03  0.00000000000E+00 0.  1.
         12    1    4    4    0    0 -0.38897190117E+02  0.17407318510E+02  0.11577695063E+04  0.11585535101E+04  0.00000000000E+00 0. -1.
        -11    1    3    3    0    0 -0.68955861675E+01 -0.21652989320E+02 -0.10895979170E+03  0.11130425537E+03  0.00000000000E+00 0.  1.
         11    1    3    3    0    0  0.58965715300E+02 -0.34355695122E+02 -0.39103958594E+02  0.78653600972E+02  0.00000000000E+00 0. -1.
         21    1    1    2  502  501 -0.33985710687E+02  0.18276781993E+02 -0.14893403060E+03  0.15385192479E+03  0.00000000000E+00 0.  1.
<scales pt_clust_5="13000.00000" pt_clust_6="13000.00000" pt_clust_7="13000.00000" pt_clust_8="13000.00000" pt_clust_9="38.58846"></scales>
<clustering>
<clus scale="   38.588">  2  9  1 -1</clus>
<clus scale="   91.175">  7  8 -1 -1</clus>
<clus scale="  100.135">  5  6 -1 -1</clus>
<clus scale="  100.495">  2  7  1 -1</clus>
<clus scale="  108.689">  1  5  2 -1</clus>
</clustering>
</event>
<event>
 9    2  0.2869112E-005  0.9264203E+02  0.7546771E-02  0.1309947E+00
         -1   -1    0    0    0  501 -0.00000000000E+00  0.00000000000E+00  0.34978017530E+03  0.34978017530E+03  0.00000000000E+00 0.  1.
          2   -1    0    0  502    0  0.00000000000E+00 -0.00000000000E+00 -0.31975238139E+03  0.31975238139E+03  0.00000000000E+00 0. -1.
         23    2    1    2    0    0 -0.32085400772E+02  0.17807006951E+01  0.26221258238E+02  0.10024809826E+03  0.91266001250E+02 0.  0.
         24    2    1    2    0    0 -0.19226023713E+02  0.34573880298E+01 -0.27557768950E+03  0.28517911682E+03  0.70728157056E+02 0.  0.
        -11    1    4    4    0    0 -0.30012392595E+02  0.28705591065E+02 -0.11495701894E+03  0.12222876450E+03  0.00000000000E+00 0.  1.
         12    1    4    4    0    0  0.10786368882E+02 -0.25248203036E+02 -0.16062067056E+03  0.16295035232E+03  0.00000000000E+00 0. -1.
        -11    1    3    3    0    0  0.11869603091E+02 -0.33142378376E+02  0.26573487730E+02  0.44107312002E+02  0.00000000000E+00 0.  1.
         11    1    3    3    0    0 -0.43955003863E+02  0.34923079071E+02 -0.35222949155E+00  0.56140786261E+02  0.00000000000E+00 0. -1.
         21    1    1    2  502  501  0.51311424485E+02 -0.52380887249E+01  0.27938422517E+03  0.28410534160E+03  0.00000000000E+00 0.  1.
<scales pt_clust_5="13000.00000" pt_clust_6="13000.00000" pt_clust_7="13000.00000" pt_clust_8="13000.00000" pt_clust_9="51.57809"></scales>
<clustering>
<clus scale="   51.578">  1  9  2 -1</clus>
<clus scale="   70.728">  5  6 -1 -1</clus>
<clus scale="   72.495">  2  5  1 -1</clus>
<clus scale="   91.266">  7  8 -1 -1</clus>
<clus scale="   72.495">  2  5  1 -1</clus>
</clustering>
</event>
<event>
 9    2  0.2869112E-005  0.1985845E+03  0.7546771E-02  0.1170062E+00
          2   -1    0    0  502    0  0.00000000000E+00  0.00000000000E+00  0.71536312218E+03  0.71536312218E+03  0.00000000000E+00 0. -1.
         -1   -1    0    0    0  501 -0.00000000000E+00 -0.00000000000E+00 -0.12645811596E+03  0.12645811596E+03  0.00000000000E+00 0.  1.
         23    2    1    2    0    0  0.12942069908E+03  0.13217605350E+02  0.32646194373E+03  0.36322415292E+03  0.91814825166E+02 0.  0.
         24    2    1    2    0    0  0.31386573563E+02  0.93715107010E+02  0.25539184538E+03  0.28535292989E+03  0.80210109273E+02 0.  0.
        -13    1    4    4    0    0  0.14916275677E+02  0.79768365080E+02  0.25037172587E+03  0.26319477286E+03  0.00000000000E+00 0.  1.
         14    1    4    4    0    0  0.16470297886E+02  0.13946741930E+02  0.50201195068E+01  0.22158157026E+02  0.00000000000E+00 0. -1.
        -13    1    3    3    0    0  0.39280356226E+02  0.29205313908E+02  0.42345339979E+02  0.64722674262E+02  0.00000000000E+00 0.  1.
         13    1    3    3    0    0  0.90140342850E+02 -0.15987708559E+02  0.28411660375E+03  0.29850147866E+03  0.00000000000E+00 0. -1.
         21    1    1    2  502  501 -0.16080727264E+03 -0.10693271236E+03  0.70512171125E+01  0.19324415533E+03  0.00000000000E+00 0. -1.
<scales pt_clust_5="13000.00000" pt_clust_6="13000.00000" pt_clust_7="13000.00000" pt_clust_8="13000.00000" pt_clust_9="176.08480"></scales>
<clustering>
<clus scale="   80.210">  5  6 -1 -1</clus>
<clus scale="   91.815">  7  8 -1 -1</clus>
<clus scale="  127.284">  1  5  2 -1</clus>
<clus scale="  176.085">  2  9  1 -1</clus>
<clus scale="  127.284">  1  5  2 -1</clus>
</clustering>
</event>
<event>
 9    2  0.2869112E-005  0.1027491E+03  0.7546771E-02  0.1284397E+00
          2   -1    0    0  502    0  0.00000000000E+00  0.00000000000E+00  0.37447187932E+03  0.37447187932E+03  0.00000000000E+00 0. -1.
         -1   -1    0    0    0  501 -0.00000000000E+00 -0.00000000000E+00 -0.72251563055E+02  0.72251563055E+02  0.00000000000E+00 0.  1.
         23    2    1    2    0    0  0.28868573316E+02  0.15849470431E+02 -0.16664777058E+02  0.10565770514E+03  0.99001190008E+02 0.  0.
         24    2    1    2    0    0 -0.27234640903E+02  0.43367897228E+01  0.30449600410E+03  0.31622221247E+03  0.80734984584E+02 0.  0.
        -11    1    4    4    0    0 -0.14956655084E+01  0.21403652303E+02  0.17829733278E+02  0.27897181507E+02  0.00000000000E+00 0.  1.
         12    1    4    4    0    0 -0.25738975394E+02 -0.17066862581E+02  0.28666627082E+03  0.28832503096E+03  0.00000000000E+00 0. -1.
        -13    1    3    3    0    0 -0.83981195326E+01  0.42414123000E+02 -0.35719731018E+02  0.56083735838E+02  0.00000000000E+00 0.  1.
         13    1    3    3    0    0  0.37266692848E+02 -0.26564652569E+02  0.19054953960E+02  0.49573969303E+02  0.00000000000E+00 0. -1.
         21    1    1    2  502  501 -0.16339324132E+01 -0.20186260153E+02  0.14389089222E+02  0.24843524765E+02  0.00000000000E+00 0. -1.
<scales pt_clust_5="13000.00000" pt_clust_6="13000.00000" pt_clust_7="13000.00000" pt_clust_8="13000.00000" pt_clust_9="20.25228"></scales>
<clustering>
<clus scale="   20.252">  2  9  1 -1</clus>
<clus scale="   80.735">  5  6 -1 -1</clus>
<clus scale="   85.289">  1  5  2 -1</clus>
<clus scale="   99.001">  7  8 -1 -1</clus>
<clus scale="   85.289">  1  5  2 -1</clus>
</clustering>
</event>
<event>
 9    2  0.2869112E-005  0.9445190E+02  0.7546771E-02  0.1293039E+00
          2   -1    0    0  502    0  0.00000000000E+00  0.00000000000E+00  0.27563697845E+03  0.27563697845E+03  0.00000000000E+00 0. -1.
         -1   -1    0    0    0  501 -0.00000000000E+00 -0.00000000000E+00 -0.11455789703E+03  0.11455789703E+03  0.00000000000E+00 0.  1.
         24    2    1    2    0    0  0.29149703255E+02  0.49335658435E+01 -0.13110350230E+02  0.93180985745E+02  0.87388612241E+02 0.  0.
         23    2    1    2    0    0 -0.27953126465E+02  0.20974389716E+02  0.22259476474E+03  0.24209822505E+03  0.88554045515E+02 0.  0.
        -11    1    3    3    0    0  0.16342416404E+02 -0.26976550473E+02  0.26165253013E+02  0.40980840823E+02  0.00000000000E+00 0.  1.
         12    1    3    3    0    0  0.12807286851E+02  0.31910116316E+02 -0.39275603242E+02  0.52200144922E+02  0.00000000000E+00 0. -1.
        -13    1    4    4    0    0 -0.23760410948E+02  0.55452193392E+02  0.14750605460E+03  0.15936605355E+03  0.00000000000E+00 0. -1.
         13    1    4    4    0    0 -0.41927155169E+01 -0.34477803677E+02  0.75088710144E+02  0.82732171499E+02  0.00000000000E+00 0.  1.
         21    1    1    2  502  501 -0.11965767895E+01 -0.25907955559E+02 -0.48405333086E+02  0.54915664690E+02  0.00000000000E+00 0.  1.
<scales pt_clust_5="13000.00000" pt_clust_6="13000.00000" pt_clust_7="13000.00000" pt_clust_8="13000.00000" pt_clust_9="25.93557"></scales>
<clustering>
<clus scale="   25.936">  2  9  1 -1</clus>
<clus scale="   87.389">  5  6 -1 -1</clus>
<clus scale="   88.554">  7  8 -1 -1</clus>
<clus scale="   93.360">  2  5  1 -1</clus>
<clus scale="   94.452">  1  5  2 -1</clus>
</clustering>
</event>
<event>
 9    2  0.2869112E-005  0.2326533E+03  0.7546771E-02  0.1124786E+00
         -1   -1    0    0    0  501 -0.00000000000E+00  0.00000000000E+00  0.90015311807E+02  0.90015311807E+02  0.00000000000E+00 0.  1.
          2   -1    0    0  502    0  0.00000000000E+00 -0.00000000000E+00 -0.63284679350E+03  0.63284679350E+03  0.00000000000E+00 0. -1.
         24    2    1    2    0    0  0.13106483179E+01 -0.50933641030E+02 -0.20115649733E+03  0.22228909335E+03  0.79702892138E+02 0.  0.
         23    2    1    2    0    0 -0.27122269520E+02 -0.99502118027E+02 -0.31733893201E+03  0.34601104757E+03  0.91560680844E+02 0.  0.
        -11    1    3    3    0    0  0.23512112199E+02  0.55796093440E+01 -0.20457170395E+02  0.31661447867E+02  0.00000000000E+00 0.  1.
         12    1    3    3    0    0 -0.22201463881E+02 -0.56513250374E+02 -0.18069932694E+03  0.19062764548E+03  0.00000000000E+00 0. -1.
        -11    1    4    4    0    0 -0.53232866267E+02 -0.42090940977E+02 -0.21821002770E+03  0.22851914920E+03  0.00000000000E+00 0. -1.
         11    1    4    4    0    0  0.26110596747E+02 -0.57411177050E+02 -0.99128904314E+02  0.11749189837E+03  0.00000000000E+00 0.  1.
         21    1    1    2  502  501  0.25811621202E+02  0.15043575906E+03 -0.24336052355E+02  0.15456196439E+03  0.00000000000E+00 0.  1.
<scales pt_clust_5="13000.00000" pt_clust_6="13000.00000" pt_clust_7="13000.00000" pt_clust_8="13000.00000" pt_clust_9="152.63406"></scales>
<clustering>
<clus scale="   79.703">  5  6 -1 -1</clus>
<clus scale="   91.561">  7  8 -1 -1</clus>
<clus scale="   92.976">  5  7 -1 -1</clus>
<clus scale="  152.634">  1  9  2 -1</clus>
<clus scale="  232.653">  2  5  1 -1</clus>
</clustering>
</event>
<event>
 9    2  0.2869112E-005  0.9976400E+02  0.7546771E-02  0.1285805E+00
         -1   -1    0    0    0  501 -0.00000000000E+00  0.00000000000E+00  0.45057647052E+03  0.45057647052E+03  0.00000000000E+00 0.  1.
          2   -1    0    0  502    0  0.00000000000E+00 -0.00000000000E+00 -0.30108894970E+02  0.30108894970E+02  0.00000000000E+00 0. -1.
         23    2    1    2    0    0  0.33280227962E+02 -0.42758980515E+02  0.26521468143E+03  0.28562602391E+03  0.91145456847E+02 0.  0.
         24    2    1    2    0    0 -0.10299298482E+02  0.34434294225E+02  0.94888177235E+02  0.12993390441E+03  0.81161919442E+02 0.  0.
        -13    1    4    4    0    0  0.23309200901E+02  0.22371323464E+01  0.76307840843E+02  0.79819860824E+02  0.00000000000E+00 0.  1.
         14    1    4    4    0    0 -0.33608499384E+02  0.32197161879E+02  0.18580336392E+02  0.50114043584E+02  0.00000000000E+00 0. -1.
        -13    1    3    3    0    0  0.21552484399E+02 -0.69829456117E+02  0.15237491944E+03  0.16899342769E+03  0.00000000000E+00 0.  1.
         13    1    3    3    0    0  0.11727743563E+02  0.27070475601E+02  0.11283976198E+03  0.11663259623E+03  0.00000000000E+00 0. -1.
         21    1    1    2  502  501 -0.22980929480E+02  0.83246862902E+01  0.60364716883E+02  0.65125437165E+02  0.00000000000E+00 0. -1.
<scales pt_clust_5="13000.00000" pt_clust_6="13000.00000" pt_clust_7="13000.00000" pt_clust_8="13000.00000" pt_clust_9="24.44225"></scales>
<clustering>
<clus scale="   24.442">  1  9  2 -1</clus>
<clus scale="   81.162">  5  6 -1 -1</clus>
<clus scale="   90.734">  2  5  1 -1</clus>
<clus scale="   91.145">  7  8 -1 -1</clus>
<clus scale="   90.734">  2  5  1 -1</clus>
</clustering>
</event>
<event>
 9    2  0.2869112E-005  0.1004784E+03  0.7546771E-02  0.1285547E+00
          2   -1    0    0  502    0  0.00000000000E+00  0.00000000000E+00  0.69577182739E+03  0.69577182739E+03  0.00000000000E+00 0. -1.
         -1   -1    0    0    0  501 -0.00000000000E+00 -0.00000000000E+00 -0.10026262612E+03  0.10026262612E+03  0.00000000000E+00 0.  1.
         23    2    1    2    0    0 -0.55044401734E+02 -0.27676242185E+02 -0.58280729462E+02  0.12564999310E+03  0.92711470678E+02 0.  0.
         24    2    1    2    0    0  0.31098717579E+02  0.21802664077E+02  0.62958553292E+03  0.63583380799E+03  0.80400259488E+02 0.  0.
        -11    1    4    4    0    0  0.19910423950E+02 -0.13683504113E+02  0.55333956730E+02  0.60378059211E+02  0.00000000000E+00 0.  1.
         12    1    4    4    0    0  0.11188293630E+02  0.35486168190E+02  0.57425157619E+03  0.57545574878E+03  0.00000000000E+00 0. -1.
        -11    1    3    3    0    0 -0.77130263617E+02 -0.18424373174E+01 -0.43677661998E+02  0.88657827058E+02  0.00000000000E+00 0.  1.
         11    1    3    3    0    0  0.22085861883E+02 -0.25833804867E+02 -0.14603067464E+02  0.36992166041E+02  0.00000000000E+00 0. -1.
         21    1    1    2  502  501  0.23945684155E+02  0.58735781076E+01  0.24204397801E+02  0.34550652415E+02  0.00000000000E+00 0. -1.
<scales pt_clust_5="13000.00000" pt_clust_6="13000.00000" pt_clust_7="13000.00000" pt_clust_8="13000.00000" pt_clust_9="24.65552"></scales>
<clustering>
<clus scale="   24.656">  2  9  1 -1</clus>
<clus scale="   80.400">  5  6 -1 -1</clus>
<clus scale="   89.245">  1  5  2 -1</clus>
<clus scale="   92.711">  7  8 -1 -1</clus>
<clus scale="   89.245">  1  5  2 -1</clus>
</clustering>
</event>
<event>
 9    2  0.2869112E-005  0.9911852E+02  0.7546771E-02  0.1287279E+00
          2   -1    0    0  502    0  0.00000000000E+00  0.00000000000E+00  0.33473720562E+03  0.33473720562E+03  0.00000000000E+00 0. -1.
         -1   -1    0    0    0  501 -0.00000000000E+00 -0.00000000000E+00 -0.91344712144E+02  0.91344712144E+02  0.00000000000E+00 0.  1.
         23    2    1    2    0    0  0.68148087393E+02 -0.18814463752E+02 -0.20899851595E+02  0.11706513113E+03  0.90935665546E+02 0.  0.
         24    2    1    2    0    0 -0.36241804424E+02 -0.41515650609E+01  0.25301033596E+03  0.26811772672E+03  0.80883752390E+02 0.  0.
        -11    1    4    4    0    0 -0.19344166622E+01 -0.38022067449E+02  0.81380730150E+02  0.89845661112E+02  0.00000000000E+00 0.  1.
         12    1    4    4    0    0 -0.34307387762E+02  0.33870502388E+02  0.17162960581E+03  0.17827206561E+03  0.00000000000E+00 0. -1.
        -13    1    3    3    0    0  0.37645360704E+02  0.22084508286E+02 -0.43176396314E+02  0.61392995426E+02  0.00000000000E+00 0.  1.
         13    1    3    3    0    0  0.30502726690E+02 -0.40898972038E+02  0.22276544719E+02  0.55672135705E+02  0.00000000000E+00 0. -1.
         21    1    1    2  502  501 -0.31906282969E+02  0.22966028813E+02  0.11282009120E+02  0.40899059918E+02  0.00000000000E+00 0.  1.
<scales pt_clust_5="13000.00000" pt_clust_6="13000.00000" pt_clust_7="13000.00000" pt_clust_8="13000.00000" pt_clust_9="39.31220"></scales>
<clustering>
<clus scale="   39.312">  2  9  1 -1</clus>
<clus scale="   80.884">  5  6 -1 -1</clus>
<clus scale="   89.985">  1  5  2 -1</clus>
<clus scale="   90.936">  7  8 -1 -1</clus>
<clus scale="   89.985">  1  5  2 -1</clus>
</clustering>
</event>
<event>
 9    2  0.2869112E-005  0.9308710E+02  0.7546771E-02  0.1299106E+00
         -3   -1    0    0    0  501 -0.00000000000E+00  0.00000000000E+00  0.11275928533E+03  0.11275928533E+03  0.00000000000E+00 0.  1.
          4   -1    0    0  502    0  0.00000000000E+00 -0.00000000000E+00 -0.16120979929E+03  0.16120979929E+03  0.00000000000E+00 0. -1.
         23    2    1    2    0    0  0.86539727450E+01  0.80137032472E+01  0.46434046226E+02  0.99602698415E+02  0.87323915387E+02 0.  0.
         24    2    1    2    0    0  0.14704684613E+01 -0.37558546388E+02 -0.10832741691E+03  0.14036473238E+03  0.80960621039E+02 0.  0.
        -11    1    4    4    0    0 -0.14649418766E+02 -0.25023520177E+02  0.11305931575E+01  0.29018274813E+02  0.00000000000E+00 0.  1.
         12    1    4    4    0    0  0.16119887228E+02 -0.12535026212E+02 -0.10945801006E+03  0.11134645757E+03  0.00000000000E+00 0. -1.
        -11    1    3    3    0    0  0.29320640995E+02 -0.24982610530E+02  0.46867361774E+02  0.60666138965E+02  0.00000000000E+00 0.  1.
         11    1    3    3    0    0 -0.20666668250E+02  0.32996313777E+02 -0.43331554750E+00  0.38936559450E+02  0.00000000000E+00 0. -1.
         21    1    1    2  502  501 -0.10124441206E+02  0.29544843141E+02  0.13442856724E+02  0.34001653826E+02  0.00000000000E+00 0.  1.
<scales pt_clust_5="13000.00000" pt_clust_6="13000.00000" pt_clust_7="13000.00000" pt_clust_8="13000.00000" pt_clust_9="31.23143"></scales>
<clustering>
<clus scale="   31.231">  1  9  2 -1</clus>
<clus scale="   80.961">  5  6 -1 -1</clus>
<clus scale="   87.146">  2  5  1 -1</clus>
<clus scale="   87.324">  7  8 -1 -1</clus>
<clus scale="   87.146">  2  5  1 -1</clus>
</clustering>
</event>
<event>
 9    2  0.2869112E-005  0.9855051E+02  0.7546771E-02  0.1290079E+00
         -3   -1    0    0    0  501 -0.00000000000E+00  0.00000000000E+00  0.15877628145E+03  0.15877628145E+03  0.00000000000E+00 0.  1.
          4   -1    0    0  502    0  0.00000000000E+00 -0.00000000000E+00 -0.15559389365E+03  0.15559389365E+03  0.00000000000E+00 0. -1.
         23    2    1    2    0    0  0.20208885431E+02 -0.66120995603E+01  0.10127841102E+03  0.13810719963E+03  0.91455798825E+02 0.  0.
         24    2    1    2    0    0 -0.12712457224E+02  0.37651166724E+02 -0.11104994406E+03  0.14180395356E+03  0.78721370961E+02 0.  0.
        -11    1    4    4    0    0 -0.68801656338E+01 -0.24453720125E+02 -0.38487685514E+02  0.46115323303E+02  0.00000000000E+00 0.  1.
         12    1    4    4    0    0 -0.58322915905E+01  0.62104886849E+02 -0.72562258542E+02  0.95688630257E+02  0.00000000000E+00 0. -1.
        -11    1    3    3    0    0 -0.68172538908E+01  0.32279099997E+02  0.79314510301E+02  0.85902309582E+02  0.00000000000E+00 0.  1.
         11    1    3    3    0    0  0.27026139322E+02 -0.38891199557E+02  0.21963900718E+02  0.52204890043E+02  0.00000000000E+00 0. -1.
         21    1    1    2  502  501 -0.74964282070E+01 -0.31039067164E+02  0.12953920831E+02  0.34459021912E+02  0.00000000000E+00 0.  1.
<scales pt_clust_5="13000.00000" pt_clust_6="13000.00000" pt_clust_7="13000.00000" pt_clust_8="13000.00000" pt_clust_9="31.93149"></scales>
<clustering>
<clus scale="   31.931">  1  9  2 -1</clus>
<clus scale="   78.721">  5  6 -1 -1</clus>
<clus scale="   86.862">  2  5  1 -1</clus>
<clus scale="   91.456">  7  8 -1 -1</clus>
<clus scale="   86.862">  2  5  1 -1</clus>
</clustering>
</event>
<event>
 9    2  0.2869112E-005  0.1247564E+03  0.7546771E-02  0.1238333E+00
         -3   -1    0    0    0  501 -0.00000000000E+00  0.00000000000E+00  0.54919671993E+02  0.54919671993E+02  0.00000000000E+00 0.  1.
          4   -1    0    0  502    0  0.00000000000E+00 -0.00000000000E+00 -0.40202791369E+03  0.40202791369E+03  0.00000000000E+00 0. -1.
         23    2    1    2    0    0 -0.60328223138E+02 -0.34267524806E+02 -0.60638273164E+02  0.12932222752E+03  0.90738528729E+02 0.  0.
         24    2    1    2    0    0  0.68568443877E+02  0.62201047870E+02 -0.26289758594E+03  0.29015750301E+03  0.80657510531E+02 0.  0.
        -11    1    4    4    0    0  0.29509874085E+02  0.17041213006E+02 -0.20206800930E+03  0.20492124339E+03  0.00000000000E+00 0.  1.
         12    1    4    4    0    0  0.39058569792E+02  0.45159834864E+02 -0.60829576638E+02  0.85236259615E+02  0.00000000000E+00 0. -1.
        -13    1    3    3    0    0  0.20572539830E+02 -0.14619614681E+02 -0.33119152261E+02  0.41639413720E+02  0.00000000000E+00 0. -1.
         13    1    3    3    0    0 -0.80900762969E+02 -0.19647910126E+02 -0.27519120903E+02  0.87682813803E+02  0.00000000000E+00 0.  1.
         21    1    1    2  502  501 -0.82402207384E+01 -0.27933523064E+02 -0.23572382586E+02  0.37467855148E+02  0.00000000000E+00 0.  1.
<scales pt_clust_5="13000.00000" pt_clust_6="13000.00000" pt_clust_7="13000.00000" pt_clust_8="13000.00000" pt_clust_9="29.12358"></scales>
<clustering>
<clus scale="   29.124">  1  9  2 -1</clus>
<clus scale="   80.658">  5  6 -1 -1</clus>
<clus scale="   90.739">  7  8 -1 -1</clus>
<clus scale="  117.628">  2  5  1 -1</clus>
<clus scale="  117.628">  2  5  1 -1</clus>
</clustering>
</event>
<event>
 9    2  0.2869112E-005  0.1410087E+03  0.7546771E-02  0.1213879E+00
         -1   -1    0    0    0  501 -0.00000000000E+00  0.00000000000E+00  0.86522523455E+02  0.86522523455E+02  0.00000000000E+00 0.  1.
          2   -1    0    0  502    0  0.00000000000E+00 -0.00000000000E+00 -0.36152468597E+03  0.36152468597E+03  0.00000000000E+00 0. -1.
         24    2    1    2    0    0 -0.28622255760E+02 -0.12349690163E+03 -0.99527756846E+02  0.18003761941E+03  0.80231239447E+02 0.  0.
         23    2    1    2    0    0  0.38363205621E+02  0.92652997865E+02 -0.18990212062E+03  0.23259220075E+03  0.89330861838E+02 0.  0.
        -13    1    3    3    0    0  0.15214663301E+02 -0.76567262911E+02 -0.25695890188E+02  0.82184612316E+02  0.00000000000E+00 0.  1.
         14    1    3    3    0    0 -0.43836919061E+02 -0.46929638716E+02 -0.73831866658E+02  0.97853007093E+02  0.00000000000E+00 0. -1.
        -11    1    4    4    0    0 -0.80942112916E+01  0.61061217855E+02 -0.42468029228E+02  0.74816589663E+02  0.00000000000E+00 0.  1.
         11    1    4    4    0    0  0.46457416912E+02  0.31591780010E+02 -0.14743409139E+03  0.15777561109E+03  0.00000000000E+00 0. -1.
         21    1    1    2  502  501 -0.97409498602E+01  0.30843903762E+02  0.14427714951E+02  0.35417389262E+02  0.00000000000E+00 0. -1.
<scales pt_clust_5="13000.00000" pt_clust_6="13000.00000" pt_clust_7="13000.00000" pt_clust_8="13000.00000" pt_clust_9="32.34552"></scales>
<clustering>
<clus scale="   32.346">  1  9  2 -1</clus>
<clus scale="   80.231">  5  6 -1 -1</clus>
<clus scale="   89.331">  7  8 -1 -1</clus>
<clus scale="  135.427">  1  5  2 -1</clus>
<clus scale="  141.009">  2  5  1 -1</clus>
</clustering>
</event>
<event>
 9    2  0.2869112E-005  0.9895749E+02  0.7546771E-02  0.1287168E+00
         -1   -1    0    0    0  501 -0.00000000000E+00  0.00000000000E+00  0.37408988595E+02  0.37408988595E+02  0.00000000000E+00 0.  1.
          2   -1    0    0  502    0  0.00000000000E+00 -0.00000000000E+00 -0.39685555301E+03  0.39685555301E+03  0.00000000000E+00 0. -1.
         23    2    1    2    0    0  0.83068121900E+01  0.34267461177E+02 -0.65257482424E+02  0.11693758432E+03  0.90402420265E+02 0.  0.
         24    2    1    2    0    0 -0.17169738102E+02 -0.52211210770E+02 -0.25754079053E+03  0.27557019889E+03  0.81184144328E+02 0.  0.
        -13    1    4    4    0    0  0.17175808246E+02  0.13489961630E+02 -0.37746767480E+02  0.43609699711E+02  0.00000000000E+00 0.  1.
         14    1    4    4    0    0 -0.34345546348E+02 -0.65701172400E+02 -0.21979402305E+03  0.23196049918E+03  0.00000000000E+00 0. -1.
        -13    1    3    3    0    0  0.16913018289E+02 -0.11775855097E+02  0.13971310067E+02  0.24898161697E+02  0.00000000000E+00 0.  1.
         13    1    3    3    0    0 -0.86062060990E+01  0.46043316274E+02 -0.79228792492E+02  0.92039422622E+02  0.00000000000E+00 0. -1.
         21    1    1    2  502  501  0.88629259117E+01  0.17943749592E+02 -0.36648291459E+02  0.41756758399E+02  0.00000000000E+00 0.  1.
<scales pt_clust_5="13000.00000" pt_clust_6="13000.00000" pt_clust_7="13000.00000" pt_clust_8="13000.00000" pt_clust_9="20.01324"></scales>
<clustering>
<clus scale="   20.013">  2  9  1 -1</clus>
<clus scale="   81.184">  5  6 -1 -1</clus>
<clus scale="   90.402">  7  8 -1 -1</clus>
<clus scale="   90.614">  2  5  1 -1</clus>
<clus scale="   20.013">  2  5  1 -1</clus>
</clustering>
</event>
<event>
 9    2  0.2869112E-005  0.1111377E+03  0.7546771E-02  0.1266318E+00
          2   -1    0    0  502    0  0.00000000000E+00  0.00000000000E+00  0.88855766812E+03  0.88855766812E+03  0.00000000000E+00 0. -1.
         -1   -1    0    0    0  501 -0.00000000000E+00 -0.00000000000E+00 -0.28696487154E+03  0.28696487154E+03  0.00000000000E+00 0.  1.
         23    2    1    2    0    0  0.23755827212E+02 -0.13859960131E+02 -0.78902455285E+02  0.12391005565E+03  0.91496812070E+02 0.  0.
         24    2    1    2    0    0 -0.46069385531E+02  0.44485671701E+02  0.86142725183E+03  0.86675519392E+03  0.71458328593E+02 0.  0.
        -13    1    4    4    0    0 -0.30110939563E+02  0.20815284711E+01  0.11311684351E+03  0.11707442815E+03  0.00000000000E+00 0.  1.
         14    1    4    4    0    0 -0.15958445968E+02  0.42404143230E+02  0.74831040832E+03  0.74968076576E+03  0.00000000000E+00 0. -1.
        -11    1    3    3    0    0  0.37296342137E+02 -0.46463145639E+02 -0.56424293676E+02  0.82058162033E+02  0.00000000000E+00 0.  1.
         11    1    3    3    0    0 -0.13540514925E+02  0.32603185508E+02 -0.22478161609E+02  0.41851893613E+02  0.00000000000E+00 0. -1.
         21    1    1    2  502  501  0.22313558319E+02 -0.30625711570E+02 -0.18093199996E+03  0.18485729010E+03  0.00000000000E+00 0.  1.
<scales pt_clust_5="13000.00000" pt_clust_6="13000.00000" pt_clust_7="13000.00000" pt_clust_8="13000.00000" pt_clust_9="37.89234"></scales>
<clustering>
<clus scale="   37.892">  2  9  1 -1</clus>
<clus scale="   71.458">  5  6 -1 -1</clus>
<clus scale="   91.497">  7  8 -1 -1</clus>
<clus scale="   95.322">  1  5  2 -1</clus>
<clus scale="   95.322">  1  5  2 -1</clus>
</clustering>
</event>
<event>
 9    2  0.2869112E-005  0.1112059E+03  0.7546771E-02  0.1262874E+00
          2   -1    0    0  502    0  0.00000000000E+00  0.00000000000E+00  0.19460060121E+04  0.19460060121E+04  0.00000000000E+00 0. -1.
         -1   -1    0    0    0  501 -0.00000000000E+00 -0.00000000000E+00 -0.68733871376E+02  0.68733871376E+02  0.00000000000E+00 0.  1.
         23    2    1    2    0    0 -0.45183804166E+02 -0.40451437588E+02 -0.10888870241E+02  0.11044876556E+03  0.91664973445E+02 0.  0.
         24    2    1    2    0    0  0.48319181495E+02  0.12833156717E+03  0.12805366232E+04  0.12903366046E+04  0.79942325958E+02 0.  0.
        -13    1    4    4    0    0 -0.64861859663E+01  0.23816390006E+02  0.73279337561E+02  0.77324978853E+02  0.00000000000E+00 0.  1.
         14    1    4    4    0    0  0.54805367461E+02  0.10451517717E+03  0.12072572856E+04  0.12130116258E+04  0.00000000000E+00 0. -1.
        -11    1    3    3    0    0 -0.28906839318E+01 -0.62213273989E+02 -0.80809889162E+01  0.62802467275E+02  0.00000000000E+00 0. -1.
         11    1    3    3    0    0 -0.42293120234E+02  0.21761836401E+02 -0.28078813251E+01  0.47646298284E+02  0.00000000000E+00 0.  1.
         21    1    1    2  502  501 -0.31353773296E+01 -0.87880129586E+02  0.60762438774E+03  0.61395451326E+03  0.00000000000E+00 0.  1.
<scales pt_clust_5="13000.00000" pt_clust_6="13000.00000" pt_clust_7="13000.00000" pt_clust_8="13000.00000" pt_clust_9="87.93604"></scales>
<clustering>
<clus scale="   79.942">  5  6 -1 -1</clus>
<clus scale="   87.936">  1  9  2 -1</clus>
<clus scale="   91.665">  7  8 -1 -1</clus>
<clus scale="  101.760">  1  5  2 -1</clus>
<clus scale="   87.936">  1  5  2 -1</clus>
</clustering>
</event>
<event>
 9    2  0.2869112E-005  0.1410499E+03  0.7546771E-02  0.1214755E+00
          2   -1    0    0  502    0  0.00000000000E+00  0.00000000000E+00  0.59519598870E+03  0.59519598870E+03  0.00000000000E+00 0. -1.
         -1   -1    0    0    0  501 -0.00000000000E+00 -0.00000000000E+00 -0.47420656263E+02  0.47420656263E+02  0.00000000000E+00 0.  1.
         23    2    1    2    0    0  0.56521544665E+02 -0.62108748547E+02  0.13275439909E+03  0.18361049149E+03  0.95062613311E+02 0.  0.
         24    2    1    2    0    0 -0.98315460772E+02  0.61041821666E+02  0.37553691972E+03  0.40150087468E+03  0.82358609031E+02 0.  0.
        -13    1    4    4    0    0 -0.12161704513E+01  0.42968489986E+02  0.12588575125E+03  0.13302252655E+03  0.00000000000E+00 0.  1.
         14    1    4    4    0    0 -0.97099290320E+02  0.18073331680E+02  0.24965116847E+03  0.26847834814E+03  0.00000000000E+00 0. -1.
        -13    1    3    3    0    0  0.48330416869E+02 -0.18695034376E+02  0.95085078732E+01  0.52685341671E+02  0.00000000000E+00 0.  1.
         13    1    3    3    0    0  0.81911277956E+01 -0.43413714172E+02  0.12324589122E+03  0.13092514982E+03  0.00000000000E+00 0. -1.
         21    1    1    2  502  501  0.41793916107E+02  0.10669268810E+01  0.39484013625E+02  0.57505278788E+02  0.00000000000E+00 0.  1.
<scales pt_clust_5="13000.00000" pt_clust_6="13000.00000" pt_clust_7="13000.00000" pt_clust_8="13000.00000" pt_clust_9="41.80753"></scales>
<clustering>
<clus scale="   41.808">  2  9  1 -1</clus>
<clus scale="   82.359">  5  6 -1 -1</clus>
<clus scale="   95.063">  7  8 -1 -1</clus>
<clus scale="  132.820">  1  5  2 -1</clus>
<clus scale="  132.820">  1  5  2 -1</clus>
</clustering>
</event>
<event>
 9    2  0.2869112E-005  0.1710814E+03  0.7546771E-02  0.1178699E+00
          2   -1    0    0  502    0  0.00000000000E+00  0.00000000000E+00  0.57016360150E+03  0.57016360150E+03  0.00000000000E+00 0. -1.
         -1   -1    0    0    0  501 -0.00000000000E+00 -0.00000000000E+00 -0.64411169561E+02  0.64411169561E+02  0.00000000000E+00 0.  1.
         23    2    1    2    0    0 -0.13365280728E+03 -0.63748903714E+02  0.14086344407E+03  0.22410854072E+03  0.91951794605E+02 0.  0.
         24    2    1    2    0    0  0.13445726480E+03  0.36135657148E+02  0.29309717369E+03  0.33354287159E+03  0.77203317226E+02 0.  0.
        -11    1    4    4    0    0  0.16502758430E+02  0.29894305738E+02  0.31255629908E+02  0.46291737409E+02  0.00000000000E+00 0.  1.
         12    1    4    4    0    0  0.11795450637E+03  0.62413514102E+01  0.26184154378E+03  0.28725113418E+03  0.00000000000E+00 0. -1.
        -13    1    3    3    0    0 -0.11233197611E+03 -0.82842998474E+02  0.91018035301E+02  0.16663048341E+03  0.00000000000E+00 0.  1.
         13    1    3    3    0    0 -0.21320831168E+02  0.19094094760E+02  0.49845408772E+02  0.57478057309E+02  0.00000000000E+00 0. -1.
         21    1    1    2  502  501 -0.80445752145E+00  0.27613246566E+02  0.71791814175E+02  0.76923358743E+02  0.00000000000E+00 0. -1.
<scales pt_clust_5="13000.00000" pt_clust_6="13000.00000" pt_clust_7="13000.00000" pt_clust_8="13000.00000" pt_clust_9="27.62496"></scales>
<clustering>
<clus scale="   27.625">  1  9  2 -1</clus>
<clus scale="   77.203">  5  6 -1 -1</clus>
<clus scale="   91.952">  7  8 -1 -1</clus>
<clus scale="  163.628">  1  5  2 -1</clus>
<clus scale="   27.625">  1  5  2 -1</clus>
</clustering>
</event>
<event>
 9    2  0.2869112E-005  0.9642991E+02  0.7546771E-02  0.1293445E+00
          2   -1    0    0  502    0  0.00000000000E+00  0.00000000000E+00  0.99768318573E+02  0.99768318573E+02  0.00000000000E+00 0. -1.
         -1   -1    0    0    0  501 -0.00000000000E+00 -0.00000000000E+00 -0.20130544023E+03  0.20130544023E+03  0.00000000000E+00 0.  1.
         23    2    1    2    0    0 -0.74891200077E+00 -0.26799561812E+02 -0.10912763306E+03  0.14463349807E+03  0.91056197404E+02 0.  0.
         24    2    1    2    0    0  0.22951414558E+02  0.24812400809E+02  0.55286543632E+02  0.10379226533E+03  0.81079034110E+02 0.  0.
        -13    1    4    4    0    0  0.27564858434E+02  0.18589405286E+02 -0.12533425165E+02  0.35531312328E+02  0.00000000000E+00 0.  1.
         14    1    4    4    0    0 -0.46134438755E+01  0.62229955229E+01  0.67819968797E+02  0.68260953006E+02  0.00000000000E+00 0. -1.
        -13    1    3    3    0    0  0.21914607726E+02  0.13001202190E+02 -0.92439141851E+02  0.95886788643E+02  0.00000000000E+00 0. -1.
         13    1    3    3    0    0 -0.22663519727E+02 -0.39800764003E+02 -0.16688491209E+02  0.48746709432E+02  0.00000000000E+00 0.  1.
         21    1    1    2  502  501 -0.22202502558E+02  0.19871610036E+01 -0.47696032232E+02  0.52647995397E+02  0.00000000000E+00 0. -1.
<scales pt_clust_5="13000.00000" pt_clust_6="13000.00000" pt_clust_7="13000.00000" pt_clust_8="13000.00000" pt_clust_9="22.29125"></scales>
<clustering>
<clus scale="   22.291">  2  9  1 -1</clus>
<clus scale="   81.079">  5  6 -1 -1</clus>
<clus scale="   87.071">  1  5  2 -1</clus>
<clus scale="   91.056">  7  8 -1 -1</clus>
<clus scale="   87.071">  1  5  2 -1</clus>
</clustering>
</event>
<event>
 9    2  0.2869112E-005  0.1010356E+03  0.7546771E-02  0.1283526E+00
         -3   -1    0    0    0  501 -0.00000000000E+00  0.00000000000E+00  0.15590239510E+03  0.15590239510E+03  0.00000000000E+00 0.  1.
          4   -1    0    0  502    0  0.00000000000E+00 -0.00000000000E+00 -0.17833966518E+03  0.17833966518E+03  0.00000000000E+00 0. -1.
         23    2    1    2    0    0  0.41224908690E+02  0.43413086750E+01  0.10385548706E+03  0.14420952377E+03  0.91060883453E+02 0.  0.
         24    2    1    2    0    0 -0.55043083309E+02 -0.34112254812E+02 -0.11719130837E+03  0.15597247847E+03  0.80001402079E+02 0.  0.
        -13    1    4    4    0    0 -0.16193235038E+02  0.26076510473E+02 -0.27758273377E+02  0.41385106020E+02  0.00000000000E+00 0.  1.
         14    1    4    4    0    0 -0.38849848270E+02 -0.60188765285E+02 -0.89433034993E+02  0.11458737245E+03  0.00000000000E+00 0. -1.
        -11    1    3    3    0    0  0.31554465470E+01  0.36479501485E+02  0.82003236899E+02  0.89806690917E+02  0.00000000000E+00 0.  1.
         11    1    3    3    0    0  0.38069462143E+02 -0.32138192810E+02  0.21852250158E+02  0.54402832848E+02  0.00000000000E+00 0. -1.
         21    1    1    2  502  501  0.13818174619E+02  0.29770946137E+02 -0.91014487649E+01  0.34060058035E+02  0.00000000000E+00 0.  1.
<scales pt_clust_5="13000.00000" pt_clust_6="13000.00000" pt_clust_7="13000.00000" pt_clust_8="13000.00000" pt_clust_9="32.82150"></scales>
<clustering>
<clus scale="   32.822">  2  9  1 -1</clus>
<clus scale="   80.001">  5  6 -1 -1</clus>
<clus scale="   91.061">  7  8 -1 -1</clus>
<clus scale="   91.194">  2  5  1 -1</clus>
<clus scale="   32.822">  2  5  1 -1</clus>
</clustering>
</event>
<event>
 9    2  0.2869112E-005  0.1776755E+03  0.7546771E-02  0.1171722E+00
          2   -1    0    0  502    0  0.00000000000E+00  0.00000000000E+00  0.37106546778E+03  0.37106546778E+03  0.00000000000E+00 0. -1.
         -1   -1    0    0    0  501 -0.00000000000E+00 -0.00000000000E+00 -0.17659976873E+03  0.17659976873E+03  0.00000000000E+00 0.  1.
         24    2    1    2    0    0  0.13338727961E+03 -0.86602478988E+02  0.95876202917E+01  0.17835862869E+03  0.80173076767E+02 0.  0.
         23    2    1    2    0    0 -0.14216542572E+03  0.47123027574E+02  0.24187153006E+03  0.29942144182E+03  0.93379734262E+02 0.  0.
        -11    1    3    3    0    0  0.84956686172E+02 -0.95369203219E+02  0.16018428468E+02  0.12872262233E+03  0.00000000000E+00 0.  1.
         12    1    3    3    0    0  0.48430593434E+02  0.87667242309E+01 -0.64308081764E+01  0.49636006365E+02  0.00000000000E+00 0. -1.
        -13    1    4    4    0    0 -0.87620739371E+02 -0.17640281315E+02  0.14894664180E+03  0.17370571550E+03  0.00000000000E+00 0. -1.
         13    1    4    4    0    0 -0.54544686348E+02  0.64763308889E+02  0.92924888261E+02  0.12571572632E+03  0.00000000000E+00 0.  1.
         21    1    1    2  502  501  0.87781461123E+01  0.39479451414E+02 -0.56993451308E+02  0.69885165987E+02  0.00000000000E+00 0.  1.
<scales pt_clust_5="13000.00000" pt_clust_6="13000.00000" pt_clust_7="13000.00000" pt_clust_8="13000.00000" pt_clust_9="40.44358"></scales>
<clustering>
<clus scale="   40.444">  2  9  1 -1</clus>
<clus scale="   80.173">  5  6 -1 -1</clus>
<clus scale="   93.380">  7  8 -1 -1</clus>
<clus scale="  171.104">  2  5  1 -1</clus>
<clus scale="  177.676">  1  5  2 -1</clus>
</clustering>
</event>
<event>
 9    2  0.2869112E-005  0.1005268E+03  0.7546771E-02  0.1284296E+00
         -1   -1    0    0    0  501 -0.00000000000E+00  0.00000000000E+00  0.10144130909E+03  0.10144130909E+03  0.00000000000E+00 0.  1.
          2   -1    0    0  502    0  0.00000000000E+00 -0.00000000000E+00 -0.35855946889E+03  0.35855946889E+03  0.00000000000E+00 0. -1.
         24    2    1    2    0    0 -0.71266209772E+02 -0.51335728764E+02 -0.57787816225E+02  0.13274097685E+03  0.81033977608E+02 0.  0.
         23    2    1    2    0    0  0.33846201260E+02 -0.15717113386E+02 -0.22548951807E+03  0.24613863812E+03  0.91357065528E+02 0.  0.
        -11    1    3    3    0    0 -0.76314580013E+02 -0.11495816650E+02 -0.25715841407E+02  0.81347239795E+02  0.00000000000E+00 0.  1.
         12    1    3    3    0    0  0.50483702405E+01 -0.39839912114E+02 -0.32071974818E+02  0.51393737051E+02  0.00000000000E+00 0. -1.
        -11    1    4    4    0    0 -0.24380076240E+02 -0.29023465405E+02 -0.70591878764E+02  0.80124671662E+02  0.00000000000E+00 0.  1.
         11    1    4    4    0    0  0.58226277500E+02  0.13306352019E+02 -0.15489763931E+03  0.16601396646E+03  0.00000000000E+00 0. -1.
         21    1    1    2  502  501  0.37420008512E+02  0.67052842150E+02  0.26159174507E+02  0.81121163011E+02  0.00000000000E+00 0.  1.
<scales pt_clust_5="13000.00000" pt_clust_6="13000.00000" pt_clust_7="13000.00000" pt_clust_8="13000.00000" pt_clust_9="76.78763"></scales>
<clustering>
<clus scale="   76.788">  1  9  2 -1</clus>
<clus scale="   81.034">  5  6 -1 -1</clus>
<clus scale="   91.247">  1  5  2 -1</clus>
<clus scale="   91.357">  7  8 -1 -1</clus>
<clus scale="  100.527">  2  5  1 -1</clus>
</clustering>
</event>
<event>
 9    2  0.2869112E-005  0.9832068E+02  0.7546771E-02  0.1293530E+00
          2   -1    0    0  502    0  0.00000000000E+00  0.00000000000E+00  0.12055672691E+04  0.12055672691E+04  0.00000000000E+00 0. -1.
         -1   -1    0    0    0  501 -0.00000000000E+00 -0.00000000000E+00 -0.25426468386E+02  0.25426468386E+02  0.00000000000E+00 0.  1.
         23    2    1    2    0    0  0.13605533702E+02 -0.13867030992E+02  0.17785426273E+03  0.20362003860E+03  0.97219217490E+02 0.  0.
         24    2    1    2    0    0  0.18476777941E+02 -0.11726893552E+01  0.98404498350E+03  0.98752119310E+03  0.80689595056E+02 0.  0.
        -11    1    4    4    0    0 -0.23854982124E+02 -0.11442596782E+02  0.14828425401E+03  0.15062607072E+03  0.00000000000E+00 0.  1.
         12    1    4    4    0    0  0.42331760065E+02  0.10269907427E+02  0.83576072949E+03  0.83689512238E+03  0.00000000000E+00 0. -1.
        -11    1    3    3    0    0 -0.40431765824E+02 -0.10946204558E+02  0.10352227743E+03  0.11167546286E+03  0.00000000000E+00 0.  1.
         11    1    3    3    0    0  0.54037299526E+02 -0.29208264338E+01  0.74331985307E+02  0.91944575733E+02  0.00000000000E+00 0. -1.
         21    1    1    2  502  501 -0.32082311642E+02  0.15039720347E+02  0.18241554497E+02  0.39852505805E+02  0.00000000000E+00 0.  1.
<scales pt_clust_5="13000.00000" pt_clust_6="13000.00000" pt_clust_7="13000.00000" pt_clust_8="13000.00000" pt_clust_9="35.43258"></scales>
<clustering>
<clus scale="   35.433">  2  9  1 -1</clus>
<clus scale="   80.690">  5  6 -1 -1</clus>
<clus scale="   82.013">  1  5  2 -1</clus>
<clus scale="   97.219">  7  8 -1 -1</clus>
<clus scale="   82.013">  1  5  2 -1</clus>
</clustering>
</event>
<event>
 9    2  0.2869112E-005  0.3534182E+03  0.7546771E-02  0.1098714E+00
         -1   -1    0    0    0  501 -0.00000000000E+00  0.00000000000E+00  0.22173778947E+03  0.22173778947E+03  0.00000000000E+00 0.  1.
          2   -1    0    0  502    0  0.00000000000E+00 -0.00000000000E+00 -0.83258373778E+03  0.83258373778E+03  0.00000000000E+00 0. -1.
         23    2    1    2    0    0 -0.13695520433E+03  0.33215118403E+03 -0.12865107284E+03  0.39228048744E+03  0.90839117346E+02 0.  0.
         24    2    1    2    0    0  0.10020362745E+03 -0.11189504526E+02 -0.16557524256E+03  0.20969706663E+03  0.79948276027E+02 0.  0.
        -11    1    4    4    0    0 -0.45963743755E+01 -0.22768910657E+02 -0.28858239782E+02  0.37045214984E+02  0.00000000000E+00 0.  1.
         12    1    4    4    0    0  0.10480000182E+03  0.11579406132E+02 -0.13671700278E+03  0.17265185165E+03  0.00000000000E+00 0. -1.
        -13    1    3    3    0    0 -0.10755654189E+03  0.18938184844E+03 -0.39302359044E+02  0.22131102469E+03  0.00000000000E+00 0.  1.
         13    1    3    3    0    0 -0.29398662438E+02  0.14276933559E+03 -0.89348713793E+02  0.17096946275E+03  0.00000000000E+00 0. -1.
         21    1    1    2  502  501  0.36751576879E+02 -0.32096167951E+03 -0.31661963291E+03  0.45234397317E+03  0.00000000000E+00 0. -1.
<scales pt_clust_5="13000.00000" pt_clust_6="13000.00000" pt_clust_7="13000.00000" pt_clust_8="13000.00000" pt_clust_9="341.54458"></scales>
<clustering>
<clus scale="   79.948">  5  6 -1 -1</clus>
<clus scale="   90.839">  7  8 -1 -1</clus>
<clus scale="  128.677">  2  5  1 -1</clus>
<clus scale="  341.545">  2  9  1 -1</clus>
<clus scale="  128.677">  2  5  1 -1</clus>
</clustering>
</event>
<event>
 9    2  0.2869112E-005  0.1655103E+03  0.7546771E-02  0.1184302E+00
         -1   -1    0    0    0  501 -0.00000000000E+00  0.00000000000E+00  0.10509141143E+03  0.10509141143E+03  0.00000000000E+00 0.  1.
          2   -1    0    0  502    0  0.00000000000E+00 -0.00000000000E+00 -0.56924556674E+03  0.56924556674E+03  0.00000000000E+00 0. -1.
         23    2    1    2    0    0  0.49529356998E+02  0.90948059681E+02 -0.35090595706E+02  0.14278963937E+03  0.91830411296E+02 0.  0.
         24    2    1    2    0    0 -0.46076679287E+02 -0.14041000406E+03 -0.44796147211E+03  0.47848571404E+03  0.80256267270E+02 0.  0.
        -11    1    4    4    0    0 -0.40265983727E+02 -0.53783866221E+02 -0.10460982006E+03  0.12432726235E+03  0.00000000000E+00 0.  1.
         12    1    4    4    0    0 -0.58106955602E+01 -0.86626137842E+02 -0.34335165205E+03  0.35415845169E+03  0.00000000000E+00 0. -1.
        -11    1    3    3    0    0  0.29423442978E+02  0.86168209113E+02 -0.61037158925E+02  0.10961858432E+03  0.00000000000E+00 0.  1.
         11    1    3    3    0    0  0.20105914020E+02  0.47798505680E+01  0.25946563219E+02  0.33171055047E+02  0.00000000000E+00 0. -1.
         21    1    1    2  502  501 -0.34526777111E+01  0.49461944382E+02  0.18897912505E+02  0.53061624762E+02  0.00000000000E+00 0.  1.
<scales pt_clust_5="13000.00000" pt_clust_6="13000.00000" pt_clust_7="13000.00000" pt_clust_8="13000.00000" pt_clust_9="49.58230"></scales>
<clustering>
<clus scale="   49.582">  1  9  2 -1</clus>
<clus scale="   80.256">  5  6 -1 -1</clus>
<clus scale="   91.830">  7  8 -1 -1</clus>
<clus scale="  159.380">  2  5  1 -1</clus>
<clus scale="  159.380">  2  5  1 -1</clus>
</clustering>
</event>
<event>
 9    2  0.2869112E-005  0.1104913E+03  0.7546771E-02  0.1263358E+00
         -1   -1    0    0    0  501 -0.00000000000E+00  0.00000000000E+00  0.25016322751E+02  0.25016322751E+02  0.00000000000E+00 0.  1.
          2   -1    0    0  502    0  0.00000000000E+00 -0.00000000000E+00 -0.93397875009E+03  0.93397875009E+03  0.00000000000E+00 0. -1.
         23    2    1    2    0    0 -0.72014208179E+02  0.45352738419E+02 -0.20132260155E+03  0.23650655087E+03  0.90341804531E+02 0.  0.
         24    2    1    2    0    0  0.26236004828E+02 -0.69650240007E+01 -0.37737546759E+03  0.38686401927E+03  0.80713607014E+02 0.  0.
        -13    1    4    4    0    0 -0.28104501879E+02 -0.11098129420E+02 -0.11629930094E+03  0.12016055468E+03  0.00000000000E+00 0.  1.
         14    1    4    4    0    0  0.54340506706E+02  0.41331054190E+01 -0.26107616665E+03  0.26670346458E+03  0.00000000000E+00 0. -1.
        -11    1    3    3    0    0 -0.24442483623E+02 -0.24893598435E+02 -0.90115090671E+02  0.96632581541E+02  0.00000000000E+00 0. -1.
         11    1    3    3    0    0 -0.47571724556E+02  0.70246336854E+02 -0.11120751088E+03  0.13987396932E+03  0.00000000000E+00 0.  1.
         21    1    1    2  502  501  0.45778203351E+02 -0.38387714418E+02 -0.33026435820E+03  0.33562450271E+03  0.00000000000E+00 0. -1.
<scales pt_clust_5="13000.00000" pt_clust_6="13000.00000" pt_clust_7="13000.00000" pt_clust_8="13000.00000" pt_clust_9="59.74329"></scales>
<clustering>
<clus scale="   59.743">  2  9  1 -1</clus>
<clus scale="   80.714">  5  6 -1 -1</clus>
<clus scale="   90.342">  7  8 -1 -1</clus>
<clus scale="  102.769">  2  5  1 -1</clus>
<clus scale="   59.743">  2  5  1 -1</clus>
</clustering>
</event>
<event>
 9    2  0.2869112E-005  0.9367211E+02  0.7546771E-02  0.1300392E+00
         -1   -1    0    0    0  501 -0.00000000000E+00  0.00000000000E+00  0.13278459593E+02  0.13278459593E+02  0.00000000000E+00 0.  1.
          2   -1    0    0  502    0  0.00000000000E+00 -0.00000000000E+00 -0.11369837994E+04  0.11369837994E+04  0.00000000000E+00 0. -1.
         23    2    1    2    0    0 -0.99707430444E+01 -0.14569622302E+02 -0.23327019898E+03  0.25098177141E+03  0.90913003688E+02 0.  0.
         24    2    1    2    0    0 -0.11151524127E+02  0.23078678503E+02 -0.83634203833E+03  0.84058961993E+03  0.80410957943E+02 0.  0.
        -11    1    4    4    0    0 -0.21596318977E+02  0.29236832281E+02 -0.15752167322E+03  0.16166097516E+03  0.00000000000E+00 0.  1.
         12    1    4    4    0    0  0.10444794850E+02 -0.61581537777E+01 -0.67882036511E+03  0.67892864477E+03  0.00000000000E+00 0. -1.
        -13    1    3    3    0    0  0.38448124636E+02 -0.65311574649E+01 -0.66017575015E+02  0.76676166549E+02  0.00000000000E+00 0.  1.
         13    1    3    3    0    0 -0.48418867680E+02 -0.80384648367E+01 -0.16725262396E+03  0.17430560486E+03  0.00000000000E+00 0. -1.
         21    1    1    2  502  501  0.21122267171E+02 -0.85090562019E+01 -0.54093102487E+02  0.58690867642E+02  0.00000000000E+00 0.  1.
<scales pt_clust_5="13000.00000" pt_clust_6="13000.00000" pt_clust_7="13000.00000" pt_clust_8="13000.00000" pt_clust_9="22.77179"></scales>
<clustering>
<clus scale="   22.772">  1  9  2 -1</clus>
<clus scale="   80.411">  5  6 -1 -1</clus>
<clus scale="   83.518">  2  5  1 -1</clus>
<clus scale="   90.913">  7  8 -1 -1</clus>
<clus scale="   83.518">  2  5  1 -1</clus>
</clustering>
</event>
<event>
 9    2  0.2869112E-005  0.1183127E+03  0.7546771E-02  0.1250656E+00
          2   -1    0    0  502    0  0.00000000000E+00  0.00000000000E+00  0.60441065882E+03  0.60441065882E+03  0.00000000000E+00 0. -1.
         -1   -1    0    0    0  501 -0.00000000000E+00 -0.00000000000E+00 -0.10695790510E+03  0.10695790510E+03  0.00000000000E+00 0.  1.
         23    2    1    2    0    0  0.10488936910E+03  0.34475539039E+02  0.71500478183E+02  0.16118875895E+03  0.93161983064E+02 0.  0.
         24    2    1    2    0    0 -0.36936068251E+02 -0.60460659197E+02  0.45838855472E+03  0.47052436088E+03  0.79078079340E+02 0.  0.
        -11    1    4    4    0    0 -0.84436342917E+01 -0.20706901658E+02  0.21885564982E+02  0.31289753768E+02  0.00000000000E+00 0.  1.
         12    1    4    4    0    0 -0.28492433959E+02 -0.39753757539E+02  0.43650298974E+03  0.43923460711E+03  0.00000000000E+00 0. -1.
        -13    1    3    3    0    0  0.10220295209E+03  0.60058124404E+02  0.61910163418E+02  0.13373589666E+03  0.00000000000E+00 0.  1.
         13    1    3    3    0    0  0.26864170169E+01 -0.25582585366E+02  0.95903147658E+01  0.27452862286E+02  0.00000000000E+00 0. -1.
         21    1    1    2  502  501 -0.67953300852E+02  0.25985120158E+02 -0.32436279177E+02  0.79655444090E+02  0.00000000000E+00 0.  1.
<scales pt_clust_5="13000.00000" pt_clust_6="13000.00000" pt_clust_7="13000.00000" pt_clust_8="13000.00000" pt_clust_9="72.75217"></scales>
<clustering>
<clus scale="   72.752">  2  9  1 -1</clus>
<clus scale="   79.078">  5  6 -1 -1</clus>
<clus scale="   93.162">  7  8 -1 -1</clus>
<clus scale="  107.574">  1  5  2 -1</clus>
<clus scale="  107.574">  1  5  2 -1</clus>
</clustering>
</event>
<event>
 9    2  0.2869112E-005  0.8360004E+02  0.7546771E-02  0.1321215E+00
          2   -1    0    0  502    0  0.00000000000E+00  0.00000000000E+00  0.68084955806E+03  0.68084955806E+03  0.00000000000E+00 0. -1.
         -1   -1    0    0    0  501 -0.00000000000E+00 -0.00000000000E+00 -0.32251892552E+02  0.32251892552E+02  0.00000000000E+00 0.  1.
         23    2    1    2    0    0  0.55462184722E+01 -0.25818579907E+02  0.44252462035E+02  0.94336928226E+02  0.79017820923E+02 0.  0.
         24    2    1    2    0    0 -0.15267197941E+02  0.41754419630E+01  0.57489134799E+03  0.58094319950E+03  0.82124402002E+02 0.  0.
        -11    1    4    4    0    0 -0.35296279514E+02  0.24765342633E+01  0.10859890173E+03  0.11421769577E+03  0.00000000000E+00 0.  1.
         12    1    4    4    0    0  0.20029081573E+02  0.16989076997E+01  0.46629244626E+03  0.46672550373E+03  0.00000000000E+00 0. -1.
        -11    1    3    3    0    0  0.22813336341E+02  0.11207129668E+02  0.46955505748E+02  0.53393516371E+02  0.00000000000E+00 0. -1.
         11    1    3    3    0    0 -0.17267117869E+02 -0.37025709575E+02 -0.27030437139E+01  0.40943411855E+02  0.00000000000E+00 0.  1.
         21    1    1    2  502  501  0.97209794692E+01  0.21643137944E+02  0.29453855481E+02  0.37821322883E+02  0.00000000000E+00 0. -1.
<scales pt_clust_5="13000.00000" pt_clust_6="13000.00000" pt_clust_7="13000.00000" pt_clust_8="13000.00000" pt_clust_9="23.72600"></scales>
<clustering>
<clus scale="   23.726">  2  9  1 -1</clus>
<clus scale="   79.018">  7  8 -1 -1</clus>
<clus scale="   80.550">  2  7  1 -1</clus>
<clus scale="   82.124">  5  6 -1 -1</clus>
<clus scale="   83.600">  1  5  2 -1</clus>
</clustering>
</event>
<event>
 9    2  0.2869112E-005  0.1085246E+03  0.7546771E-02  0.1267546E+00
         -1   -1    0    0    0  501 -0.00000000000E+00  0.00000000000E+00  0.22481476406E+03  0.22481476406E+03  0.00000000000E+00 0.  1.
          2   -1    0    0  502    0  0.00000000000E+00 -0.00000000000E+00 -0.64028011447E+02  0.64028011447E+02  0.00000000000E+00 0. -1.
         24    2    1    2    0    0 -0.24954623227E+02 -0.50709102795E+02  0.10581457007E+03  0.14465884429E+03  0.80841274517E+02 0.  0.
         23    2    1    2    0    0  0.91040987270E+01  0.64644370118E+02  0.45459475459E+02  0.12103393341E+03  0.91218802488E+02 0.  0.
        -13    1    3    3    0    0 -0.24789314203E+02  0.34260988390E+01  0.81606420219E+02  0.85357226249E+02  0.00000000000E+00 0.  1.
         14    1    3    3    0    0 -0.16530902390E+00 -0.54135201634E+02  0.24208149849E+02  0.59301618040E+02  0.00000000000E+00 0. -1.
        -13    1    4    4    0    0  0.29626465925E+02  0.17681253511E+01 -0.13336440268E+02  0.32537891596E+02  0.00000000000E+00 0. -1.
         13    1    4    4    0    0 -0.20522367198E+02  0.62876244767E+02  0.58795915727E+02  0.88496041819E+02  0.00000000000E+00 0.  1.
         21    1    1    2  502  501  0.15850524500E+02 -0.13935267322E+02  0.95127070886E+01  0.23149997806E+02  0.00000000000E+00 0. -1.
<scales pt_clust_5="13000.00000" pt_clust_6="13000.00000" pt_clust_7="13000.00000" pt_clust_8="13000.00000" pt_clust_9="21.10523"></scales>
<clustering>
<clus scale="   21.105">  2  9  1 -1</clus>
<clus scale="   80.841">  5  6 -1 -1</clus>
<clus scale="   91.219">  7  8 -1 -1</clus>
<clus scale="   99.960">  1  5  2 -1</clus>
<clus scale="   21.105">  2  5  1 -1</clus>
</clustering>
</event>
<event>
 9    2  0.2869112E-005  0.1289410E+03  0.7546771E-02  0.1230607E+00
         -1   -1    0    0    0  501 -0.00000000000E+00  0.00000000000E+00  0.26954064309E+02  0.26954064309E+02  0.00000000000E+00 0.  1.
          2   -1    0    0  502    0  0.00000000000E+00 -0.00000000000E+00 -0.85271772596E+03  0.85271772596E+03  0.00000000000E+00 0. -1.
         23    2    1    2    0    0 -0.10687872797E+03 -0.38413104290E+01 -0.27555956079E+03  0.30471363768E+03  0.74023721082E+02 0.  0.
         24    2    1    2    0    0  0.96568337507E+02 -0.16109392473E+02 -0.52920507730E+03  0.54421252383E+03  0.80773144806E+02 0.  0.
        -13    1    4    4    0    0  0.63946707319E+02  0.22528758370E+02 -0.39540717058E+03  0.40117771234E+03  0.00000000000E+00 0.  1.
         14    1    4    4    0    0  0.32621630188E+02 -0.38638150843E+02 -0.13379790672E+03  0.14303481149E+03  0.00000000000E+00 0. -1.
        -11    1    3    3    0    0 -0.39051968009E+02 -0.10412655335E+02 -0.19524924385E+03  0.19938843201E+03  0.00000000000E+00 0.  1.
         11    1    3    3    0    0 -0.67826759958E+02  0.65713449056E+01 -0.80310316944E+02  0.10532520566E+03  0.00000000000E+00 0. -1.
         21    1    1    2  502  501  0.10310390460E+02  0.19950702902E+02 -0.20999023566E+02  0.30745628770E+02  0.00000000000E+00 0.  1.
<scales pt_clust_5="13000.00000" pt_clust_6="13000.00000" pt_clust_7="13000.00000" pt_clust_8="13000.00000" pt_clust_9="22.45740"></scales>
<clustering>
<clus scale="   22.457">  1  9  2 -1</clus>
<clus scale="   74.024">  7  8 -1 -1</clus>
<clus scale="   80.773">  5  6 -1 -1</clus>
<clus scale="  124.824">  1  7  2 -1</clus>
<clus scale="  128.941">  2  5  1 -1</clus>
</clustering>
</event>
<event>
 9    2  0.2869112E-005  0.9731885E+02  0.7546771E-02  0.1293868E+00
          2   -1    0    0  502    0  0.00000000000E+00  0.00000000000E+00  0.47190965549E+02  0.47190965549E+02  0.00000000000E+00 0. -1.
         -1   -1    0    0    0  501 -0.00000000000E+00 -0.00000000000E+00 -0.38884122694E+03  0.38884122694E+03  0.00000000000E+00 0.  1.
         23    2    1    2    0    0  0.27263395428E+02  0.19068572398E+02 -0.27701117066E+03  0.29398480696E+03  0.92655139457E+02 0.  0.
         24    2    1    2    0    0 -0.29495083324E+02  0.10588909433E+02 -0.17642521570E+02  0.86430623919E+02  0.78593315495E+02 0.  0.
        -11    1    4    4    0    0  0.21263522597E+02 -0.16645123953E+02 -0.60220652003E+01  0.27666998643E+02  0.00000000000E+00 0.  1.
         12    1    4    4    0    0 -0.50758605920E+02  0.27234033386E+02 -0.11620456369E+02  0.58763625277E+02  0.00000000000E+00 0. -1.
        -11    1    3    3    0    0  0.45011484049E+02 -0.96498490833E+01 -0.23792389259E+03  0.24233640244E+03  0.00000000000E+00 0.  1.
         11    1    3    3    0    0 -0.17748088622E+02  0.28718421481E+02 -0.39087278073E+02  0.51648404518E+02  0.00000000000E+00 0. -1.
         21    1    1    2  502  501  0.22316878960E+01 -0.29657481830E+02 -0.46996569167E+02  0.55616761618E+02  0.00000000000E+00 0. -1.
<scales pt_clust_5="13000.00000" pt_clust_6="13000.00000" pt_clust_7="13000.00000" pt_clust_8="13000.00000" pt_clust_9="29.74133"></scales>
<clustering>
<clus scale="   29.741">  2  9  1 -1</clus>
<clus scale="   78.593">  5  6 -1 -1</clus>
<clus scale="   84.041">  1  5  2 -1</clus>
<clus scale="   92.655">  7  8 -1 -1</clus>
<clus scale="   84.041">  1  5  2 -1</clus>
</clustering>
</event>
<event>
 9    2  0.2869112E-005  0.9284136E+02  0.7546771E-02  0.1302378E+00
         -1   -1    0    0    0  501 -0.00000000000E+00  0.00000000000E+00  0.12743416044E+03  0.12743416044E+03  0.00000000000E+00 0.  1.
          2   -1    0    0  502    0  0.00000000000E+00 -0.00000000000E+00 -0.23290064808E+03  0.23290064808E+03  0.00000000000E+00 0. -1.
         23    2    1    2    0    0  0.34692531922E+02  0.10774465164E+01  0.29255525619E+02  0.10123062568E+03  0.90482159206E+02 0.  0.
         24    2    1    2    0    0 -0.96134930349E+01 -0.18634427478E+02 -0.18362583187E+03  0.20140852227E+03  0.80045521916E+02 0.  0.
        -11    1    4    4    0    0  0.49582667207E+01  0.24476077588E+02 -0.21294964867E+02  0.32819785369E+02  0.00000000000E+00 0.  1.
         12    1    4    4    0    0 -0.14571759756E+02 -0.43110505065E+02 -0.16233086700E+03  0.16858873691E+03  0.00000000000E+00 0. -1.
        -11    1    3    3    0    0  0.34503651997E+01  0.40546493194E+02  0.30537064409E+02  0.50876668848E+02  0.00000000000E+00 0.  1.
         11    1    3    3    0    0  0.31242166723E+02 -0.39469046678E+02 -0.12815387906E+01  0.50353956834E+02  0.00000000000E+00 0. -1.
         21    1    1    2  502  501 -0.25079038888E+02  0.17556980961E+02  0.48903818615E+02  0.57695660557E+02  0.00000000000E+00 0. -1.
<scales pt_clust_5="13000.00000" pt_clust_6="13000.00000" pt_clust_7="13000.00000" pt_clust_8="13000.00000" pt_clust_9="30.61382"></scales>
<clustering>
<clus scale="   30.614">  1  9  2 -1</clus>
<clus scale="   80.046">  5  6 -1 -1</clus>
<clus scale="   82.703">  2  5  1 -1</clus>
<clus scale="   90.482">  7  8 -1 -1</clus>
<clus scale="   82.703">  2  5  1 -1</clus>
</clustering>
</event>
<event>
 9    2  0.2869112E-005  0.1364978E+03  0.7546771E-02  0.1221327E+00
          2   -1    0    0  502    0  0.00000000000E+00  0.00000000000E+00  0.21251795402E+03  0.21251795402E+03  0.00000000000E+00 0. -1.
         -1   -1    0    0    0  501 -0.00000000000E+00 -0.00000000000E+00 -0.15207975105E+03  0.15207975105E+03  0.00000000000E+00 0.  1.
         23    2    1    2    0    0 -0.19313098033E+02 -0.89675910988E+02 -0.26452483873E+02  0.13429527059E+03  0.94449568720E+02 0.  0.
         24    2    1    2    0    0  0.20401505905E+01  0.10124015430E+03  0.12925085155E+03  0.18311694953E+03  0.81069744798E+02 0.  0.
        -11    1    4    4    0    0  0.34734663674E+02  0.37646888569E+02  0.25785825121E+02  0.57347134685E+02  0.00000000000E+00 0.  1.
         12    1    4    4    0    0 -0.32694513084E+02  0.63593265734E+02  0.10346502643E+03  0.12576981485E+03  0.00000000000E+00 0. -1.
        -13    1    3    3    0    0 -0.35551535413E+02 -0.68267082761E+02 -0.55373236611E+02  0.94818255583E+02  0.00000000000E+00 0.  1.
         13    1    3    3    0    0  0.16238437380E+02 -0.21408828227E+02  0.28920752738E+02  0.39477015003E+02  0.00000000000E+00 0. -1.
         21    1    1    2  502  501  0.17272947443E+02 -0.11564243314E+02 -0.42360164700E+02  0.47185484953E+02  0.00000000000E+00 0.  1.
<scales pt_clust_5="13000.00000" pt_clust_6="13000.00000" pt_clust_7="13000.00000" pt_clust_8="13000.00000" pt_clust_9="20.78669"></scales>
<clustering>
<clus scale="   20.787">  2  9  1 -1</clus>
<clus scale="   81.070">  5  6 -1 -1</clus>
<clus scale="   94.450">  7  8 -1 -1</clus>
<clus scale="  127.606">  1  5  2 -1</clus>
<clus scale="  127.606">  1  5  2 -1</clus>
</clustering>
</event>
<event>
 9    2  0.2869112E-005  0.1186148E+03  0.7546771E-02  0.1248563E+00
          2   -1    0    0  502    0  0.00000000000E+00  0.00000000000E+00  0.99655978719E+02  0.99655978719E+02  0.00000000000E+00 0. -1.
         -1   -1    0    0    0  501 -0.00000000000E+00 -0.00000000000E+00 -0.36381208969E+03  0.36381208969E+03  0.00000000000E+00 0.  1.
         23    2    1    2    0    0 -0.44855242933E+02  0.32696272191E+02 -0.78886733008E+02  0.13232340924E+03  0.90583270837E+02 0.  0.
         24    2    1    2    0    0  0.75689607067E+02 -0.41821331587E+02  0.22872797673E+02  0.12053319224E+03  0.80790749255E+02 0.  0.
        -13    1    4    4    0    0 -0.13644263932E+02 -0.16891160877E+02  0.17042301674E+02  0.27602849497E+02  0.00000000000E+00 0.  1.
         14    1    4    4    0    0  0.89333870999E+02 -0.24930170710E+02  0.58304959984E+01  0.92930342746E+02  0.00000000000E+00 0. -1.
        -13    1    3    3    0    0 -0.40999285724E+02  0.54993918528E+02 -0.23527143894E+02  0.72517577213E+02  0.00000000000E+00 0.  1.
         13    1    3    3    0    0 -0.38559572083E+01 -0.22297646337E+02 -0.55359589113E+02  0.59805832031E+02  0.00000000000E+00 0. -1.
         21    1    1    2  502  501 -0.30834364134E+02  0.91250593956E+01 -0.20814217564E+03  0.21061146693E+03  0.00000000000E+00 0.  1.
<scales pt_clust_5="13000.00000" pt_clust_6="13000.00000" pt_clust_7="13000.00000" pt_clust_8="13000.00000" pt_clust_9="32.15625"></scales>
<clustering>
<clus scale="   32.156">  2  9  1 -1</clus>
<clus scale="   80.791">  5  6 -1 -1</clus>
<clus scale="   90.583">  7  8 -1 -1</clus>
<clus scale="  111.316">  1  5  2 -1</clus>
<clus scale="  111.316">  1  5  2 -1</clus>
</clustering>
</event>
<event>
 9    2  0.2869112E-005  0.1284977E+03  0.7546771E-02  0.1233129E+00
          2   -1    0    0  502    0  0.00000000000E+00  0.00000000000E+00  0.17647497685E+03  0.17647497685E+03  0.00000000000E+00 0. -1.
         -1   -1    0    0    0  501 -0.00000000000E+00 -0.00000000000E+00 -0.12866281065E+03  0.12866281065E+03  0.00000000000E+00 0.  1.
         24    2    1    2    0    0  0.90831938897E+02  0.66629004027E+02  0.23512886498E+02  0.14061910177E+03  0.80814668523E+02 0.  0.
         23    2    1    2    0    0 -0.53080543947E+02 -0.45491734334E+02  0.31243183152E+02  0.12069894376E+03  0.93300892246E+02 0.  0.
        -11    1    3    3    0    0  0.68993890441E+02  0.85438500171E+02  0.18629979611E+02  0.11138658074E+03  0.00000000000E+00 0.  1.
         12    1    3    3    0    0  0.21838048457E+02 -0.18809496144E+02  0.48829068874E+01  0.29232521021E+02  0.00000000000E+00 0. -1.
        -13    1    4    4    0    0 -0.46659613516E+02 -0.71870515921E+02  0.10086672145E+02  0.86279960287E+02  0.00000000000E+00 0.  1.
         13    1    4    4    0    0 -0.64209304313E+01  0.26378781587E+02  0.21156511007E+02  0.34418983477E+02  0.00000000000E+00 0. -1.
         21    1    1    2  502  501 -0.37751394950E+02 -0.21137269693E+02 -0.69439034548E+01  0.43819741966E+02  0.00000000000E+00 0. -1.
<scales pt_clust_5="13000.00000" pt_clust_6="13000.00000" pt_clust_7="13000.00000" pt_clust_8="13000.00000" pt_clust_9="43.26606"></scales>
<clustering>
<clus scale="   43.266">  2  9  1 -1</clus>
<clus scale="   80.815">  5  6 -1 -1</clus>
<clus scale="   93.301">  7  8 -1 -1</clus>
<clus scale="  119.740">  2  5  1 -1</clus>
<clus scale="  128.498">  1  5  2 -1</clus>
</clustering>
</event>
<event>
 9    2  0.2869112E-005  0.1148305E+03  0.7546771E-02  0.1262612E+00
         -1   -1    0    0    0  501 -0.00000000000E+00  0.00000000000E+00  0.71072221621E+03  0.71072221621E+03  0.00000000000E+00 0.  1.
          2   -1    0    0  502    0  0.00000000000E+00 -0.00000000000E+00 -0.47924716315E+02  0.47924716315E+02  0.00000000000E+00 0. -1.
         23    2    1    2    0    0  0.38497609441E+01  0.67715753453E+02  0.43631744781E+03  0.44954844132E+03  0.84383895977E+02 0.  0.
         24    2    1    2    0    0  0.35466845512E+02  0.26658657885E+02  0.50921208976E+02  0.10594034480E+03  0.81619887050E+02 0.  0.
        -11    1    4    4    0    0  0.53367138773E+02 -0.33574774134E+01  0.46215274831E+02  0.70676557522E+02  0.00000000000E+00 0.  1.
         12    1    4    4    0    0 -0.17900293261E+02  0.30016135298E+02  0.47059341449E+01  0.35263787279E+02  0.00000000000E+00 0. -1.
        -11    1    3    3    0    0 -0.21956838663E+02  0.74262840867E+02  0.37132145127E+03  0.37931081249E+03  0.00000000000E+00 0. -1.
         11    1    3    3    0    0  0.25806599607E+02 -0.65470874147E+01  0.64995996539E+02  0.70237628825E+02  0.00000000000E+00 0.  1.
         21    1    1    2  502  501 -0.39316606456E+02 -0.94374411337E+02  0.17555884311E+03  0.20315814641E+03  0.00000000000E+00 0.  1.
<scales pt_clust_5="13000.00000" pt_clust_6="13000.00000" pt_clust_7="13000.00000" pt_clust_8="13000.00000" pt_clust_9="77.88069"></scales>
<clustering>
<clus scale="   81.620">  5  6 -1 -1</clus>
<clus scale="   84.384">  7  8 -1 -1</clus>
<clus scale="   92.900">  2  5  1 -1</clus>
<clus scale="   77.881">  2  9  1 -1</clus>
<clus scale="   92.900">  2  5  1 -1</clus>
</clustering>
</event>
<event>
 9    2  0.2869112E-005  0.9201365E+02  0.7546771E-02  0.1306294E+00
          2   -1    0    0  502    0  0.00000000000E+00  0.00000000000E+00  0.29319732419E+03  0.29319732419E+03  0.00000000000E+00 0. -1.
         -1   -1    0    0    0  501 -0.00000000000E+00 -0.00000000000E+00 -0.54543546351E+02  0.54543546351E+02  0.00000000000E+00 0.  1.
         23    2    1    2    0    0 -0.12409188776E+02 -0.16914243082E+02  0.60444170238E+02  0.11159056939E+03  0.91426899082E+02 0.  0.
         24    2    1    2    0    0 -0.59195047556E+01  0.82244972633E+01  0.19461961120E+03  0.21005928915E+03  0.78392786691E+02 0.  0.
        -11    1    4    4    0    0  0.13692308355E+02 -0.29652092239E+02  0.11722290924E+03  0.12168786436E+03  0.00000000000E+00 0.  1.
         12    1    4    4    0    0 -0.19611813110E+02  0.37876589502E+02  0.77396701960E+02  0.88371424793E+02  0.00000000000E+00 0. -1.
        -13    1    3    3    0    0 -0.35876481997E+02  0.13682322700E+01 -0.81565526023E+01  0.36817432968E+02  0.00000000000E+00 0.  1.
         13    1    3    3    0    0  0.23467293221E+02 -0.18282475352E+02  0.68600722840E+02  0.74773136421E+02  0.00000000000E+00 0. -1.
         21    1    1    2  502  501  0.18328693531E+02  0.86897458189E+01 -0.16410003598E+02  0.26091011997E+02  0.00000000000E+00 0.  1.
<scales pt_clust_5="13000.00000" pt_clust_6="13000.00000" pt_clust_7="13000.00000" pt_clust_8="13000.00000" pt_clust_9="20.28430"></scales>
<clustering>
<clus scale="   20.284">  2  9  1 -1</clus>
<clus scale="   78.393">  5  6 -1 -1</clus>
<clus scale="   79.076">  1  5  2 -1</clus>
<clus scale="   91.427">  7  8 -1 -1</clus>
<clus scale="   79.076">  1  5  2 -1</clus>
</clustering>
</event>
<event>
 9    2  0.2869112E-005  0.1013468E+03  0.7546771E-02  0.1283751E+00
          2   -1    0    0  502    0  0.00000000000E+00  0.00000000000E+00  0.51839992671E+03  0.51839992671E+03  0.00000000000E+00 0. -1.
         -1   -1    0    0    0  501 -0.00000000000E+00 -0.00000000000E+00 -0.27754540189E+03  0.27754540189E+03  0.00000000000E+00 0.  1.
         23    2    1    2    0    0  0.50239545379E+02 -0.44411823463E+02 -0.13373887292E+03  0.17517799413E+03  0.91130793450E+02 0.  0.
         24    2    1    2    0    0 -0.44182509776E+02 -0.18208464197E+01  0.48901391856E+03  0.49721085738E+03  0.78285468006E+02 0.  0.
        -11    1    4    4    0    0 -0.18415639965E+02 -0.39702207203E+02  0.21762231504E+03  0.22197944287E+03  0.00000000000E+00 0.  1.
         12    1    4    4    0    0 -0.25766869812E+02  0.37881360783E+02  0.27139160352E+03  0.27523141451E+03  0.00000000000E+00 0. -1.
        -13    1    3    3    0    0  0.43702048751E+02 -0.71454151530E+02 -0.86864640673E+02  0.12066909561E+03  0.00000000000E+00 0. -1.
         13    1    3    3    0    0  0.65374966283E+01  0.27042328067E+02 -0.46874232242E+02  0.54508898519E+02  0.00000000000E+00 0.  1.
         21    1    1    2  502  501 -0.60570356027E+01  0.46232669883E+02 -0.11442052082E+03  0.12355647709E+03  0.00000000000E+00 0.  1.
<scales pt_clust_5="13000.00000" pt_clust_6="13000.00000" pt_clust_7="13000.00000" pt_clust_8="13000.00000" pt_clust_9="46.62775"></scales>
<clustering>
<clus scale="   46.628">  2  9  1 -1</clus>
<clus scale="   78.285">  5  6 -1 -1</clus>
<clus scale="   89.972">  1  5  2 -1</clus>
<clus scale="   91.131">  7  8 -1 -1</clus>
<clus scale="   89.972">  1  5  2 -1</clus>
</clustering>
</event>
<event>
 9    2  0.2869112E-005  0.1090066E+03  0.7546771E-02  0.1267321E+00
          2   -1    0    0  502    0  0.00000000000E+00  0.00000000000E+00  0.24056046392E+03  0.24056046392E+03  0.00000000000E+00 0. -1.
         -1   -1    0    0    0  501 -0.00000000000E+00 -0.00000000000E+00 -0.19256504215E+03  0.19256504215E+03  0.00000000000E+00 0.  1.
         23    2    1    2    0    0  0.55084350684E+02  0.40837628012E+02 -0.12223328249E+03  0.16773854637E+03  0.92158814219E+02 0.  0.
         24    2    1    2    0    0 -0.33254898393E+01 -0.48483790187E+02  0.70299660466E+01  0.94006471818E+02  0.80162706588E+02 0.  0.
        -13    1    4    4    0    0  0.36580760896E+02 -0.15098928506E+02 -0.68375790298E+01  0.40160704634E+02  0.00000000000E+00 0.  1.
         14    1    4    4    0    0 -0.39906250735E+02 -0.33384861680E+02  0.13867545076E+02  0.53845767183E+02  0.00000000000E+00 0. -1.
        -13    1    3    3    0    0  0.65343011461E+02  0.62507254517E+02 -0.10250467498E+03  0.13668970118E+03  0.00000000000E+00 0.  1.
         13    1    3    3    0    0 -0.10258660778E+02 -0.21669626505E+02 -0.19728607510E+02  0.31048845197E+02  0.00000000000E+00 0. -1.
         21    1    1    2  502  501 -0.51758860844E+02  0.76461621748E+01  0.16319873822E+03  0.17138048789E+03  0.00000000000E+00 0. -1.
<scales pt_clust_5="13000.00000" pt_clust_6="13000.00000" pt_clust_7="13000.00000" pt_clust_8="13000.00000" pt_clust_9="52.32058"></scales>
<clustering>
<clus scale="   52.321">  1  9  2 -1</clus>
<clus scale="   80.163">  5  6 -1 -1</clus>
<clus scale="   92.159">  7  8 -1 -1</clus>
<clus scale="   99.072">  1  5  2 -1</clus>
<clus scale="   52.321">  1  5  2 -1</clus>
</clustering>
</event>
<event>
 9    2  0.2869112E-005  0.1113232E+03  0.7546771E-02  0.1263904E+00
         -1   -1    0    0    0  501 -0.00000000000E+00  0.00000000000E+00  0.46009508304E+02  0.46009508304E+02  0.00000000000E+00 0.  1.
          2   -1    0    0  502    0  0.00000000000E+00 -0.00000000000E+00 -0.46440716963E+03  0.46440716963E+03  0.00000000000E+00 0. -1.
         24    2    1    2    0    0 -0.23834246703E+01  0.40705341885E+02 -0.10815640320E+03  0.14141298533E+03  0.81469130931E+02 0.  0.
         23    2    1    2    0    0 -0.53023457734E+01 -0.67040239670E+02 -0.31936518820E+03  0.34009272568E+03  0.95636969937E+02 0.  0.
        -13    1    3    3    0    0 -0.96175944560E+00  0.52957004364E+02 -0.11549509535E+03  0.12706095522E+03  0.00000000000E+00 0.  1.
         14    1    3    3    0    0 -0.14216652247E+01 -0.12251662480E+02  0.73386921516E+01  0.14352030101E+02  0.00000000000E+00 0. -1.
        -11    1    4    4    0    0 -0.27849972844E+02 -0.17200141977E+02 -0.26367666238E+02  0.42032364843E+02  0.00000000000E+00 0.  1.
         11    1    4    4    0    0  0.22547627071E+02 -0.49840097693E+02 -0.29299752196E+03  0.29806036083E+03  0.00000000000E+00 0. -1.
         21    1    1    2  502  501  0.76857704437E+01  0.26334897786E+02  0.91239300759E+01  0.28910966928E+02  0.00000000000E+00 0.  1.
<scales pt_clust_5="13000.00000" pt_clust_6="13000.00000" pt_clust_7="13000.00000" pt_clust_8="13000.00000" pt_clust_9="27.43352"></scales>
<clustering>
<clus scale="   27.434">  1  9  2 -1</clus>
<clus scale="   81.469">  5  6 -1 -1</clus>
<clus scale="   95.637">  7  8 -1 -1</clus>
<clus scale="   99.416">  1  5  2 -1</clus>
<clus scale="  111.323">  2  5  1 -1</clus>
</clustering>
</event>
<event>
 9    2  0.2869112E-005  0.1131034E+03  0.7546771E-02  0.1258018E+00
          2   -1    0    0  502    0  0.00000000000E+00  0.00000000000E+00  0.47218422906E+03  0.47218422906E+03  0.00000000000E+00 0. -1.
         -1   -1    0    0    0  501 -0.00000000000E+00 -0.00000000000E+00 -0.35832124087E+02  0.35832124087E+02  0.00000000000E+00 0.  1.
         24    2    1    2    0    0 -0.40277399468E+02 -0.46696787042E+02  0.12829468203E+03  0.16293655699E+03  0.79283903416E+02 0.  0.
         23    2    1    2    0    0  0.69496453985E+02  0.38037138485E+02  0.27839912745E+03  0.30255501336E+03  0.88073156645E+02 0.  0.
        -11    1    3    3    0    0 -0.20751590891E+02 -0.33283324035E+02  0.76164562005E+01  0.39955207274E+02  0.00000000000E+00 0.  1.
         12    1    3    3    0    0 -0.19525808578E+02 -0.13413463007E+02  0.12067822583E+03  0.12298134972E+03  0.00000000000E+00 0. -1.
        -13    1    4    4    0    0  0.89818028762E+02  0.29940101806E+02  0.20201651019E+03  0.22310167721E+03  0.00000000000E+00 0. -1.
         13    1    4    4    0    0 -0.20321574777E+02  0.80970366798E+01  0.76382617263E+02  0.79453336144E+02  0.00000000000E+00 0.  1.
         21    1    1    2  502  501 -0.29219054517E+02  0.86596485565E+01  0.29658295490E+02  0.42524782790E+02  0.00000000000E+00 0. -1.
<scales pt_clust_5="13000.00000" pt_clust_6="13000.00000" pt_clust_7="13000.00000" pt_clust_8="13000.00000" pt_clust_9="30.47528"></scales>
<clustering>
<clus scale="   30.475">  2  9  1 -1</clus>
<clus scale="   79.284">  5  6 -1 -1</clus>
<clus scale="   88.073">  7  8 -1 -1</clus>
<clus scale="  106.402">  2  5  1 -1</clus>
<clus scale="  113.103">  1  5  2 -1</clus>
</clustering>
</event>
<event>
 9    2  0.2869112E-005  0.1067604E+03  0.7546771E-02  0.1270762E+00
          4   -1    0    0  502    0  0.00000000000E+00  0.00000000000E+00  0.14052407789E+03  0.14052407789E+03  0.00000000000E+00 0. -1.
         -3   -1    0    0    0  501 -0.00000000000E+00 -0.00000000000E+00 -0.17475459154E+03  0.17475459154E+03  0.00000000000E+00 0.  1.
         24    2    1    2    0    0  0.79040141995E+02 -0.24242067795E+02  0.20689887364E+02  0.11815584591E+03  0.81839541695E+02 0.  0.
         23    2    1    2    0    0 -0.80674866020E+01  0.43714694761E+02  0.56129706987E+01  0.10183069319E+03  0.91443565968E+02 0.  0.
        -11    1    3    3    0    0  0.79240090065E+02  0.90718801742E+01  0.16299891483E+01  0.79774355203E+02  0.00000000000E+00 0.  1.
         12    1    3    3    0    0 -0.19994807000E+00 -0.33313947970E+02  0.19059898216E+02  0.38381490702E+02  0.00000000000E+00 0. -1.
        -13    1    4    4    0    0 -0.32941115216E+02  0.82300191666E+01 -0.30331943313E+02  0.45528859774E+02  0.00000000000E+00 0.  1.
         13    1    4    4    0    0  0.24873628614E+02  0.35484675595E+02  0.35944914011E+02  0.56301833414E+02  0.00000000000E+00 0. -1.
         21    1    1    2  502  501 -0.70972655393E+02 -0.19472626966E+02 -0.60533371708E+02  0.95292130341E+02  0.00000000000E+00 0. -1.
<scales pt_clust_5="13000.00000" pt_clust_6="13000.00000" pt_clust_7="13000.00000" pt_clust_8="13000.00000" pt_clust_9="73.59552"></scales>
<clustering>
<clus scale="   73.596">  2  9  1 -1</clus>
<clus scale="   81.840">  5  6 -1 -1</clus>
<clus scale="   91.444">  7  8 -1 -1</clus>
<clus scale="   98.659">  2  5  1 -1</clus>
<clus scale="  106.760">  1  5  2 -1</clus>
</clustering>
</event>
<event>
 9    2  0.2869112E-005  0.1077712E+03  0.7546771E-02  0.1267671E+00
         -1   -1    0    0    0  501 -0.00000000000E+00  0.00000000000E+00  0.10438455495E+03  0.10438455495E+03  0.00000000000E+00 0.  1.
          2   -1    0    0  502    0  0.00000000000E+00 -0.00000000000E+00 -0.71859592776E+03  0.71859592776E+03  0.00000000000E+00 0. -1.
         23    2    1    2    0    0  0.49811919646E+02 -0.46581212038E+02  0.25377370923E+01  0.11571384267E+03  0.93446330165E+02 0.  0.
         24    2    1    2    0    0 -0.32979401563E+02  0.19858487158E+02 -0.65154149452E+03  0.66027783587E+03  0.99892447256E+02 0.  0.
        -11    1    4    4    0    0 -0.18378450485E+02 -0.38504320148E+02 -0.18401625883E+03  0.18889768031E+03  0.00000000000E+00 0.  1.
         12    1    4    4    0    0 -0.14600951078E+02  0.58362807305E+02 -0.46752523569E+03  0.47138015556E+03  0.00000000000E+00 0. -1.
        -11    1    3    3    0    0  0.45609935066E+02  0.12663601378E+02  0.23347555589E+02  0.52780122476E+02  0.00000000000E+00 0.  1.
         11    1    3    3    0    0  0.42019845800E+01 -0.59244813416E+02 -0.20809818497E+02  0.62933720190E+02  0.00000000000E+00 0. -1.
         21    1    1    2  502  501 -0.16832518083E+02  0.26722724880E+02  0.34792384619E+02  0.46988804172E+02  0.00000000000E+00 0. -1.
<scales pt_clust_5="13000.00000" pt_clust_6="13000.00000" pt_clust_7="13000.00000" pt_clust_8="13000.00000" pt_clust_9="31.58224"></scales>
<clustering>
<clus scale="   31.582">  1  9  2 -1</clus>
<clus scale="   93.446">  7  8 -1 -1</clus>
<clus scale="   99.892">  5  6 -1 -1</clus>
<clus scale="  101.825">  1  7  2 -1</clus>
<clus scale="  107.771">  2  5  1 -1</clus>
</clustering>
</event>
<event>
 9    2  0.2869112E-005  0.1007133E+03  0.7546771E-02  0.1284965E+00
          2   -1    0    0  502    0  0.00000000000E+00  0.00000000000E+00  0.32705877004E+03  0.32705877004E+03  0.00000000000E+00 0. -1.
         -1   -1    0    0    0  501 -0.00000000000E+00 -0.00000000000E+00 -0.12761536332E+03  0.12761536332E+03  0.00000000000E+00 0.  1.
         24    2    1    2    0    0 -0.31366914028E+02 -0.26528555588E+02 -0.17103148396E+02  0.91277422790E+02  0.79695687894E+02 0.  0.
         23    2    1    2    0    0 -0.36891731156E+02  0.32340307418E+02  0.26145628752E+03  0.28148271197E+03  0.92012127156E+02 0.  0.
        -13    1    3    3    0    0  0.21584559586E+02 -0.18684388608E+02  0.11271397565E+02  0.30692735187E+02  0.00000000000E+00 0.  1.
         14    1    3    3    0    0 -0.52951473613E+02 -0.78441669792E+01 -0.28374545961E+02  0.60584687603E+02  0.00000000000E+00 0. -1.
        -13    1    4    4    0    0  0.14052905216E+00  0.55645955633E+02  0.18718192106E+03  0.19527817005E+03  0.00000000000E+00 0. -1.
         13    1    4    4    0    0 -0.37032260208E+02 -0.23305648215E+02  0.74274366465E+02  0.86204541926E+02  0.00000000000E+00 0.  1.
         21    1    1    2  502  501  0.68258645184E+02 -0.58117518304E+01 -0.44909732402E+02  0.81913998596E+02  0.00000000000E+00 0.  1.
<scales pt_clust_5="13000.00000" pt_clust_6="13000.00000" pt_clust_7="13000.00000" pt_clust_8="13000.00000" pt_clust_9="68.50561"></scales>
<clustering>
<clus scale="   68.506">  2  9  1 -1</clus>
<clus scale="   79.696">  5  6 -1 -1</clus>
<clus scale="   89.601">  2  5  1 -1</clus>
<clus scale="   92.012">  7  8 -1 -1</clus>
<clus scale="  100.713">  1  5  2 -1</clus>
</clustering>
</event>
<event>
 9    2  0.2869112E-005  0.1185270E+03  0.7546771E-02  0.1249562E+00
         -1   -1    0    0    0  501 -0.00000000000E+00  0.00000000000E+00  0.24285081714E+03  0.24285081714E+03  0.00000000000E+00 0.  1.
          2   -1    0    0  502    0  0.00000000000E+00 -0.00000000000E+00 -0.42301754980E+03  0.42301754980E+03  0.00000000000E+00 0. -1.
         23    2    1    2    0    0 -0.10267938634E+02  0.51815700340E+02  0.19309043978E+03  0.22034822027E+03  0.92082152868E+02 0.  0.
         24    2    1    2    0    0  0.84284104574E+00 -0.75445417461E+02 -0.39626026177E+03  0.41122236081E+03  0.79930679843E+02 0.  0.
        -13    1    4    4    0    0  0.10136895340E+02 -0.91078724352E+02 -0.33654915710E+03  0.34880284664E+03  0.00000000000E+00 0.  1.
         14    1    4    4    0    0 -0.92940542943E+01  0.15633306891E+02 -0.59711104665E+02  0.62419514175E+02  0.00000000000E+00 0. -1.
        -13    1    3    3    0    0 -0.27098215653E+02 -0.17609592780E+02  0.40101010931E+02  0.51502447778E+02  0.00000000000E+00 0.  1.
         13    1    3    3    0    0  0.16830277019E+02  0.69425293120E+02  0.15298942885E+03  0.16884577249E+03  0.00000000000E+00 0. -1.
         21    1    1    2  502  501  0.94250975879E+01  0.23629717121E+02  0.23003089327E+02  0.34297785852E+02  0.00000000000E+00 0.  1.
<scales pt_clust_5="13000.00000" pt_clust_6="13000.00000" pt_clust_7="13000.00000" pt_clust_8="13000.00000" pt_clust_9="25.44005"></scales>
<clustering>
<clus scale="   25.440">  1  9  2 -1</clus>
<clus scale="   79.931">  5  6 -1 -1</clus>
<clus scale="   92.082">  7  8 -1 -1</clus>
<clus scale="  109.355">  2  5  1 -1</clus>
<clus scale="  109.355">  2  5  1 -1</clus>
</clustering>
</event>
<event>
 9    2  0.2869112E-005  0.9211860E+02  0.7546771E-02  0.1304858E+00
         -3   -1    0    0    0  501 -0.00000000000E+00  0.00000000000E+00  0.11404926287E+03  0.11404926287E+03  0.00000000000E+00 0.  1.
          4   -1    0    0  502    0  0.00000000000E+00 -0.00000000000E+00 -0.96727573285E+02  0.96727573285E+02  0.00000000000E+00 0. -1.
         23    2    1    2    0    0 -0.25945819609E+02 -0.36257080088E+01  0.22037732822E+02  0.97816145980E+02  0.91629719157E+02 0.  0.
         24    2    1    2    0    0 -0.16212265656E+01 -0.87604745776E+01 -0.12385103972E+02  0.81780984493E+02  0.80345281964E+02 0.  0.
        -13    1    4    4    0    0 -0.31633609939E+02  0.17488955122E+02 -0.19817251400E+02  0.41222230435E+02  0.00000000000E+00 0.  1.
         14    1    4    4    0    0  0.30012383373E+02 -0.26249429700E+02  0.74321474281E+01  0.40558754057E+02  0.00000000000E+00 0. -1.
        -11    1    3    3    0    0 -0.48175871240E+02 -0.14043128205E+02 -0.15889774958E+02  0.52636574430E+02  0.00000000000E+00 0. -1.
         11    1    3    3    0    0  0.22230051631E+02  0.10417420196E+02  0.37927507780E+02  0.45179571550E+02  0.00000000000E+00 0.  1.
         21    1    1    2  502  501  0.27567046174E+02  0.12386182586E+02  0.76690607355E+01  0.31179705682E+02  0.00000000000E+00 0. -1.
<scales pt_clust_5="13000.00000" pt_clust_6="13000.00000" pt_clust_7="13000.00000" pt_clust_8="13000.00000" pt_clust_9="30.22184"></scales>
<clustering>
<clus scale="   30.222">  1  9  2 -1</clus>
<clus scale="   80.345">  5  6 -1 -1</clus>
<clus scale="   80.902">  2  5  1 -1</clus>
<clus scale="   91.630">  7  8 -1 -1</clus>
<clus scale="   80.902">  2  5  1 -1</clus>
</clustering>
</event>
<event>
 9    2  0.2869112E-005  0.2499543E+03  0.7546771E-02  0.1114287E+00
         -1   -1    0    0    0  501 -0.00000000000E+00  0.00000000000E+00  0.24137429262E+03  0.24137429262E+03  0.00000000000E+00 0.  1.
          2   -1    0    0  502    0  0.00000000000E+00 -0.00000000000E+00 -0.14182770938E+04  0.14182770938E+04  0.00000000000E+00 0. -1.
         23    2    1    2    0    0  0.12099374873E+03 -0.26084458057E+03 -0.12132774269E+03  0.32470966017E+03  0.89646861700E+02 0.  0.
         24    2    1    2    0    0 -0.23211709257E+02  0.22728697750E+03 -0.11621031902E+04  0.11864975185E+04  0.71374947977E+02 0.  0.
        -11    1    4    4    0    0 -0.48877440461E+02  0.14719685506E+03 -0.73278276030E+03  0.74901701724E+03  0.00000000000E+00 0.  1.
         12    1    4    4    0    0  0.25665731204E+02  0.80090122434E+02 -0.42932042986E+03  0.43748050124E+03  0.00000000000E+00 0. -1.
        -11    1    3    3    0    0  0.88918526753E+02 -0.20879860661E+03 -0.53050727989E+02  0.23306167052E+03  0.00000000000E+00 0.  1.
         11    1    3    3    0    0  0.32075221978E+02 -0.52045973960E+02 -0.68277014702E+02  0.91647989650E+02  0.00000000000E+00 0. -1.
         21    1    1    2  502  501 -0.97782039474E+02  0.33557603075E+02  0.10652813170E+03  0.14844420774E+03  0.00000000000E+00 0. -1.
<scales pt_clust_5="13000.00000" pt_clust_6="13000.00000" pt_clust_7="13000.00000" pt_clust_8="13000.00000" pt_clust_9="103.38008"></scales>
<clustering>
<clus scale="   71.375">  5  6 -1 -1</clus>
<clus scale="   89.647">  7  8 -1 -1</clus>
<clus scale="  103.380">  1  9  2 -1</clus>
<clus scale="  243.998">  2  5  1 -1</clus>
<clus scale="  243.998">  2  5  1 -1</clus>
</clustering>
</event>
<event>
 9    2  0.2869112E-005  0.1764654E+03  0.7546771E-02  0.1200389E+00
          2   -1    0    0  502    0  0.00000000000E+00  0.00000000000E+00  0.79473522781E+03  0.79473522781E+03  0.00000000000E+00 0. -1.
         -1   -1    0    0    0  501 -0.00000000000E+00 -0.00000000000E+00 -0.47209515324E+03  0.47209515324E+03  0.00000000000E+00 0.  1.
         23    2    1    2    0    0 -0.78393213554E+00 -0.16595278143E+02 -0.87309694741E+02  0.12704841307E+03  0.90787106252E+02 0.  0.
         24    2    1    2    0    0  0.38272507230E+02 -0.15137503161E+03  0.74370708956E+03  0.76426450229E+03  0.81368356278E+02 0.  0.
        -13    1    4    4    0    0 -0.13484127679E+02 -0.37084728562E+02  0.84965738170E+02  0.93681777601E+02  0.00000000000E+00 0.  1.
         14    1    4    4    0    0  0.51756634909E+02 -0.11429030305E+03  0.65874135139E+03  0.67058272469E+03  0.00000000000E+00 0. -1.
        -13    1    3    3    0    0  0.41137035743E+02 -0.96071948233E+01 -0.68709415420E+02  0.80656913339E+02  0.00000000000E+00 0.  1.
         13    1    3    3    0    0 -0.41920967879E+02 -0.69880833197E+01 -0.18600279321E+02  0.46391499730E+02  0.00000000000E+00 0. -1.
         21    1    1    2  502  501 -0.37488575095E+02  0.16797030975E+03 -0.33375732024E+03  0.37551746569E+03  0.00000000000E+00 0.  1.
<scales pt_clust_5="13000.00000" pt_clust_6="13000.00000" pt_clust_7="13000.00000" pt_clust_8="13000.00000" pt_clust_9="156.58618"></scales>
<clustering>
<clus scale="   81.368">  5  6 -1 -1</clus>
<clus scale="   90.787">  7  8 -1 -1</clus>
<clus scale="   92.295">  2  7  1 -1</clus>
<clus scale="  156.586">  2  9  1 -1</clus>
<clus scale="  176.465">  1  5  2 -1</clus>
</clustering>
</event>
<event>
 9    2  0.2869112E-005  0.8583849E+02  0.7546771E-02  0.1315893E+00
         -1   -1    0    0    0  501 -0.00000000000E+00  0.00000000000E+00  0.14292368598E+03  0.14292368598E+03  0.00000000000E+00 0.  1.
          2   -1    0    0  502    0  0.00000000000E+00 -0.00000000000E+00 -0.25196561689E+03  0.25196561689E+03  0.00000000000E+00 0. -1.
         23    2    1    2    0    0  0.30989064046E+02  0.10771706353E+01 -0.32461550792E+02  0.96293426245E+02  0.85189138223E+02 0.  0.
         24    2    1    2    0    0  0.11261200201E+02 -0.13165827266E+02 -0.17341594939E+03  0.19225516040E+03  0.81171433145E+02 0.  0.
        -11    1    4    4    0    0  0.22752685282E+02  0.22156015941E+02 -0.28554866417E+02  0.42707775943E+02  0.00000000000E+00 0.  1.
         12    1    4    4    0    0 -0.11491485081E+02 -0.35321843207E+02 -0.14486108298E+03  0.14954738446E+03  0.00000000000E+00 0. -1.
        -11    1    3    3    0    0 -0.47644568208E+01  0.25371432986E+02 -0.44479038334E+02  0.51427565679E+02  0.00000000000E+00 0.  1.
         11    1    3    3    0    0  0.35753520867E+02 -0.24294262351E+02  0.12017487541E+02  0.44865860567E+02  0.00000000000E+00 0. -1.
         21    1    1    2  502  501 -0.42250264248E+02  0.12088656631E+02  0.96835569283E+02  0.10634071622E+03  0.00000000000E+00 0.  1.
<scales pt_clust_5="13000.00000" pt_clust_6="13000.00000" pt_clust_7="13000.00000" pt_clust_8="13000.00000" pt_clust_9="43.94565"></scales>
<clustering>
<clus scale="   43.946">  1  9  2 -1</clus>
<clus scale="   81.171">  5  6 -1 -1</clus>
<clus scale="   81.853">  2  5  1 -1</clus>
<clus scale="   85.189">  7  8 -1 -1</clus>
<clus scale="   81.853">  2  5  1 -1</clus>
</clustering>
</event>
<event>
 9    2  0.2869112E-005  0.1238855E+03  0.7546771E-02  0.1239820E+00
          2   -1    0    0  502    0  0.00000000000E+00  0.00000000000E+00  0.23665327583E+03  0.23665327583E+03  0.00000000000E+00 0. -1.
         -1   -1    0    0    0  501 -0.00000000000E+00 -0.00000000000E+00 -0.18219476869E+03  0.18219476869E+03  0.00000000000E+00 0.  1.
         23    2    1    2    0    0 -0.41591346008E+02 -0.84243706395E+02 -0.10430181108E+03  0.16797013125E+03  0.92240203096E+02 0.  0.
         24    2    1    2    0    0 -0.18097998794E+02  0.36675902160E+02  0.14753361518E+03  0.17373160588E+03  0.82120910326E+02 0.  0.
        -11    1    4    4    0    0  0.25374660611E+02  0.45501200632E+01  0.13268316367E+02  0.28993537434E+02  0.00000000000E+00 0.  1.
         12    1    4    4    0    0 -0.43472659405E+02  0.32125782096E+02  0.13426529881E+03  0.14473806844E+03  0.00000000000E+00 0. -1.
        -11    1    3    3    0    0 -0.30126859499E+02  0.13640696443E+02 -0.24465165663E+02  0.41136852014E+02  0.00000000000E+00 0. -1.
         11    1    3    3    0    0 -0.11464486509E+02 -0.97884402839E+02 -0.79836645419E+02  0.12683327924E+03  0.00000000000E+00 0.  1.
         21    1    1    2  502  501  0.59689344801E+02  0.47567804236E+02  0.11226703043E+02  0.77146307389E+02  0.00000000000E+00 0. -1.
<scales pt_clust_5="13000.00000" pt_clust_6="13000.00000" pt_clust_7="13000.00000" pt_clust_8="13000.00000" pt_clust_9="76.32505"></scales>
<clustering>
<clus scale="   76.325">  1  9  2 -1</clus>
<clus scale="   82.121">  5  6 -1 -1</clus>
<clus scale="   92.240">  7  8 -1 -1</clus>
<clus scale="  116.547">  1  5  2 -1</clus>
<clus scale="   76.325">  1  5  2 -1</clus>
</clustering>
</event>
<event>
 9    2  0.2869112E-005  0.9740714E+02  0.7546771E-02  0.1289057E+00
         -1   -1    0    0    0  501 -0.00000000000E+00  0.00000000000E+00  0.38465685327E+02  0.38465685327E+02  0.00000000000E+00 0.  1.
          2   -1    0    0  502    0  0.00000000000E+00 -0.00000000000E+00 -0.37110155415E+03  0.37110155415E+03  0.00000000000E+00 0. -1.
         24    2    1    2    0    0  0.25006691694E+02  0.34061628976E+02 -0.66642446185E+02  0.11432021199E+03  0.82718595483E+02 0.  0.
         23    2    1    2    0    0 -0.39270785952E+02 -0.11755078271E+02 -0.23418854624E+03  0.25386349510E+03  0.89005743990E+02 0.  0.
        -11    1    3    3    0    0  0.51717332559E+02  0.33480179991E+02 -0.61619175482E+02  0.87135111903E+02  0.00000000000E+00 0.  1.
         12    1    3    3    0    0 -0.26710640866E+02  0.58144898525E+00 -0.50232707030E+01  0.27185100090E+02  0.00000000000E+00 0. -1.
        -11    1    4    4    0    0  0.95176266949E+01  0.23567828831E+02 -0.23087373590E+02  0.34337364387E+02  0.00000000000E+00 0.  1.
         11    1    4    4    0    0 -0.48788412647E+02 -0.35322907103E+02 -0.21110117265E+03  0.21952613072E+03  0.00000000000E+00 0. -1.
         21    1    1    2  502  501  0.14264094258E+02 -0.22306550705E+02 -0.31804876403E+02  0.41383532382E+02  0.00000000000E+00 0. -1.
<scales pt_clust_5="13000.00000" pt_clust_6="13000.00000" pt_clust_7="13000.00000" pt_clust_8="13000.00000" pt_clust_9="26.47728"></scales>
<clustering>
<clus scale="   26.477">  1  9  2 -1</clus>
<clus scale="   82.719">  5  6 -1 -1</clus>
<clus scale="   89.006">  7  8 -1 -1</clus>
<clus scale="   91.698">  1  5  2 -1</clus>
<clus scale="   97.407">  2  5  1 -1</clus>
</clustering>
</event>
<event>
 9    2  0.2869112E-005  0.1198913E+03  0.7546771E-02  0.1246910E+00
          2   -1    0    0  502    0  0.00000000000E+00  0.00000000000E+00  0.16249062538E+03  0.16249062538E+03  0.00000000000E+00 0. -1.
         -1   -1    0    0    0  501 -0.00000000000E+00 -0.00000000000E+00 -0.12610781029E+03  0.12610781029E+03  0.00000000000E+00 0.  1.
         23    2    1    2    0    0 -0.78570788295E+02  0.48590986603E+02  0.79206088822E+01  0.13011347344E+03  0.91281581782E+02 0.  0.
         24    2    1    2    0    0  0.68794855922E+02 -0.17684116787E+02  0.51585030125E+02  0.11866702103E+03  0.79846016556E+02 0.  0.
        -11    1    4    4    0    0  0.24327909995E+02 -0.33125155296E+02 -0.88723211131E+01  0.42045703705E+02  0.00000000000E+00 0.  1.
         12    1    4    4    0    0  0.44466945927E+02  0.15441038509E+02  0.60457351238E+02  0.76621317328E+02  0.00000000000E+00 0. -1.
        -13    1    3    3    0    0  0.14693170638E+02  0.31626113290E+02  0.53789715882E+01  0.35285034230E+02  0.00000000000E+00 0. -1.
         13    1    3    3    0    0 -0.93263958934E+02  0.16964873313E+02  0.25416372941E+01  0.94828439208E+02  0.00000000000E+00 0.  1.
         21    1    1    2  502  501  0.97759323733E+01 -0.30906869816E+02 -0.23122823919E+02  0.39817941202E+02  0.00000000000E+00 0. -1.
<scales pt_clust_5="13000.00000" pt_clust_6="13000.00000" pt_clust_7="13000.00000" pt_clust_8="13000.00000" pt_clust_9="32.41610"></scales>
<clustering>
<clus scale="   32.416">  2  9  1 -1</clus>
<clus scale="   79.846">  5  6 -1 -1</clus>
<clus scale="   91.282">  7  8 -1 -1</clus>
<clus scale="  111.431">  1  5  2 -1</clus>
<clus scale="  111.431">  1  5  2 -1</clus>
</clustering>
</event>
<event>
 9    2  0.2869112E-005  0.1058557E+03  0.7546771E-02  0.1273012E+00
          2   -1    0    0  502    0  0.00000000000E+00  0.00000000000E+00  0.30017172800E+03  0.30017172800E+03  0.00000000000E+00 0. -1.
         -1   -1    0    0    0  501 -0.00000000000E+00 -0.00000000000E+00 -0.75440859181E+02  0.75440859181E+02  0.00000000000E+00 0.  1.
         23    2    1    2    0    0 -0.12742399390E+02 -0.52244348833E+02  0.28820585708E+02  0.11024573789E+03  0.91824048242E+02 0.  0.
         24    2    1    2    0    0  0.33331980890E+02  0.41736619604E+02  0.21460259239E+03  0.23563898920E+03  0.81354128373E+02 0.  0.
        -13    1    4    4    0    0  0.29582056620E+02 -0.12251905366E+02  0.32330671929E+02  0.45502523076E+02  0.00000000000E+00 0.  1.
         14    1    4    4    0    0  0.37499242700E+01  0.53988524969E+02  0.18227192046E+03  0.19013646612E+03  0.00000000000E+00 0. -1.
        -11    1    3    3    0    0 -0.29413855346E+02 -0.70676480973E+02  0.64786061480E+01  0.76826507057E+02  0.00000000000E+00 0.  1.
         11    1    3    3    0    0  0.16671455956E+02  0.18432132140E+02  0.22341979560E+02  0.33419230834E+02  0.00000000000E+00 0. -1.
         21    1    1    2  502  501 -0.20589581500E+02  0.10507729229E+02 -0.18692309275E+02  0.29727860096E+02  0.00000000000E+00 0. -1.
<scales pt_clust_5="13000.00000" pt_clust_6="13000.00000" pt_clust_7="13000.00000" pt_clust_8="13000.00000" pt_clust_9="23.11587"></scales>
<clustering>
<clus scale="   23.116">  2  9  1 -1</clus>
<clus scale="   81.354">  5  6 -1 -1</clus>
<clus scale="   91.824">  7  8 -1 -1</clus>
<clus scale="   96.914">  1  5  2 -1</clus>
<clus scale="   96.914">  1  5  2 -1</clus>
</clustering>
</event>
<event>
 9    2  0.2869112E-005  0.1678595E+03  0.7546771E-02  0.1197568E+00
          2   -1    0    0  502    0  0.00000000000E+00  0.00000000000E+00  0.99757603328E+02  0.99757603328E+02  0.00000000000E+00 0. -1.
         -1   -1    0    0    0  501 -0.00000000000E+00 -0.00000000000E+00 -0.61386449078E+03  0.61386449078E+03  0.00000000000E+00 0.  1.
         24    2    1    2    0    0  0.16827173866E+03  0.16060937531E+00 -0.39100679687E+03  0.43326304228E+03  0.80716446784E+02 0.  0.
         23    2    1    2    0    0 -0.50971722907E+02 -0.39187459991E+02 -0.12893509370E+02  0.11474540714E+03  0.94162053498E+02 0.  0.
        -13    1    3    3    0    0  0.16995475548E+03  0.13989052107E+02 -0.37555783923E+03  0.41246091100E+03  0.00000000000E+00 0.  1.
         14    1    3    3    0    0 -0.16830168193E+01 -0.13828442732E+02 -0.15448957633E+02  0.20802131284E+02  0.00000000000E+00 0. -1.
        -11    1    4    4    0    0 -0.74676431605E+02 -0.41338331633E+02  0.41736867064E+01  0.85456695233E+02  0.00000000000E+00 0. -1.
         11    1    4    4    0    0  0.23704708698E+02  0.21508716414E+01 -0.17067196076E+02  0.29288711907E+02  0.00000000000E+00 0.  1.
         21    1    1    2  502  501 -0.11730001575E+03  0.39026850616E+02 -0.11020658122E+03  0.16561364469E+03  0.00000000000E+00 0. -1.
<scales pt_clust_5="13000.00000" pt_clust_6="13000.00000" pt_clust_7="13000.00000" pt_clust_8="13000.00000" pt_clust_9="147.17904"></scales>
<clustering>
<clus scale="   80.716">  5  6 -1 -1</clus>
<clus scale="   94.162">  7  8 -1 -1</clus>
<clus scale="  114.019">  1  7  2 -1</clus>
<clus scale="  147.179">  1  9  2 -1</clus>
<clus scale="  114.019">  1  5  2 -1</clus>
</clustering>
</event>
<event>
 9    2  0.2869112E-005  0.1384970E+03  0.7546771E-02  0.1218206E+00
          2   -1    0    0  502    0  0.00000000000E+00  0.00000000000E+00  0.19156321803E+03  0.19156321803E+03  0.00000000000E+00 0. -1.
         -1   -1    0    0    0  501 -0.00000000000E+00 -0.00000000000E+00 -0.27667170368E+03  0.27667170368E+03  0.00000000000E+00 0.  1.
         24    2    1    2    0    0  0.34188105692E+02  0.94209331432E+02 -0.10122521354E+01  0.12789208595E+03  0.79442660412E+02 0.  0.
         23    2    1    2    0    0 -0.73786985121E+02 -0.79722996098E+02  0.85152155122E+02  0.16592109911E+03  0.92079565197E+02 0.  0.
        -13    1    3    3    0    0  0.38027443410E+02  0.42239945132E+02 -0.33988933094E+02  0.66223462534E+02  0.00000000000E+00 0.  1.
         14    1    3    3    0    0 -0.38393377179E+01  0.51969386300E+02  0.32976680958E+02  0.61668623412E+02  0.00000000000E+00 0. -1.
        -13    1    4    4    0    0 -0.48796034952E+02 -0.61809132987E+02  0.36747382710E+01  0.78834799733E+02  0.00000000000E+00 0.  1.
         13    1    4    4    0    0 -0.24990950170E+02 -0.17913863111E+02  0.81477416851E+02  0.87086299374E+02  0.00000000000E+00 0. -1.
         21    1    1    2  502  501  0.39598879429E+02 -0.14486335335E+02 -0.16924838864E+03  0.17442173666E+03  0.00000000000E+00 0.  1.
<scales pt_clust_5="13000.00000" pt_clust_6="13000.00000" pt_clust_7="13000.00000" pt_clust_8="13000.00000" pt_clust_9="42.16545"></scales>
<clustering>
<clus scale="   42.165">  2  9  1 -1</clus>
<clus scale="   79.443">  5  6 -1 -1</clus>
<clus scale="   92.080">  7  8 -1 -1</clus>
<clus scale="  130.437">  2  5  1 -1</clus>
<clus scale="  138.497">  1  5  2 -1</clus>
</clustering>
</event>
<event>
 9    2  0.2869112E-005  0.1063805E+03  0.7546771E-02  0.1277295E+00
          2   -1    0    0  502    0  0.00000000000E+00  0.00000000000E+00  0.34363104293E+03  0.34363104293E+03  0.00000000000E+00 0. -1.
         -1   -1    0    0    0  501 -0.00000000000E+00 -0.00000000000E+00 -0.20780617787E+03  0.20780617787E+03  0.00000000000E+00 0.  1.
         23    2    1    2    0    0 -0.10851999124E+02 -0.90527960589E+01 -0.65989777394E+02  0.11326609082E+03  0.90966134406E+02 0.  0.
         24    2    1    2    0    0 -0.45013704670E+02 -0.40266897247E+02  0.30074831339E+03  0.31431120809E+03  0.68515187386E+02 0.  0.
        -11    1    4    4    0    0 -0.59749226331E+02 -0.42670565410E+02  0.27412352789E+03  0.28378593295E+03  0.00000000000E+00 0.  1.
         12    1    4    4    0    0  0.14735521661E+02  0.24036681635E+01  0.26624785499E+02  0.30525275136E+02  0.00000000000E+00 0. -1.
        -11    1    3    3    0    0 -0.15486202014E+02  0.39691645347E+02 -0.24921995961E+02  0.49359447381E+02  0.00000000000E+00 0.  1.
         11    1    3    3    0    0  0.46342028897E+01 -0.48744441406E+02 -0.41067781433E+02  0.63906643443E+02  0.00000000000E+00 0. -1.
         21    1    1    2  502  501  0.55865703794E+02  0.49319693306E+02 -0.98933670927E+02  0.12385992189E+03  0.00000000000E+00 0.  1.
<scales pt_clust_5="13000.00000" pt_clust_6="13000.00000" pt_clust_7="13000.00000" pt_clust_8="13000.00000" pt_clust_9="74.52120"></scales>
<clustering>
<clus scale="   68.515">  5  6 -1 -1</clus>
<clus scale="   74.521">  2  9  1 -1</clus>
<clus scale="   87.956">  1  5  2 -1</clus>
<clus scale="   90.966">  7  8 -1 -1</clus>
<clus scale="   87.956">  1  5  2 -1</clus>
</clustering>
</event>
<event>
 9    2  0.3018185E-005  0.9433765E+02  0.7546771E-02  0.1299261E+00
         -1   -1    0    0    0  501 -0.00000000000E+00  0.00000000000E+00  0.24729854614E+03  0.24729854614E+03  0.00000000000E+00 0.  1.
          2   -1    0    0  502    0  0.00000000000E+00 -0.00000000000E+00 -0.76035122943E+02  0.76035122943E+02  0.00000000000E+00 0. -1.
         24    2    1    2    0    0  0.34508992411E+02  0.16823798531E+01  0.16434212077E+03  0.18673106148E+03  0.81648366200E+02 0.  0.
         23    2    1    2    0    0 -0.13543099092E+02 -0.38268417618E+01 -0.26179388253E+02  0.97362027546E+02  0.92714312745E+02 0.  0.
        -13    1    3    3    0    0  0.50897638718E+02 -0.15677588006E+02  0.62430629003E+02  0.82060586340E+02  0.00000000000E+00 0.  1.
         14    1    3    3    0    0 -0.16388646307E+02  0.17359967859E+02  0.10191149177E+03  0.10467047514E+03  0.00000000000E+00 0. -1.
        -13    1    4    4    0    0  0.34520593310E+02  0.10656149575E+02  0.75184965328E+01  0.36901933233E+02  0.00000000000E+00 0.  1.
         13    1    4    4    0    0 -0.48063692402E+02 -0.14482991337E+02 -0.33697884786E+02  0.60460094313E+02  0.00000000000E+00 0. -1.
         21    1    1    2  502  501 -0.20965893319E+02  0.21444619086E+01  0.33100690672E+02  0.39240580048E+02  0.00000000000E+00 0. -1.
<scales pt_clust_5="13000.00000" pt_clust_6="13000.00000" pt_clust_7="13000.00000" pt_clust_8="13000.00000" pt_clust_9="21.07528"></scales>
<clustering>
<clus scale="   21.075">  1  9  2 -1</clus>
<clus scale="   81.648">  5  6 -1 -1</clus>
<clus scale="   83.487">  1  5  2 -1</clus>
<clus scale="   92.714">  7  8 -1 -1</clus>
<clus scale="   94.338">  2  5  1 -1</clus>
</clustering>
</event>
<event>
 9    2  0.2869112E-005  0.1171627E+03  0.7546771E-02  0.1251169E+00
          2   -1    0    0  502    0  0.00000000000E+00  0.00000000000E+00  0.59771034189E+03  0.59771034189E+03  0.00000000000E+00 0. -1.
         -1   -1    0    0    0  501 -0.00000000000E+00 -0.00000000000E+00 -0.70565555898E+02  0.70565555898E+02  0.00000000000E+00 0.  1.
         23    2    1    2    0    0  0.90899928785E+02 -0.54586347500E+02  0.69446253037E+02  0.15859273344E+03  0.95322645010E+02 0.  0.
         24    2    1    2    0    0 -0.45082733964E+02  0.44220222136E+02  0.44953039124E+03  0.46200308008E+03  0.85915030201E+02 0.  0.
        -13    1    4    4    0    0 -0.21608940382E+02  0.21979530922E+02  0.36778825641E+02  0.47986749208E+02  0.00000000000E+00 0.  1.
         14    1    4    4    0    0 -0.23473793582E+02  0.22240691214E+02  0.41275156560E+03  0.41401633088E+03  0.00000000000E+00 0. -1.
        -13    1    3    3    0    0  0.76102411705E+02  0.31938354514E+01  0.62529624824E+02  0.98548118362E+02  0.00000000000E+00 0.  1.
         13    1    3    3    0    0  0.14797517080E+02 -0.57780182951E+02  0.69166282133E+01  0.60044615074E+02  0.00000000000E+00 0. -1.
         21    1    1    2  502  501 -0.45817194821E+02  0.10366125364E+02  0.81681417157E+01  0.47680084264E+02  0.00000000000E+00 0.  1.
<scales pt_clust_5="13000.00000" pt_clust_6="13000.00000" pt_clust_7="13000.00000" pt_clust_8="13000.00000" pt_clust_9="46.97523"></scales>
<clustering>
<clus scale="   46.975">  2  9  1 -1</clus>
<clus scale="   85.915">  5  6 -1 -1</clus>
<clus scale="   95.323">  7  8 -1 -1</clus>
<clus scale="  109.645">  1  5  2 -1</clus>
<clus scale="  109.645">  1  5  2 -1</clus>
</clustering>
</event>
<event>
 9    2  0.2869112E-005  0.9494460E+02  0.7546771E-02  0.1295832E+00
          2   -1    0    0  502    0  0.00000000000E+00  0.00000000000E+00  0.25433842764E+03  0.25433842764E+03  0.00000000000E+00 0. -1.
         -1   -1    0    0    0  501 -0.00000000000E+00 -0.00000000000E+00 -0.31460993216E+03  0.31460993216E+03  0.00000000000E+00 0.  1.
         23    2    1    2    0    0  0.45015021475E+01  0.14047658573E+02 -0.16519976759E+03  0.18961143172E+03  0.91890867852E+02 0.  0.
         24    2    1    2    0    0 -0.24722287887E+02 -0.62591908419E+00  0.23305178527E+03  0.24893501011E+03  0.83928072450E+02 0.  0.
        -13    1    4    4    0    0  0.45023622913E+01 -0.25657027520E+02  0.21111048850E+02  0.33529549816E+02  0.00000000000E+00 0.  1.
         14    1    4    4    0    0 -0.29224650178E+02  0.25031108436E+02  0.21194073642E+03  0.21540546029E+03  0.00000000000E+00 0. -1.
        -13    1    3    3    0    0 -0.21430978310E+02  0.32652419945E+02 -0.14857940630E+03  0.15362716991E+03  0.00000000000E+00 0.  1.
         13    1    3    3    0    0  0.25932480458E+02 -0.18604761372E+02 -0.16620361292E+02  0.35984261808E+02  0.00000000000E+00 0. -1.
         21    1    1    2  502  501  0.20220785739E+02 -0.13421739489E+02 -0.12812352221E+03  0.13040191797E+03  0.00000000000E+00 0.  1.
<scales pt_clust_5="13000.00000" pt_clust_6="13000.00000" pt_clust_7="13000.00000" pt_clust_8="13000.00000" pt_clust_9="24.26980"></scales>
<clustering>
<clus scale="   24.270">  2  9  1 -1</clus>
<clus scale="   83.928">  5  6 -1 -1</clus>
<clus scale="   87.261">  1  5  2 -1</clus>
<clus scale="   91.891">  7  8 -1 -1</clus>
<clus scale="   87.261">  1  5  2 -1</clus>
</clustering>
</event>
<event>
 9    2  0.2869112E-005  0.1137760E+03  0.7546771E-02  0.1261491E+00
         -1   -1    0    0    0  501 -0.00000000000E+00  0.00000000000E+00  0.33771229582E+03  0.33771229582E+03  0.00000000000E+00 0.  1.
          2   -1    0    0  502    0  0.00000000000E+00 -0.00000000000E+00 -0.87264237992E+02  0.87264237992E+02  0.00000000000E+00 0. -1.
         24    2    1    2    0    0 -0.14046263549E+02 -0.79538014628E+02  0.85016404538E+02  0.14118699217E+03  0.78628140179E+02 0.  0.
         23    2    1    2    0    0  0.53504537313E+02  0.21746138571E+02  0.11008322377E+02  0.11425069229E+03  0.97961254954E+02 0.  0.
        -11    1    3    3    0    0  0.23999666996E+02 -0.53276809339E+02  0.72839506488E+02  0.93380919543E+02  0.00000000000E+00 0.  1.
         12    1    3    3    0    0 -0.38045930545E+02 -0.26261205289E+02  0.12176898050E+02  0.47806072631E+02  0.00000000000E+00 0. -1.
        -11    1    4    4    0    0  0.49286570924E+01  0.40588664293E+02  0.37783094145E+02  0.55671299005E+02  0.00000000000E+00 0.  1.
         11    1    4    4    0    0  0.48575880221E+02 -0.18842525721E+02 -0.26774771768E+02  0.58579393288E+02  0.00000000000E+00 0. -1.
         21    1    1    2  502  501 -0.39458273764E+02  0.57791876056E+02  0.15442333092E+03  0.16953884935E+03  0.00000000000E+00 0.  1.
<scales pt_clust_5="13000.00000" pt_clust_6="13000.00000" pt_clust_7="13000.00000" pt_clust_8="13000.00000" pt_clust_9="69.97754"></scales>
<clustering>
<clus scale="   69.978">  1  9  2 -1</clus>
<clus scale="   78.628">  5  6 -1 -1</clus>
<clus scale="   97.627">  1  5  2 -1</clus>
<clus scale="   97.961">  7  8 -1 -1</clus>
<clus scale="  113.776">  2  5  1 -1</clus>
</clustering>
</event>
<event>
 9    2  0.2869112E-005  0.3182025E+03  0.7546771E-02  0.1077226E+00
         -1   -1    0    0    0  501 -0.00000000000E+00  0.00000000000E+00  0.81756996679E+02  0.81756996679E+02  0.00000000000E+00 0.  1.
          2   -1    0    0  502    0  0.00000000000E+00 -0.00000000000E+00 -0.16068151377E+04  0.16068151377E+04  0.00000000000E+00 0. -1.
         23    2    1    2    0    0  0.26855533980E+03  0.13007813912E+02 -0.56926575041E+03  0.63793223673E+03  0.10297023990E+03 0.  0.
         24    2    1    2    0    0 -0.34090762671E+03 -0.51236768516E+02 -0.76222892462E+03  0.84048966150E+03  0.81158617293E+02 0.  0.
        -13    1    4    4    0    0 -0.29511237339E+03 -0.61283898956E+02 -0.70344503801E+03  0.76529860231E+03  0.00000000000E+00 0.  1.
         14    1    4    4    0    0 -0.45795253317E+02  0.10047130440E+02 -0.58783886610E+02  0.75191059185E+02  0.00000000000E+00 0. -1.
        -11    1    3    3    0    0  0.12222389706E+03  0.14327556461E+02 -0.15093288565E+03  0.19474264006E+03  0.00000000000E+00 0.  1.
         11    1    3    3    0    0  0.14633144274E+03 -0.13197425491E+01 -0.41833286476E+03  0.44318959667E+03  0.00000000000E+00 0. -1.
         21    1    1    2  502  501  0.72352286912E+02  0.38228954604E+02 -0.19356346604E+03  0.21015023620E+03  0.00000000000E+00 0.  1.
<scales pt_clust_5="13000.00000" pt_clust_6="13000.00000" pt_clust_7="13000.00000" pt_clust_8="13000.00000" pt_clust_9="81.83096"></scales>
<clustering>
<clus scale="   81.159">  5  6 -1 -1</clus>
<clus scale="   81.831">  2  9  1 -1</clus>
<clus scale="  102.970">  7  8 -1 -1</clus>
<clus scale="  311.828">  2  5  1 -1</clus>
<clus scale="   81.831">  2  5  1 -1</clus>
</clustering>
</event>
<event>
 9    2  0.2869112E-005  0.9449308E+02  0.7546771E-02  0.1297901E+00
          2   -1    0    0  502    0  0.00000000000E+00  0.00000000000E+00  0.77620591327E+03  0.77620591327E+03  0.00000000000E+00 0. -1.
         -1   -1    0    0    0  501 -0.00000000000E+00 -0.00000000000E+00 -0.18238347091E+02  0.18238347091E+02  0.00000000000E+00 0.  1.
         23    2    1    2    0    0  0.40214558954E+02 -0.16896895662E+02  0.28903163356E+03  0.30513180777E+03  0.87540956564E+02 0.  0.
         24    2    1    2    0    0 -0.33024470450E+02 -0.20309371098E+01  0.45918816414E+03  0.46684070997E+03  0.77406317876E+02 0.  0.
        -11    1    4    4    0    0  0.10016702552E+02  0.28895243248E+02  0.14208858550E+03  0.14534247673E+03  0.00000000000E+00 0.  1.
         12    1    4    4    0    0 -0.43041173002E+02 -0.30926180357E+02  0.31709957863E+03  0.32149823324E+03  0.00000000000E+00 0. -1.
        -13    1    3    3    0    0  0.40719545910E+02 -0.47917677296E+02  0.23003446212E+03  0.23847439900E+03  0.00000000000E+00 0. -1.
         13    1    3    3    0    0 -0.50498695582E+00  0.31020781634E+02  0.58997171449E+02  0.66657408770E+02  0.00000000000E+00 0.  1.
         21    1    1    2  502  501 -0.71900885038E+01  0.18927832771E+02  0.97477684741E+01  0.22471742619E+02  0.00000000000E+00 0.  1.
<scales pt_clust_5="13000.00000" pt_clust_6="13000.00000" pt_clust_7="13000.00000" pt_clust_8="13000.00000" pt_clust_9="20.24747"></scales>
<clustering>
<clus scale="   20.247">  2  9  1 -1</clus>
<clus scale="   77.406">  5  6 -1 -1</clus>
<clus scale="   85.190">  1  5  2 -1</clus>
<clus scale="   87.541">  7  8 -1 -1</clus>
<clus scale="   85.190">  1  5  2 -1</clus>
</clustering>
</event>
<event>
 9    2  0.2869112E-005  0.1002117E+03  0.7546771E-02  0.1285177E+00
         -1   -1    0    0    0  501 -0.00000000000E+00  0.00000000000E+00  0.15445696015E+02  0.15445696015E+02  0.00000000000E+00 0.  1.
          2   -1    0    0  502    0  0.00000000000E+00 -0.00000000000E+00 -0.12615610280E+04  0.12615610280E+04  0.00000000000E+00 0. -1.
         23    2    1    2    0    0 -0.48089683502E+02  0.75190786124E+01 -0.40867343347E+03  0.42160602756E+03  0.91479577251E+02 0.  0.
         24    2    1    2    0    0  0.35420356642E+02  0.20219158936E+02 -0.80785467402E+03  0.81291157409E+03  0.80824729518E+02 0.  0.
        -13    1    4    4    0    0  0.38880978086E+02  0.37512406669E+02 -0.30502806390E+03  0.30977577516E+03  0.00000000000E+00 0.  1.
         14    1    4    4    0    0 -0.34606214445E+01 -0.17293247733E+02 -0.50282661012E+03  0.50313579893E+03  0.00000000000E+00 0. -1.
        -11    1    3    3    0    0  0.20489717741E+02 -0.16486293229E+02 -0.61104711954E+02  0.66523771846E+02  0.00000000000E+00 0.  1.
         11    1    3    3    0    0 -0.68579401243E+02  0.24005371842E+02 -0.34756872151E+03  0.35508225572E+03  0.00000000000E+00 0. -1.
         21    1    1    2  502  501  0.12669326860E+02 -0.27738237548E+02 -0.29587224493E+02  0.42489122356E+02  0.00000000000E+00 0.  1.
<scales pt_clust_5="13000.00000" pt_clust_6="13000.00000" pt_clust_7="13000.00000" pt_clust_8="13000.00000" pt_clust_9="30.49462"></scales>
<clustering>
<clus scale="   30.495">  1  9  2 -1</clus>
<clus scale="   80.825">  5  6 -1 -1</clus>
<clus scale="   90.590">  2  5  1 -1</clus>
<clus scale="   91.480">  7  8 -1 -1</clus>
<clus scale="   90.590">  2  5  1 -1</clus>
</clustering>
</event>
<event>
 9    2  0.2869112E-005  0.1105890E+03  0.7546771E-02  0.1267139E+00
          2   -1    0    0  502    0  0.00000000000E+00  0.00000000000E+00  0.16744698371E+03  0.16744698371E+03  0.00000000000E+00 0. -1.
         -1   -1    0    0    0  501 -0.00000000000E+00 -0.00000000000E+00 -0.35100305375E+03  0.35100305375E+03  0.00000000000E+00 0.  1.
         23    2    1    2    0    0 -0.39155471795E+02  0.19409903638E+02 -0.16814713892E+03  0.19867951953E+03  0.96385661925E+02 0.  0.
         24    2    1    2    0    0  0.19366336300E+02 -0.52610067265E+02  0.13424849567E+03  0.16520271359E+03  0.78271347427E+02 0.  0.
        -11    1    4    4    0    0  0.41566466121E+02 -0.15134740234E+02  0.10145858291E+03  0.11068276972E+03  0.00000000000E+00 0.  1.
         12    1    4    4    0    0 -0.22200129821E+02 -0.37475327032E+02  0.32789912760E+02  0.54519943865E+02  0.00000000000E+00 0. -1.
        -13    1    3    3    0    0 -0.32888266677E+02 -0.33713711397E+02 -0.48430512091E+02  0.67555657962E+02  0.00000000000E+00 0. -1.
         13    1    3    3    0    0 -0.62672051175E+01  0.53123615035E+02 -0.11971662683E+03  0.13112386157E+03  0.00000000000E+00 0.  1.
         21    1    1    2  502  501  0.19789135495E+02  0.33200163628E+02 -0.14965742678E+03  0.15456780434E+03  0.00000000000E+00 0.  1.
<scales pt_clust_5="13000.00000" pt_clust_6="13000.00000" pt_clust_7="13000.00000" pt_clust_8="13000.00000" pt_clust_9="38.65049"></scales>
<clustering>
<clus scale="   38.650">  2  9  1 -1</clus>
<clus scale="   78.271">  5  6 -1 -1</clus>
<clus scale="   95.216">  1  5  2 -1</clus>
<clus scale="   96.386">  7  8 -1 -1</clus>
<clus scale="   95.216">  1  5  2 -1</clus>
</clustering>
</event>
<event>
 9    2  0.5170307E-005  0.1302172E+03  0.7546771E-02  0.1227814E+00
          2   -1    0    0  502    0  0.00000000000E+00  0.00000000000E+00  0.20770177299E+03  0.20770177299E+03  0.00000000000E+00 0. -1.
         -1   -1    0    0    0  501 -0.00000000000E+00 -0.00000000000E+00 -0.65612964815E+03  0.65612964815E+03  0.00000000000E+00 0.  1.
         24    2    1    2    0    0  0.73736759956E+02 -0.25901711434E+02 -0.45522481449E+03  0.47069349511E+03  0.90635126627E+02 0.  0.
         23    2    1    2    0    0 -0.76053825969E+02  0.51132919587E+02  0.17757248558E+03  0.22049300183E+03  0.93200945868E+02 0.  0.
        -13    1    3    3    0    0  0.85836466766E+02  0.12903784096E+01 -0.27689913353E+03  0.28990118015E+03  0.00000000000E+00 0.  1.
         14    1    3    3    0    0 -0.12099706810E+02 -0.27192089844E+02 -0.17832568096E+03  0.18079231495E+03  0.00000000000E+00 0. -1.
        -11    1    4    4    0    0 -0.68160242743E+02  0.26318675608E+02  0.45935041090E+02  0.86304805060E+02  0.00000000000E+00 0.  1.
         11    1    4    4    0    0 -0.78935832258E+01  0.24814243979E+02  0.13163744449E+03  0.13418819677E+03  0.00000000000E+00 0. -1.
         21    1    1    2  502  501  0.23170660130E+01 -0.25231208153E+02 -0.17077554624E+03  0.17264492420E+03  0.00000000000E+00 0.  1.
<scales pt_clust_5="13000.00000" pt_clust_6="13000.00000" pt_clust_7="13000.00000" pt_clust_8="13000.00000" pt_clust_9="25.33738"></scales>
<clustering>
<clus scale="   25.337">  2  9  1 -1</clus>
<clus scale="   90.635">  5  6 -1 -1</clus>
<clus scale="   93.201">  7  8 -1 -1</clus>
<clus scale="  128.393">  2  5  1 -1</clus>
<clus scale="  130.217">  1  5  2 -1</clus>
</clustering>
</event>
<event>
 9    2  0.2869112E-005  0.1139639E+03  0.7546771E-02  0.1257300E+00
         -1   -1    0    0    0  501 -0.00000000000E+00  0.00000000000E+00  0.14534456960E+03  0.14534456960E+03  0.00000000000E+00 0.  1.
          2   -1    0    0  502    0  0.00000000000E+00 -0.00000000000E+00 -0.51173809685E+03  0.51173809685E+03  0.00000000000E+00 0. -1.
         23    2    1    2    0    0 -0.33809701310E+01  0.72760326591E+02  0.57458023359E+02  0.13053984449E+03  0.91835344326E+02 0.  0.
         24    2    1    2    0    0  0.37399649071E+02 -0.56502091315E+02 -0.46139126511E+03  0.47333726871E+03  0.81086684232E+02 0.  0.
        -11    1    4    4    0    0  0.19758363933E+02 -0.31241996866E+01 -0.19675657408E+02  0.28058600525E+02  0.00000000000E+00 0.  1.
         12    1    4    4    0    0  0.17641285138E+02 -0.53377891629E+02 -0.44171560770E+03  0.44527866819E+03  0.00000000000E+00 0. -1.
        -13    1    3    3    0    0  0.15924266236E+02  0.40146536063E+02  0.76708844657E+02  0.88031661700E+02  0.00000000000E+00 0.  1.
         13    1    3    3    0    0 -0.19305236367E+02  0.32613790528E+02 -0.19250821298E+02  0.42508182794E+02  0.00000000000E+00 0. -1.
         21    1    1    2  502  501 -0.34018678940E+02 -0.16258235275E+02  0.37539714504E+02  0.53205553246E+02  0.00000000000E+00 0. -1.
<scales pt_clust_5="13000.00000" pt_clust_6="13000.00000" pt_clust_7="13000.00000" pt_clust_8="13000.00000" pt_clust_9="37.70412"></scales>
<clustering>
<clus scale="   37.704">  1  9  2 -1</clus>
<clus scale="   81.087">  5  6 -1 -1</clus>
<clus scale="   91.835">  7  8 -1 -1</clus>
<clus scale="  105.494">  2  5  1 -1</clus>
<clus scale="  105.494">  2  5  1 -1</clus>
</clustering>
</event>
<event>
 9    2  0.2869112E-005  0.1068197E+03  0.7546771E-02  0.1267793E+00
         -1   -1    0    0    0  501 -0.00000000000E+00  0.00000000000E+00  0.13108035555E+03  0.13108035555E+03  0.00000000000E+00 0.  1.
          2   -1    0    0  502    0  0.00000000000E+00 -0.00000000000E+00 -0.58021203873E+03  0.58021203873E+03  0.00000000000E+00 0. -1.
         24    2    1    2    0    0  0.39311444492E+02  0.42131677028E+02 -0.25190252843E+03  0.27529574956E+03  0.94933650606E+02 0.  0.
         23    2    1    2    0    0  0.28462092843E+02 -0.54688370248E+02 -0.29570399434E+03  0.31579590870E+03  0.92115661595E+02 0.  0.
        -13    1    3    3    0    0  0.49342286526E+01  0.61888088621E+02 -0.95203496565E+02  0.11365820641E+03  0.00000000000E+00 0.  1.
         14    1    3    3    0    0  0.34377215840E+02 -0.19756411593E+02 -0.15669903186E+03  0.16163754315E+03  0.00000000000E+00 0. -1.
        -11    1    4    4    0    0 -0.22522069295E+01 -0.72160837002E+02 -0.15942620784E+03  0.17501135557E+03  0.00000000000E+00 0.  1.
         11    1    4    4    0    0  0.30714299773E+02  0.17472466754E+02 -0.13627778650E+03  0.14078455313E+03  0.00000000000E+00 0. -1.
         21    1    1    2  502  501 -0.67773537336E+02  0.12556693221E+02  0.98474839591E+02  0.12020073602E+03  0.00000000000E+00 0.  1.
<scales pt_clust_5="13000.00000" pt_clust_6="13000.00000" pt_clust_7="13000.00000" pt_clust_8="13000.00000" pt_clust_9="68.92694"></scales>
<clustering>
<clus scale="   68.927">  1  9  2 -1</clus>
<clus scale="   92.116">  7  8 -1 -1</clus>
<clus scale="   94.934">  5  6 -1 -1</clus>
<clus scale="  104.323">  2  7  1 -1</clus>
<clus scale="  104.323">  2  5  1 -1</clus>
</clustering>
</event>
<event>
 9    2  0.3049768E-005  0.1639225E+03  0.7546771E-02  0.1185772E+00
         -1   -1    0    0    0  501 -0.00000000000E+00  0.00000000000E+00  0.22970614339E+03  0.22970614339E+03  0.00000000000E+00 0.  1.
          2   -1    0    0  502    0  0.00000000000E+00 -0.00000000000E+00 -0.33113563033E+03  0.33113563033E+03  0.00000000000E+00 0. -1.
         24    2    1    2    0    0  0.29105315170E+02 -0.12804488264E+03  0.15121415557E+03  0.21607046895E+03  0.81105581601E+02 0.  0.
         23    2    1    2    0    0  0.11534008893E+02  0.13742179115E+03 -0.25411132681E+03  0.30303840203E+03  0.90785046398E+02 0.  0.
        -13    1    3    3    0    0  0.22771763479E+02 -0.13697323508E+03  0.12186593389E+03  0.18474719533E+03  0.00000000000E+00 0.  1.
         14    1    3    3    0    0  0.63335516911E+01  0.89283524432E+01  0.29348221678E+02  0.31323273616E+02  0.00000000000E+00 0. -1.
        -13    1    4    4    0    0  0.28883946855E+02  0.35616212258E+01 -0.33163616114E+02  0.44122476873E+02  0.00000000000E+00 0.  1.
         13    1    4    4    0    0 -0.17349937962E+02  0.13386016992E+03 -0.22094771070E+03  0.25891592516E+03  0.00000000000E+00 0. -1.
         21    1    1    2  502  501 -0.40639324063E+02 -0.93769085104E+01  0.14676843044E+01  0.41732902736E+02  0.00000000000E+00 0.  1.
<scales pt_clust_5="13000.00000" pt_clust_6="13000.00000" pt_clust_7="13000.00000" pt_clust_8="13000.00000" pt_clust_9="41.70709"></scales>
<clustering>
<clus scale="   41.707">  1  9  2 -1</clus>
<clus scale="   81.106">  5  6 -1 -1</clus>
<clus scale="   90.785">  7  8 -1 -1</clus>
<clus scale="  158.766">  1  5  2 -1</clus>
<clus scale="  163.922">  2  5  1 -1</clus>
</clustering>
</event>
<event>
 9    2  0.2869112E-005  0.2579033E+03  0.7546771E-02  0.1108893E+00
          2   -1    0    0  502    0  0.00000000000E+00  0.00000000000E+00  0.36531648943E+03  0.36531648943E+03  0.00000000000E+00 0. -1.
         -1   -1    0    0    0  501 -0.00000000000E+00 -0.00000000000E+00 -0.27146328549E+03  0.27146328549E+03  0.00000000000E+00 0.  1.
         24    2    1    2    0    0 -0.18754283242E+03 -0.17245217347E+03 -0.56581136434E+02  0.27332896115E+03  0.81211020671E+02 0.  0.
         23    2    1    2    0    0  0.12746929915E+03  0.18699350138E+03  0.55266579982E+02  0.24997314093E+03  0.90648687444E+02 0.  0.
        -11    1    3    3    0    0 -0.18615357004E+03 -0.13794823186E+03 -0.40390284858E+02  0.23518979872E+03  0.00000000000E+00 0.  1.
         12    1    3    3    0    0 -0.13892623836E+01 -0.34503941603E+02 -0.16190851576E+02  0.38139162430E+02  0.00000000000E+00 0. -1.
        -11    1    4    4    0    0  0.35681923858E+02  0.65196639511E+02 -0.23990030203E+02  0.78098162865E+02  0.00000000000E+00 0.  1.
         11    1    4    4    0    0  0.91787375296E+02  0.12179686187E+03  0.79256610185E+02  0.17187497806E+03  0.00000000000E+00 0. -1.
         21    1    1    2  502  501  0.60073533267E+02 -0.14541327917E+02  0.95167760385E+02  0.11347767284E+03  0.00000000000E+00 0.  1.
<scales pt_clust_5="13000.00000" pt_clust_6="13000.00000" pt_clust_7="13000.00000" pt_clust_8="13000.00000" pt_clust_9="61.80841"></scales>
<clustering>
<clus scale="   61.808">  1  9  2 -1</clus>
<clus scale="   81.211">  5  6 -1 -1</clus>
<clus scale="   90.649">  7  8 -1 -1</clus>
<clus scale="  254.739">  2  5  1 -1</clus>
<clus scale="   61.808">  1  5  2 -1</clus>
</clustering>
</event>
<event>
 9    2  0.2869112E-005  0.1084701E+03  0.7546771E-02  0.1269590E+00
          2   -1    0    0  502    0  0.00000000000E+00  0.00000000000E+00  0.37469109969E+03  0.37469109969E+03  0.00000000000E+00 0. -1.
         -1   -1    0    0    0  501 -0.00000000000E+00 -0.00000000000E+00 -0.49700996713E+02  0.49700996713E+02  0.00000000000E+00 0.  1.
         23    2    1    2    0    0 -0.84170503912E+01 -0.29674233008E+02  0.68680516966E+02  0.11857495350E+03  0.91605673107E+02 0.  0.
         24    2    1    2    0    0  0.27925083496E+02  0.63928591053E+02  0.24302268834E+03  0.26421827211E+03  0.76711102399E+02 0.  0.
        -11    1    4    4    0    0  0.25338470634E+02 -0.92371435063E+01  0.38660556828E+02  0.47138111635E+02  0.00000000000E+00 0.  1.
         12    1    4    4    0    0  0.25866128613E+01  0.73165734560E+02  0.20436213151E+03  0.21708016048E+03  0.00000000000E+00 0. -1.
        -13    1    3    3    0    0  0.53063734084E+01  0.30808303153E+02  0.90669101785E+01  0.32550238127E+02  0.00000000000E+00 0. -1.
         13    1    3    3    0    0 -0.13723423800E+02 -0.60482536161E+02  0.59613606788E+02  0.86024715376E+02  0.00000000000E+00 0.  1.
         21    1    1    2  502  501 -0.19508033104E+02 -0.34254358046E+02  0.13286897673E+02  0.41598870784E+02  0.00000000000E+00 0.  1.
<scales pt_clust_5="13000.00000" pt_clust_6="13000.00000" pt_clust_7="13000.00000" pt_clust_8="13000.00000" pt_clust_9="39.41985"></scales>
<clustering>
<clus scale="   39.420">  2  9  1 -1</clus>
<clus scale="   76.711">  5  6 -1 -1</clus>
<clus scale="   91.606">  7  8 -1 -1</clus>
<clus scale="   96.222">  1  5  2 -1</clus>
<clus scale="   96.222">  1  5  2 -1</clus>
</clustering>
</event>
<event>
 9    2  0.2869112E-005  0.9183673E+02  0.7546771E-02  0.1303509E+00
          2   -1    0    0  502    0  0.00000000000E+00  0.00000000000E+00  0.33870300065E+03  0.33870300065E+03  0.00000000000E+00 0. -1.
         -1   -1    0    0    0  501 -0.00000000000E+00 -0.00000000000E+00 -0.37325778482E+02  0.37325778482E+02  0.00000000000E+00 0.  1.
         23    2    1    2    0    0  0.73823462155E+01 -0.28999234754E+01  0.54070325820E+02  0.10638972419E+03  0.91281239511E+02 0.  0.
         24    2    1    2    0    0  0.12193401258E+02  0.75736019966E+01  0.22085509158E+03  0.23640125815E+03  0.83081555704E+02 0.  0.
        -11    1    4    4    0    0  0.37620929755E+02  0.20374629996E+02  0.18854786886E+03  0.19334104260E+03  0.00000000000E+00 0.  1.
         12    1    4    4    0    0 -0.25427528497E+02 -0.12801027999E+02  0.32307222717E+02  0.43060215548E+02  0.00000000000E+00 0. -1.
        -13    1    3    3    0    0 -0.20590489403E+02 -0.71190430661E+01 -0.18448711474E+02  0.28548274608E+02  0.00000000000E+00 0.  1.
         13    1    3    3    0    0  0.27972835619E+02  0.42191195907E+01  0.72519037294E+02  0.77841449580E+02  0.00000000000E+00 0. -1.
         21    1    1    2  502  501 -0.19575747473E+02 -0.46736785212E+01  0.26451804775E+02  0.33237796797E+02  0.00000000000E+00 0.  1.
<scales pt_clust_5="13000.00000" pt_clust_6="13000.00000" pt_clust_7="13000.00000" pt_clust_8="13000.00000" pt_clust_9="20.12593"></scales>
<clustering>
<clus scale="   20.126">  2  9  1 -1</clus>
<clus scale="   83.082">  5  6 -1 -1</clus>
<clus scale="   83.691">  1  5  2 -1</clus>
<clus scale="   91.281">  7  8 -1 -1</clus>
<clus scale="   83.691">  1  5  2 -1</clus>
</clustering>
</event>
<event>
 9    2  0.2869112E-005  0.1006548E+03  0.7546771E-02  0.1284304E+00
          2   -1    0    0  502    0  0.00000000000E+00  0.00000000000E+00  0.69954360002E+03  0.69954360002E+03  0.00000000000E+00 0. -1.
         -1   -1    0    0    0  501 -0.00000000000E+00 -0.00000000000E+00 -0.24940531258E+02  0.24940531258E+02  0.00000000000E+00 0.  1.
         23    2    1    2    0    0  0.39559201432E+02 -0.42329400733E+02  0.29526764207E+03  0.31445647801E+03  0.91341050579E+02 0.  0.
         24    2    1    2    0    0 -0.73459872063E+01  0.35427568030E+02  0.36240845256E+03  0.37298917438E+03  0.80448502870E+02 0.  0.
        -13    1    4    4    0    0 -0.31184542677E+02 -0.34066521123E+01  0.65733965753E+02  0.72835672813E+02  0.00000000000E+00 0.  1.
         14    1    4    4    0    0  0.23838555471E+02  0.38834220143E+02  0.29667448681E+03  0.30015350157E+03  0.00000000000E+00 0. -1.
        -13    1    3    3    0    0  0.61066947032E+02 -0.48034388720E+02  0.16593509677E+03  0.18322371806E+03  0.00000000000E+00 0. -1.
         13    1    3    3    0    0 -0.21507745600E+02  0.57049879870E+01  0.12933254531E+03  0.13123275995E+03  0.00000000000E+00 0.  1.
         21    1    1    2  502  501 -0.32213214225E+02  0.69018327026E+01  0.16926974130E+02  0.37038478891E+02  0.00000000000E+00 0.  1.
<scales pt_clust_5="13000.00000" pt_clust_6="13000.00000" pt_clust_7="13000.00000" pt_clust_8="13000.00000" pt_clust_9="32.94429"></scales>
<clustering>
<clus scale="   32.944">  2  9  1 -1</clus>
<clus scale="   80.449">  5  6 -1 -1</clus>
<clus scale="   90.885">  1  5  2 -1</clus>
<clus scale="   91.341">  7  8 -1 -1</clus>
<clus scale="   90.885">  1  5  2 -1</clus>
</clustering>
</event>
<event>
 9    2  0.2869112E-005  0.1031760E+03  0.7546771E-02  0.1274939E+00
          2   -1    0    0  502    0  0.00000000000E+00  0.00000000000E+00  0.17637041689E+03  0.17637041689E+03  0.00000000000E+00 0. -1.
         -1   -1    0    0    0  501 -0.00000000000E+00 -0.00000000000E+00 -0.19690076459E+03  0.19690076459E+03  0.00000000000E+00 0.  1.
         23    2    1    2    0    0  0.59494107955E+02  0.27480734065E+02 -0.13156909531E+03  0.17317752647E+03  0.91571224788E+02 0.  0.
         24    2    1    2    0    0 -0.39534435625E+02 -0.50701589692E+01  0.12941030074E+03  0.16490649314E+03  0.94119325489E+02 0.  0.
        -11    1    4    4    0    0 -0.17659122119E+02  0.35604213103E+02  0.16714816314E+02  0.43114842794E+02  0.00000000000E+00 0.  1.
         12    1    4    4    0    0 -0.21875313507E+02 -0.40674372073E+02  0.11269548443E+03  0.12179165035E+03  0.00000000000E+00 0. -1.
        -11    1    3    3    0    0  0.55627505706E+02 -0.23071153243E+02 -0.86130017465E+02  0.10509556323E+03  0.00000000000E+00 0.  1.
         11    1    3    3    0    0  0.38666022496E+01  0.50551887307E+02 -0.45439077843E+02  0.68081963239E+02  0.00000000000E+00 0. -1.
         21    1    1    2  502  501 -0.19959672330E+02 -0.22410575095E+02 -0.18371553130E+02  0.35187161864E+02  0.00000000000E+00 0. -1.
<scales pt_clust_5="13000.00000" pt_clust_6="13000.00000" pt_clust_7="13000.00000" pt_clust_8="13000.00000" pt_clust_9="30.01037"></scales>
<clustering>
<clus scale="   30.010">  2  9  1 -1</clus>
<clus scale="   91.571">  7  8 -1 -1</clus>
<clus scale="   94.119">  5  6 -1 -1</clus>
<clus scale="  100.857">  2  7  1 -1</clus>
<clus scale="  103.176">  1  5  2 -1</clus>
</clustering>
</event>
<event>
 9    2  0.2869112E-005  0.1129366E+03  0.7546771E-02  0.1259601E+00
          2   -1    0    0  502    0  0.00000000000E+00  0.00000000000E+00  0.31691143633E+03  0.31691143633E+03  0.00000000000E+00 0. -1.
         -1   -1    0    0    0  501 -0.00000000000E+00 -0.00000000000E+00 -0.65198884058E+02  0.65198884058E+02  0.00000000000E+00 0.  1.
         23    2    1    2    0    0 -0.47097893923E+02  0.75350062312E+02  0.56695280373E+02  0.14013953281E+03  0.92351991523E+02 0.  0.
         24    2    1    2    0    0  0.37450759822E+02 -0.44189022896E+02  0.18103145054E+03  0.20647880576E+03  0.80659047778E+02 0.  0.
        -13    1    4    4    0    0  0.12278149555E+02 -0.20086723397E+02  0.14932718454E+01  0.23589389016E+02  0.00000000000E+00 0.  1.
         14    1    4    4    0    0  0.25172610266E+02 -0.24102299500E+02  0.17953817870E+03  0.18288941675E+03  0.00000000000E+00 0. -1.
        -11    1    3    3    0    0 -0.15605452957E+02 -0.19122239542E+02  0.26192940248E+02  0.35989725282E+02  0.00000000000E+00 0. -1.
         11    1    3    3    0    0 -0.31492440966E+02  0.94472301854E+02  0.30502340125E+02  0.10414980753E+03  0.00000000000E+00 0.  1.
         21    1    1    2  502  501  0.96471341010E+01 -0.31161039416E+02  0.13985821358E+02  0.35491981811E+02  0.00000000000E+00 0. -1.
<scales pt_clust_5="13000.00000" pt_clust_6="13000.00000" pt_clust_7="13000.00000" pt_clust_8="13000.00000" pt_clust_9="32.62020"></scales>
<clustering>
<clus scale="   32.620">  2  9  1 -1</clus>
<clus scale="   80.659">  5  6 -1 -1</clus>
<clus scale="   92.352">  7  8 -1 -1</clus>
<clus scale="  103.594">  1  5  2 -1</clus>
<clus scale="  103.594">  1  5  2 -1</clus>
</clustering>
</event>
<event>
 9    2  0.2869112E-005  0.9420282E+02  0.7546771E-02  0.1299037E+00
          2   -1    0    0  502    0  0.00000000000E+00  0.00000000000E+00  0.13560363632E+03  0.13560363632E+03  0.00000000000E+00 0. -1.
         -1   -1    0    0    0  501 -0.00000000000E+00 -0.00000000000E+00 -0.10207051898E+03  0.10207051898E+03  0.00000000000E+00 0.  1.
         23    2    1    2    0    0 -0.35523886476E+01  0.19512985684E+02 -0.26936396473E+02  0.97999593719E+02  0.92113923153E+02 0.  0.
         24    2    1    2    0    0 -0.31877519266E+02 -0.14012771623E+02  0.34505458161E+02  0.95406481479E+02  0.81848861093E+02 0.  0.
        -13    1    4    4    0    0 -0.29770196605E+02 -0.12720810049E+02  0.60860721069E+02  0.68935556742E+02  0.00000000000E+00 0.  1.
         14    1    4    4    0    0 -0.21073226607E+01 -0.12919615733E+01 -0.26355262908E+02  0.26470924737E+02  0.00000000000E+00 0. -1.
        -13    1    3    3    0    0  0.25609110564E+01  0.41689483208E+02  0.19562070186E+02  0.46122075685E+02  0.00000000000E+00 0. -1.
         13    1    3    3    0    0 -0.61132997040E+01 -0.22176497523E+02 -0.46498466659E+02  0.51877518034E+02  0.00000000000E+00 0.  1.
         21    1    1    2  502  501  0.35429907914E+02 -0.55002140618E+01  0.25964055660E+02  0.44268080100E+02  0.00000000000E+00 0. -1.
<scales pt_clust_5="13000.00000" pt_clust_6="13000.00000" pt_clust_7="13000.00000" pt_clust_8="13000.00000" pt_clust_9="35.85430"></scales>
<clustering>
<clus scale="   35.854">  1  9  2 -1</clus>
<clus scale="   81.849">  5  6 -1 -1</clus>
<clus scale="   84.193">  1  5  2 -1</clus>
<clus scale="   92.114">  7  8 -1 -1</clus>
<clus scale="   35.854">  1  5  2 -1</clus>
</clustering>
</event>
<event>
 9    2  0.2869112E-005  0.1043153E+03  0.7546771E-02  0.1282103E+00
         -1   -1    0    0    0  501 -0.00000000000E+00  0.00000000000E+00  0.14999778060E+03  0.14999778060E+03  0.00000000000E+00 0.  1.
          2   -1    0    0  502    0  0.00000000000E+00 -0.00000000000E+00 -0.32987488509E+03  0.32987488509E+03  0.00000000000E+00 0. -1.
         23    2    1    2    0    0  0.14392494374E+02  0.12936605681E+02 -0.82831625498E+02  0.13171449958E+03  0.10056406692E+03 0.  0.
         24    2    1    2    0    0 -0.32032782604E+02 -0.29621535312E+00 -0.21313074086E+03  0.23006181876E+03  0.80483171199E+02 0.  0.
        -13    1    4    4    0    0 -0.44814559008E+02 -0.17383580086E+02 -0.19838088112E+03  0.20412130597E+03  0.00000000000E+00 0.  1.
         14    1    4    4    0    0  0.12781776403E+02  0.17087364733E+02 -0.14749859739E+02  0.25940512791E+02  0.00000000000E+00 0. -1.
        -11    1    3    3    0    0  0.30872419969E+02  0.25455301251E+02 -0.98132635377E+02  0.10597685031E+03  0.00000000000E+00 0. -1.
         11    1    3    3    0    0 -0.16479925595E+02 -0.12518695569E+02  0.15301009878E+02  0.25737649264E+02  0.00000000000E+00 0.  1.
         21    1    1    2  502  501  0.17640288230E+02 -0.12640390328E+02  0.11608526186E+03  0.11809634735E+03  0.00000000000E+00 0.  1.
<scales pt_clust_5="13000.00000" pt_clust_6="13000.00000" pt_clust_7="13000.00000" pt_clust_8="13000.00000" pt_clust_9="21.70160"></scales>
<clustering>
<clus scale="   21.702">  1  9  2 -1</clus>
<clus scale="   80.483">  5  6 -1 -1</clus>
<clus scale="   85.124">  2  5  1 -1</clus>
<clus scale="  100.564">  7  8 -1 -1</clus>
<clus scale="   85.124">  2  5  1 -1</clus>
</clustering>
</event>
<event>
 9    2  0.2869112E-005  0.9508982E+02  0.7546771E-02  0.1296590E+00
         -1   -1    0    0    0  501 -0.00000000000E+00  0.00000000000E+00  0.26993354003E+03  0.26993354003E+03  0.00000000000E+00 0.  1.
          2   -1    0    0  502    0  0.00000000000E+00 -0.00000000000E+00 -0.38320123643E+03  0.38320123643E+03  0.00000000000E+00 0. -1.
         23    2    1    2    0    0 -0.40422229364E+01 -0.50222672334E+01  0.23341460937E+03  0.25061402277E+03  0.91013437495E+02 0.  0.
         24    2    1    2    0    0  0.13660561933E+02  0.24417649768E+02 -0.36451374506E+03  0.37447340915E+03  0.81100130986E+02 0.  0.
        -11    1    4    4    0    0  0.46451404727E+02  0.44534803351E+01 -0.17532140464E+03  0.18142536044E+03  0.00000000000E+00 0.  1.
         12    1    4    4    0    0 -0.32790842795E+02  0.19964169433E+02 -0.18919234043E+03  0.19304804870E+03  0.00000000000E+00 0. -1.
        -13    1    3    3    0    0  0.41047475008E+02 -0.13191884078E+02  0.14129032639E+03  0.14772229805E+03  0.00000000000E+00 0.  1.
         13    1    3    3    0    0 -0.45089697944E+02  0.81696168447E+01  0.92124282987E+02  0.10289172472E+03  0.00000000000E+00 0. -1.
         21    1    1    2  502  501 -0.96183389963E+01 -0.19395382535E+02  0.17831439288E+02  0.28047344541E+02  0.00000000000E+00 0. -1.
<scales pt_clust_5="13000.00000" pt_clust_6="13000.00000" pt_clust_7="13000.00000" pt_clust_8="13000.00000" pt_clust_9="21.64933"></scales>
<clustering>
<clus scale="   21.649">  1  9  2 -1</clus>
<clus scale="   81.100">  5  6 -1 -1</clus>
<clus scale="   85.650">  2  5  1 -1</clus>
<clus scale="   91.013">  7  8 -1 -1</clus>
<clus scale="   85.650">  2  5  1 -1</clus>
</clustering>
</event>
<event>
 9    2  0.2869112E-005  0.1195111E+03  0.7546771E-02  0.1248102E+00
          2   -1    0    0  502    0  0.00000000000E+00  0.00000000000E+00  0.38436871202E+03  0.38436871202E+03  0.00000000000E+00 0. -1.
         -1   -1    0    0    0  501 -0.00000000000E+00 -0.00000000000E+00 -0.62860112734E+02  0.62860112734E+02  0.00000000000E+00 0.  1.
         23    2    1    2    0    0  0.50296968451E+02 -0.60846357886E+02  0.28382710500E+02  0.12391419846E+03  0.91198059301E+02 0.  0.
         24    2    1    2    0    0 -0.25218015173E+02  0.71188099706E+02  0.22108098534E+03  0.24633168251E+03  0.78094826342E+02 0.  0.
        -11    1    4    4    0    0  0.18260544142E+02  0.17054649546E+02  0.15645764095E+02  0.29480476211E+02  0.00000000000E+00 0.  1.
         12    1    4    4    0    0 -0.43478559315E+02  0.54133450160E+02  0.20543522125E+03  0.21685120630E+03  0.00000000000E+00 0. -1.
        -13    1    3    3    0    0  0.47430543686E+02 -0.32385919775E+02  0.58775972623E+02  0.82177364474E+02  0.00000000000E+00 0. -1.
         13    1    3    3    0    0  0.28664247649E+01 -0.28460438111E+02 -0.30393262123E+02  0.41736833983E+02  0.00000000000E+00 0.  1.
         21    1    1    2  502  501 -0.25078953278E+02 -0.10341741820E+02  0.72044903448E+02  0.76982943787E+02  0.00000000000E+00 0.  1.
<scales pt_clust_5="13000.00000" pt_clust_6="13000.00000" pt_clust_7="13000.00000" pt_clust_8="13000.00000" pt_clust_9="27.12758"></scales>
<clustering>
<clus scale="   27.128">  1  9  2 -1</clus>
<clus scale="   78.095">  5  6 -1 -1</clus>
<clus scale="   91.198">  7  8 -1 -1</clus>
<clus scale="  109.839">  1  5  2 -1</clus>
<clus scale="   27.128">  1  5  2 -1</clus>
</clustering>
</event>
<event>
 9    2  0.2869112E-005  0.1279715E+03  0.7546771E-02  0.1233130E+00
          2   -1    0    0  502    0  0.00000000000E+00  0.00000000000E+00  0.44302847617E+03  0.44302847617E+03  0.00000000000E+00 0. -1.
         -1   -1    0    0    0  501 -0.00000000000E+00 -0.00000000000E+00 -0.64677852537E+02  0.64677852537E+02  0.00000000000E+00 0.  1.
         24    2    1    2    0    0 -0.33569143066E+02  0.63313057352E+02  0.29025707163E+02  0.11207868441E+03  0.81140059320E+02 0.  0.
         23    2    1    2    0    0  0.14146874799E+02 -0.95893061624E+02  0.32351808935E+03  0.34975092352E+03  0.90918320663E+02 0.  0.
        -11    1    3    3    0    0 -0.47720492762E+02  0.57108578270E+02 -0.51216638098E+01  0.74598033363E+02  0.00000000000E+00 0.  1.
         12    1    3    3    0    0  0.14151349696E+02  0.62044790817E+01  0.34147370973E+02  0.37480651051E+02  0.00000000000E+00 0. -1.
        -13    1    4    4    0    0  0.31587154559E+02 -0.18676889939E+02  0.19787957506E+03  0.20125332488E+03  0.00000000000E+00 0. -1.
         13    1    4    4    0    0 -0.17440279760E+02 -0.77216171685E+02  0.12563851429E+03  0.14849759864E+03  0.00000000000E+00 0.  1.
         21    1    1    2  502  501  0.19422268267E+02  0.32580004272E+02  0.25806827123E+02  0.45876720776E+02  0.00000000000E+00 0. -1.
<scales pt_clust_5="13000.00000" pt_clust_6="13000.00000" pt_clust_7="13000.00000" pt_clust_8="13000.00000" pt_clust_9="37.92995"></scales>
<clustering>
<clus scale="   37.930">  2  9  1 -1</clus>
<clus scale="   81.140">  5  6 -1 -1</clus>
<clus scale="   90.918">  7  8 -1 -1</clus>
<clus scale="  121.220">  2  5  1 -1</clus>
<clus scale="  127.971">  1  5  2 -1</clus>
</clustering>
</event>
<event>
 9    2  0.2869112E-005  0.9562883E+02  0.7546771E-02  0.1297341E+00
         -1   -1    0    0    0  501 -0.00000000000E+00  0.00000000000E+00  0.17327098668E+03  0.17327098668E+03  0.00000000000E+00 0.  1.
          2   -1    0    0  502    0  0.00000000000E+00 -0.00000000000E+00 -0.94509341872E+03  0.94509341872E+03  0.00000000000E+00 0. -1.
         23    2    1    2    0    0  0.39969838668E+00  0.15961930884E+02 -0.24978051295E+03  0.26594412658E+03  0.89894553893E+02 0.  0.
         24    2    1    2    0    0 -0.17759121748E+02 -0.34251787585E+02 -0.68358582837E+03  0.68892011655E+03  0.76372579414E+02 0.  0.
        -13    1    4    4    0    0 -0.25575788595E+02  0.10755706885E+02 -0.10738871472E+03  0.11091502262E+03  0.00000000000E+00 0.  1.
         14    1    4    4    0    0  0.78166668466E+01 -0.45007494470E+02 -0.57619711364E+03  0.57800509393E+03  0.00000000000E+00 0. -1.
        -11    1    3    3    0    0  0.43821588657E+02  0.18692732146E+02 -0.13819746751E+03  0.14617896529E+03  0.00000000000E+00 0.  1.
         11    1    3    3    0    0 -0.43421890270E+02 -0.27308012620E+01 -0.11158304544E+03  0.11976516130E+03  0.00000000000E+00 0. -1.
         21    1    1    2  502  501  0.17359423362E+02  0.18289856701E+02  0.16154390927E+03  0.16350016226E+03  0.00000000000E+00 0.  1.
<scales pt_clust_5="13000.00000" pt_clust_6="13000.00000" pt_clust_7="13000.00000" pt_clust_8="13000.00000" pt_clust_9="25.21643"></scales>
<clustering>
<clus scale="   25.216">  1  9  2 -1</clus>
<clus scale="   76.373">  5  6 -1 -1</clus>
<clus scale="   83.046">  2  5  1 -1</clus>
<clus scale="   89.895">  7  8 -1 -1</clus>
<clus scale="   83.046">  2  5  1 -1</clus>
</clustering>
</event>
<event>
 9    2  0.2869112E-005  0.1147882E+03  0.7546771E-02  0.1257459E+00
         -3   -1    0    0    0  501 -0.00000000000E+00  0.00000000000E+00  0.21302749106E+03  0.21302749106E+03  0.00000000000E+00 0.  1.
          4   -1    0    0  502    0  0.00000000000E+00 -0.00000000000E+00 -0.13494999289E+03  0.13494999289E+03  0.00000000000E+00 0. -1.
         24    2    1    2    0    0 -0.14187621161E+02 -0.65224430363E+02  0.69019184518E+02  0.12260022370E+03  0.76234192530E+02 0.  0.
         23    2    1    2    0    0 -0.14320778834E+02  0.69937847276E+02 -0.73803156261E+02  0.13762209877E+03  0.91632685252E+02 0.  0.
        -11    1    3    3    0    0 -0.26312500622E+02 -0.64056219026E+02  0.80273522942E+02  0.10601596753E+03  0.00000000000E+00 0.  1.
         12    1    3    3    0    0  0.12124879461E+02 -0.11682113369E+01 -0.11254338424E+02  0.16584256180E+02  0.00000000000E+00 0. -1.
        -11    1    4    4    0    0  0.12645754513E+02 -0.18977018908E+02 -0.19486789683E+02  0.29996288536E+02  0.00000000000E+00 0.  1.
         11    1    4    4    0    0 -0.26966533347E+02  0.88914866184E+02 -0.54316366579E+02  0.10762581023E+03  0.00000000000E+00 0. -1.
         21    1    1    2  502  501  0.28508399995E+02 -0.47134169137E+01  0.82861469920E+02  0.87755161481E+02  0.00000000000E+00 0.  1.
<scales pt_clust_5="13000.00000" pt_clust_6="13000.00000" pt_clust_7="13000.00000" pt_clust_8="13000.00000" pt_clust_9="28.89542"></scales>
<clustering>
<clus scale="   28.895">  1  9  2 -1</clus>
<clus scale="   76.234">  5  6 -1 -1</clus>
<clus scale="   91.633">  7  8 -1 -1</clus>
<clus scale="  102.915">  1  5  2 -1</clus>
<clus scale="  114.788">  2  5  1 -1</clus>
</clustering>
</event>
<event>
 9    2  0.5133476E-005  0.9839421E+02  0.7546771E-02  0.1289029E+00
          2   -1    0    0  502    0  0.00000000000E+00  0.00000000000E+00  0.26078140831E+03  0.26078140831E+03  0.00000000000E+00 0. -1.
         -1   -1    0    0    0  501 -0.00000000000E+00 -0.00000000000E+00 -0.80544162075E+02  0.80544162075E+02  0.00000000000E+00 0.  1.
         24    2    1    2    0    0  0.24470165926E+02  0.85341102130E+00 -0.28260523653E+02  0.89455080313E+02  0.81265225440E+02 0.  0.
         23    2    1    2    0    0 -0.32622987534E+02 -0.21800114565E+02  0.20659727089E+03  0.22931290186E+03  0.91446543452E+02 0.  0.
        -13    1    3    3    0    0  0.35017080671E+02 -0.30395062669E+02 -0.31888893206E+02  0.56275725524E+02  0.00000000000E+00 0.  1.
         14    1    3    3    0    0 -0.10546914744E+02  0.31248473690E+02  0.36283695536E+01  0.33179354789E+02  0.00000000000E+00 0. -1.
        -13    1    4    4    0    0  0.12307259095E+02 -0.22653583977E+02  0.10012019025E+02  0.27656717419E+02  0.00000000000E+00 0.  1.
         13    1    4    4    0    0 -0.44930246628E+02  0.85346941252E+00  0.19658525187E+03  0.20165618444E+03  0.00000000000E+00 0. -1.
         21    1    1    2  502  501  0.81528216072E+01  0.20946703543E+02  0.19004989965E+01  0.22557588212E+02  0.00000000000E+00 0.  1.
<scales pt_clust_5="13000.00000" pt_clust_6="13000.00000" pt_clust_7="13000.00000" pt_clust_8="13000.00000" pt_clust_9="22.47739"></scales>
<clustering>
<clus scale="   22.477">  2  9  1 -1</clus>
<clus scale="   81.265">  5  6 -1 -1</clus>
<clus scale="   89.011">  2  5  1 -1</clus>
<clus scale="   91.447">  7  8 -1 -1</clus>
<clus scale="   98.394">  1  5  2 -1</clus>
</clustering>
</event>
<event>
 9    2  0.2869112E-005  0.9889164E+02  0.7546771E-02  0.1289195E+00
          2   -1    0    0  502    0  0.00000000000E+00  0.00000000000E+00  0.69880611525E+03  0.69880611525E+03  0.00000000000E+00 0. -1.
         -1   -1    0    0    0  501 -0.00000000000E+00 -0.00000000000E+00 -0.12152869906E+03  0.12152869906E+03  0.00000000000E+00 0.  1.
         23    2    1    2    0    0  0.24567078339E+02 -0.40812254243E+02 -0.76393135634E+02  0.12841315175E+03  0.91568798921E+02 0.  0.
         24    2    1    2    0    0 -0.37584369802E+02 -0.44358692576E+01  0.63540833236E+03  0.64142066042E+03  0.79021851403E+02 0.  0.
        -11    1    4    4    0    0  0.19773936936E+02  0.64438670980E+01  0.70500050389E+02  0.73503667323E+02  0.00000000000E+00 0.  1.
         12    1    4    4    0    0 -0.57358306739E+02 -0.10879736356E+02  0.56490828197E+03  0.56791699310E+03  0.00000000000E+00 0. -1.
        -11    1    3    3    0    0  0.11099979142E+02 -0.58728451923E+02 -0.85417325928E+02  0.10425142767E+03  0.00000000000E+00 0.  1.
         11    1    3    3    0    0  0.13467099197E+02  0.17916197680E+02  0.90241902944E+01  0.24161724081E+02  0.00000000000E+00 0. -1.
         21    1    1    2  502  501  0.13017291464E+02  0.45248123501E+02  0.18262219461E+02  0.50501002139E+02  0.00000000000E+00 0. -1.
<scales pt_clust_5="13000.00000" pt_clust_6="13000.00000" pt_clust_7="13000.00000" pt_clust_8="13000.00000" pt_clust_9="47.08336"></scales>
<clustering>
<clus scale="   47.083">  2  9  1 -1</clus>
<clus scale="   79.022">  5  6 -1 -1</clus>
<clus scale="   87.402">  1  5  2 -1</clus>
<clus scale="   91.569">  7  8 -1 -1</clus>
<clus scale="   87.402">  1  5  2 -1</clus>
</clustering>
</event>
<event>
 9    2  0.2869112E-005  0.1647479E+03  0.7546771E-02  0.1211373E+00
          2   -1    0    0  502    0  0.00000000000E+00  0.00000000000E+00  0.33798350597E+03  0.33798350597E+03  0.00000000000E+00 0. -1.
         -1   -1    0    0    0  501 -0.00000000000E+00 -0.00000000000E+00 -0.21405149162E+03  0.21405149162E+03  0.00000000000E+00 0.  1.
         23    2    1    2    0    0 -0.85778265536E+02 -0.74777162051E+02  0.17271310053E+03  0.22623109558E+03  0.91657834963E+02 0.  0.
         24    2    1    2    0    0 -0.23083261099E+02 -0.13692781901E+02  0.91065433887E+02  0.12772610886E+03  0.85444229859E+02 0.  0.
        -11    1    4    4    0    0 -0.31334473540E+02 -0.11893601168E+02  0.10566879930E+03  0.11085667380E+03  0.00000000000E+00 0.  1.
         12    1    4    4    0    0  0.82512124409E+01 -0.17991807334E+01 -0.14603365409E+02  0.16869435062E+02  0.00000000000E+00 0. -1.
        -11    1    3    3    0    0 -0.44686269360E+02 -0.82955911286E+02  0.15355634344E+03  0.18016130688E+03  0.00000000000E+00 0. -1.
         11    1    3    3    0    0 -0.41091996176E+02  0.81787492348E+01  0.19156757096E+02  0.46069788704E+02  0.00000000000E+00 0.  1.
         21    1    1    2  502  501  0.10886152664E+03  0.88469943952E+02 -0.13984652007E+03  0.19807779315E+03  0.00000000000E+00 0.  1.
<scales pt_clust_5="13000.00000" pt_clust_6="13000.00000" pt_clust_7="13000.00000" pt_clust_8="13000.00000" pt_clust_9="136.89672"></scales>
<clustering>
<clus scale="   85.444">  5  6 -1 -1</clus>
<clus scale="   89.560">  1  5  2 -1</clus>
<clus scale="   91.658">  7  8 -1 -1</clus>
<clus scale="  136.897">  2  9  1 -1</clus>
<clus scale="   89.560">  1  5  2 -1</clus>
</clustering>
</event>
<event>
 9    2  0.2869112E-005  0.2808748E+03  0.7546771E-02  0.1124803E+00
          2   -1    0    0  502    0  0.00000000000E+00  0.00000000000E+00  0.50592173208E+03  0.50592173208E+03  0.00000000000E+00 0. -1.
         -1   -1    0    0    0  501 -0.00000000000E+00 -0.00000000000E+00 -0.37920139767E+03  0.37920139767E+03  0.00000000000E+00 0.  1.
         23    2    1    2    0    0  0.83321348897E+02 -0.44183512068E+02 -0.15302038196E+03  0.20219470093E+03  0.92589577543E+02 0.  0.
         24    2    1    2    0    0  0.23434157762E+03  0.88899968994E+02  0.24603994481E+03  0.36036829737E+03  0.80687519619E+02 0.  0.
        -13    1    4    4    0    0  0.94558032979E+01  0.23669652280E+02  0.86206930789E+01  0.26906895106E+02  0.00000000000E+00 0.  1.
         14    1    4    4    0    0  0.22488577432E+03  0.65230316714E+02  0.23741925173E+03  0.33346140226E+03  0.00000000000E+00 0. -1.
        -11    1    3    3    0    0  0.20840329266E+01 -0.48820192974E+02 -0.41281109244E+02  0.63967838916E+02  0.00000000000E+00 0.  1.
         11    1    3    3    0    0  0.81237315970E+02  0.46366809057E+01 -0.11173927272E+03  0.13822686202E+03  0.00000000000E+00 0. -1.
         21    1    1    2  502  501 -0.31766292651E+03 -0.44716456926E+02  0.33700771563E+02  0.32256013146E+03  0.00000000000E+00 0.  1.
<scales pt_clust_5="13000.00000" pt_clust_6="13000.00000" pt_clust_7="13000.00000" pt_clust_8="13000.00000" pt_clust_9="269.03568"></scales>
<clustering>
<clus scale="   80.688">  5  6 -1 -1</clus>
<clus scale="   92.590">  7  8 -1 -1</clus>
<clus scale="  132.165">  2  7  1 -1</clus>
<clus scale="  269.036">  2  9  1 -1</clus>
<clus scale="  280.875">  1  5  2 -1</clus>
</clustering>
</event>
<event>
 9    2  0.2869112E-005  0.1318421E+03  0.7546771E-02  0.1227167E+00
         -3   -1    0    0    0  501 -0.00000000000E+00  0.00000000000E+00  0.40231083191E+02  0.40231083191E+02  0.00000000000E+00 0.  1.
          4   -1    0    0  502    0  0.00000000000E+00 -0.00000000000E+00 -0.81660527186E+03  0.81660527186E+03  0.00000000000E+00 0. -1.
         24    2    1    2    0    0 -0.56637474243E+02  0.82551169663E+02 -0.37771617313E+03  0.39893054420E+03  0.80334130675E+02 0.  0.
         23    2    1    2    0    0  0.75609424622E+02 -0.57451023151E+02 -0.40515744239E+03  0.42577802216E+03  0.90094205571E+02 0.  0.
        -13    1    3    3    0    0 -0.33630979294E+02  0.22366910150E+02 -0.46883445201E+02  0.61881975339E+02  0.00000000000E+00 0.  1.
         14    1    3    3    0    0 -0.23006494949E+02  0.60184259514E+02 -0.33083272793E+03  0.33704856887E+03  0.00000000000E+00 0. -1.
        -13    1    4    4    0    0  0.72933254535E+02 -0.95104331509E+01 -0.16185343646E+03  0.17778144686E+03  0.00000000000E+00 0.  1.
         13    1    4    4    0    0  0.26761700876E+01 -0.47940590000E+02 -0.24330400594E+03  0.24799657530E+03  0.00000000000E+00 0. -1.
         21    1    1    2  502  501 -0.18971950379E+02 -0.25100146513E+02  0.64994268591E+01  0.32127788683E+02  0.00000000000E+00 0.  1.
<scales pt_clust_5="13000.00000" pt_clust_6="13000.00000" pt_clust_7="13000.00000" pt_clust_8="13000.00000" pt_clust_9="31.46351"></scales>
<clustering>
<clus scale="   31.464">  1  9  2 -1</clus>
<clus scale="   80.334">  5  6 -1 -1</clus>
<clus scale="   90.094">  7  8 -1 -1</clus>
<clus scale="  125.375">  1  5  2 -1</clus>
<clus scale="  131.842">  2  5  1 -1</clus>
</clustering>
</event>
<event>
 9    2  0.2869112E-005  0.9814784E+02  0.7546771E-02  0.1289938E+00
          2   -1    0    0  502    0  0.00000000000E+00  0.00000000000E+00  0.82815148863E+02  0.82815148863E+02  0.00000000000E+00 0. -1.
         -1   -1    0    0    0  501 -0.00000000000E+00 -0.00000000000E+00 -0.31893233507E+03  0.31893233507E+03  0.00000000000E+00 0.  1.
         23    2    1    2    0    0 -0.50718307822E+01 -0.37271942996E+02 -0.15555616863E+03  0.18408902336E+03  0.90973214308E+02 0.  0.
         24    2    1    2    0    0 -0.28662974848E+02  0.26710145067E+02  0.35766714594E+02  0.96078322560E+02  0.80104857633E+02 0.  0.
        -11    1    4    4    0    0  0.21069555501E+02  0.27649734092E+02  0.30159165727E+02  0.46021834402E+02  0.00000000000E+00 0.  1.
         12    1    4    4    0    0 -0.49732530348E+02 -0.93958902500E+00  0.56075488665E+01  0.50056488158E+02  0.00000000000E+00 0. -1.
        -11    1    3    3    0    0  0.30963776709E+02 -0.50345081873E+02 -0.81200810640E+02  0.10043383088E+03  0.00000000000E+00 0.  1.
         11    1    3    3    0    0 -0.36035607491E+02  0.13073138877E+02 -0.74355357985E+02  0.83655192477E+02  0.00000000000E+00 0. -1.
         21    1    1    2  502  501  0.33734805630E+02  0.10561797928E+02 -0.11632773218E+03  0.12158013802E+03  0.00000000000E+00 0.  1.
<scales pt_clust_5="13000.00000" pt_clust_6="13000.00000" pt_clust_7="13000.00000" pt_clust_8="13000.00000" pt_clust_9="35.34952"></scales>
<clustering>
<clus scale="   35.350">  2  9  1 -1</clus>
<clus scale="   80.105">  5  6 -1 -1</clus>
<clus scale="   88.168">  1  5  2 -1</clus>
<clus scale="   90.973">  7  8 -1 -1</clus>
<clus scale="   88.168">  1  5  2 -1</clus>
</clustering>
</event>
<event>
 9    2  0.2869112E-005  0.9450003E+02  0.7546771E-02  0.1296314E+00
          2   -1    0    0  502    0  0.00000000000E+00  0.00000000000E+00  0.15607707356E+04  0.15607707356E+04  0.00000000000E+00 0. -1.
         -1   -1    0    0    0  501 -0.00000000000E+00 -0.00000000000E+00 -0.21730279598E+02  0.21730279598E+02  0.00000000000E+00 0.  1.
         23    2    1    2    0    0  0.50535773588E+01  0.69990327132E+01  0.13154704369E+03  0.15910502194E+03  0.89080066243E+02 0.  0.
         24    2    1    2    0    0 -0.28583874308E+02 -0.18323301502E+02  0.13879593749E+04  0.13907847597E+04  0.81842777280E+02 0.  0.
        -13    1    4    4    0    0 -0.71398573416E+00 -0.29353174900E+02  0.17433405380E+03  0.17678936893E+03  0.00000000000E+00 0.  1.
         14    1    4    4    0    0 -0.27869888573E+02  0.11029873398E+02  0.12136253211E+04  0.12139953907E+04  0.00000000000E+00 0. -1.
        -11    1    3    3    0    0  0.86685632695E+01 -0.36905761249E+02  0.93510835832E+02  0.10090319926E+03  0.00000000000E+00 0. -1.
         11    1    3    3    0    0 -0.36149859108E+01  0.43904793962E+02  0.38036207855E+02  0.58201822686E+02  0.00000000000E+00 0.  1.
         21    1    1    2  502  501  0.23530296949E+02  0.11324268788E+02  0.19534037490E+02  0.32611233628E+02  0.00000000000E+00 0.  1.
<scales pt_clust_5="13000.00000" pt_clust_6="13000.00000" pt_clust_7="13000.00000" pt_clust_8="13000.00000" pt_clust_9="26.11348"></scales>
<clustering>
<clus scale="   26.113">  2  9  1 -1</clus>
<clus scale="   81.843">  5  6 -1 -1</clus>
<clus scale="   87.711">  1  5  2 -1</clus>
<clus scale="   89.080">  7  8 -1 -1</clus>
<clus scale="   87.711">  1  5  2 -1</clus>
</clustering>
</event>
<event>
 9    2  0.2869112E-005  0.1279163E+03  0.7546771E-02  0.1233893E+00
         -1   -1    0    0    0  501 -0.00000000000E+00  0.00000000000E+00  0.35272169935E+02  0.35272169935E+02  0.00000000000E+00 0.  1.
          2   -1    0    0  502    0  0.00000000000E+00 -0.00000000000E+00 -0.58850943245E+03  0.58850943245E+03  0.00000000000E+00 0. -1.
         23    2    1    2    0    0 -0.26028800941E+02  0.89751208525E+02 -0.23843070709E+03  0.27196545364E+03  0.91559969316E+02 0.  0.
         24    2    1    2    0    0  0.22584108674E+00 -0.87978694060E+02 -0.29871458248E+03  0.32135492523E+03  0.79361732410E+02 0.  0.
        -13    1    4    4    0    0 -0.19931719113E+02 -0.62559512869E+02 -0.27051892312E+03  0.27837286836E+03  0.00000000000E+00 0.  1.
         14    1    4    4    0    0  0.20157560200E+02 -0.25419181191E+02 -0.28195659367E+02  0.42982056869E+02  0.00000000000E+00 0. -1.
        -11    1    3    3    0    0  0.14285311711E+02  0.70648246052E+02 -0.20165748003E+03  0.21415177807E+03  0.00000000000E+00 0. -1.
         11    1    3    3    0    0 -0.40314112652E+02  0.19102962473E+02 -0.36773227061E+02  0.57813675567E+02  0.00000000000E+00 0.  1.
         21    1    1    2  502  501  0.25802959854E+02 -0.17725144652E+01 -0.16091972951E+02  0.30461223518E+02  0.00000000000E+00 0. -1.
<scales pt_clust_5="13000.00000" pt_clust_6="13000.00000" pt_clust_7="13000.00000" pt_clust_8="13000.00000" pt_clust_9="25.86377"></scales>
<clustering>
<clus scale="   25.864">  1  9  2 -1</clus>
<clus scale="   79.362">  5  6 -1 -1</clus>
<clus scale="   91.560">  7  8 -1 -1</clus>
<clus scale="  119.489">  2  5  1 -1</clus>
<clus scale="  119.489">  2  5  1 -1</clus>
</clustering>
</event>
<event>
 9    2  0.2869112E-005  0.1038682E+03  0.7546771E-02  0.1277289E+00
          2   -1    0    0  502    0  0.00000000000E+00  0.00000000000E+00  0.51756481272E+03  0.51756481272E+03  0.00000000000E+00 0. -1.
         -1   -1    0    0    0  501 -0.00000000000E+00 -0.00000000000E+00 -0.78956213117E+02  0.78956213117E+02  0.00000000000E+00 0.  1.
         23    2    1    2    0    0  0.50824698850E+01  0.63642720838E+02 -0.69820176429E+01  0.11100542261E+03  0.90538543517E+02 0.  0.
         24    2    1    2    0    0  0.23751073996E+02 -0.44660918150E+02  0.44066101840E+03  0.45064465500E+03  0.79622614950E+02 0.  0.
        -13    1    4    4    0    0  0.40363311294E+02 -0.33743307766E+02  0.14384878930E+03  0.15316749623E+03  0.00000000000E+00 0.  1.
         14    1    4    4    0    0 -0.16612237298E+02 -0.10917610384E+02  0.29681222910E+03  0.29747715877E+03  0.00000000000E+00 0. -1.
        -11    1    3    3    0    0 -0.27970204735E+02 -0.73015250113E+01 -0.14571318229E+02  0.32372332868E+02  0.00000000000E+00 0. -1.
         11    1    3    3    0    0  0.33052674620E+02  0.70944245850E+02  0.75893005863E+01  0.78633089740E+02  0.00000000000E+00 0.  1.
         21    1    1    2  502  501 -0.28833543881E+02 -0.18981802688E+02  0.49295988456E+01  0.34870948235E+02  0.00000000000E+00 0. -1.
<scales pt_clust_5="13000.00000" pt_clust_6="13000.00000" pt_clust_7="13000.00000" pt_clust_8="13000.00000" pt_clust_9="34.52075"></scales>
<clustering>
<clus scale="   34.521">  2  9  1 -1</clus>
<clus scale="   79.623">  5  6 -1 -1</clus>
<clus scale="   90.539">  7  8 -1 -1</clus>
<clus scale="   94.505">  1  5  2 -1</clus>
<clus scale="   94.505">  1  5  2 -1</clus>
</clustering>
</event>
<event>
 9    2  0.2869112E-005  0.1391681E+03  0.7546771E-02  0.1216688E+00
         -1   -1    0    0    0  501 -0.00000000000E+00  0.00000000000E+00  0.18218281545E+03  0.18218281545E+03  0.00000000000E+00 0.  1.
          2   -1    0    0  502    0  0.00000000000E+00 -0.00000000000E+00 -0.26785850561E+03  0.26785850561E+03  0.00000000000E+00 0. -1.
         23    2    1    2    0    0  0.98960836665E+00  0.86516633473E+02  0.92411774146E+02  0.15611964338E+03  0.91363558686E+02 0.  0.
         24    2    1    2    0    0  0.14161509926E+02 -0.10709766626E+03 -0.21202059954E+03  0.25144117672E+03  0.81237135830E+02 0.  0.
        -13    1    4    4    0    0 -0.21365828329E+02 -0.36504457541E+01 -0.15899382660E+02  0.26881494440E+02  0.00000000000E+00 0.  1.
         14    1    4    4    0    0  0.35527338255E+02 -0.10344722050E+03 -0.19612121688E+03  0.22455968227E+03  0.00000000000E+00 0. -1.
        -13    1    3    3    0    0  0.26972801412E+02  0.30639387558E+02  0.84690490396E+02  0.94014803353E+02  0.00000000000E+00 0.  1.
         13    1    3    3    0    0 -0.25983193046E+02  0.55877245916E+02  0.77212837496E+01  0.62104840026E+02  0.00000000000E+00 0. -1.
         21    1    1    2  502  501 -0.15151118293E+02  0.20581032783E+02  0.33933135233E+02  0.42480500970E+02  0.00000000000E+00 0.  1.
<scales pt_clust_5="13000.00000" pt_clust_6="13000.00000" pt_clust_7="13000.00000" pt_clust_8="13000.00000" pt_clust_9="25.55651"></scales>
<clustering>
<clus scale="   25.557">  1  9  2 -1</clus>
<clus scale="   81.237">  5  6 -1 -1</clus>
<clus scale="   91.364">  7  8 -1 -1</clus>
<clus scale="  132.740">  2  5  1 -1</clus>
<clus scale="  132.740">  2  5  1 -1</clus>
</clustering>
</event>
<event>
 9    2  0.2869112E-005  0.1161407E+03  0.7546771E-02  0.1253662E+00
          2   -1    0    0  502    0  0.00000000000E+00  0.00000000000E+00  0.44772942984E+03  0.44772942984E+03  0.00000000000E+00 0. -1.
         -1   -1    0    0    0  501 -0.00000000000E+00 -0.00000000000E+00 -0.57027970365E+02  0.57027970365E+02  0.00000000000E+00 0.  1.
         23    2    1    2    0    0 -0.38135282352E+02 -0.32363326244E+02  0.38106490452E+02  0.11317511595E+03  0.94100040441E+02 0.  0.
         24    2    1    2    0    0  0.65824275902E+02  0.41136166847E+00  0.21739975939E+03  0.24993005831E+03  0.10425629070E+03 0.  0.
        -13    1    4    4    0    0  0.99701395112E+01 -0.18397170998E+02 -0.35773314683E+01  0.21228680671E+02  0.00000000000E+00 0.  1.
         14    1    4    4    0    0  0.55854136391E+02  0.18808532667E+02  0.22097709085E+03  0.22870137764E+03  0.00000000000E+00 0. -1.
        -13    1    3    3    0    0 -0.48406583461E+02 -0.59601491470E+02  0.33206003270E+02  0.83655088075E+02  0.00000000000E+00 0.  1.
         13    1    3    3    0    0  0.10271301108E+02  0.27238165226E+02  0.49004871821E+01  0.29520027879E+02  0.00000000000E+00 0. -1.
         21    1    1    2  502  501 -0.27688993550E+02  0.31951964576E+02  0.13519520963E+03  0.14165222593E+03  0.00000000000E+00 0. -1.
<scales pt_clust_5="13000.00000" pt_clust_6="13000.00000" pt_clust_7="13000.00000" pt_clust_8="13000.00000" pt_clust_9="42.28012"></scales>
<clustering>
<clus scale="   42.280">  1  9  2 -1</clus>
<clus scale="   94.100">  7  8 -1 -1</clus>
<clus scale="  104.256">  5  6 -1 -1</clus>
<clus scale="  107.117">  2  7  1 -1</clus>
<clus scale="   42.280">  1  5  2 -1</clus>
</clustering>
</event>
<event>
 9    2  0.5099833E-005  0.1856613E+03  0.7546771E-02  0.1163546E+00
         -1   -1    0    0    0  501 -0.00000000000E+00  0.00000000000E+00  0.27573815076E+03  0.27573815076E+03  0.00000000000E+00 0.  1.
          2   -1    0    0  502    0  0.00000000000E+00 -0.00000000000E+00 -0.44971037247E+03  0.44971037247E+03  0.00000000000E+00 0. -1.
         24    2    1    2    0    0 -0.12668281449E+03  0.88384749487E+02  0.19844178573E+03  0.26437920816E+03  0.81589361775E+02 0.  0.
         23    2    1    2    0    0  0.14460502847E+03 -0.73616780035E+02 -0.38981028039E+03  0.43205330246E+03  0.91585789854E+02 0.  0.
        -13    1    3    3    0    0 -0.10624441075E+03  0.97156933881E+02  0.19418576757E+03  0.24173426928E+03  0.00000000000E+00 0.  1.
         14    1    3    3    0    0 -0.20438403734E+02 -0.87721843936E+01  0.42560181579E+01  0.22644938878E+02  0.00000000000E+00 0. -1.
        -11    1    4    4    0    0  0.44871140483E+02 -0.19203026174E+02 -0.36558405620E+02  0.60981083001E+02  0.00000000000E+00 0.  1.
         11    1    4    4    0    0  0.99733887991E+02 -0.54413753861E+02 -0.35325187477E+03  0.37107221946E+03  0.00000000000E+00 0. -1.
         21    1    1    2  502  501 -0.17922213986E+02 -0.14767969452E+02  0.17396272951E+02  0.29016012622E+02  0.00000000000E+00 0.  1.
<scales pt_clust_5="13000.00000" pt_clust_6="13000.00000" pt_clust_7="13000.00000" pt_clust_8="13000.00000" pt_clust_9="23.22281"></scales>
<clustering>
<clus scale="   23.223">  1  9  2 -1</clus>
<clus scale="   81.589">  5  6 -1 -1</clus>
<clus scale="   91.586">  7  8 -1 -1</clus>
<clus scale="  180.939">  1  5  2 -1</clus>
<clus scale="  185.661">  2  5  1 -1</clus>
</clustering>
</event>
<event>
 9    2  0.2869112E-005  0.9251012E+02  0.7546771E-02  0.1304202E+00
          2   -1    0    0  502    0  0.00000000000E+00  0.00000000000E+00  0.38601753959E+02  0.38601753959E+02  0.00000000000E+00 0. -1.
         -1   -1    0    0    0  501 -0.00000000000E+00 -0.00000000000E+00 -0.31045725346E+03  0.31045725346E+03  0.00000000000E+00 0.  1.
         24    2    1    2    0    0  0.32249722510E+02  0.26462169718E+01 -0.14133243632E+03  0.16523685752E+03  0.79254744081E+02 0.  0.
         23    2    1    2    0    0 -0.67471555257E+00 -0.13728084066E+02 -0.74222167989E+02  0.11832726734E+03  0.91123522989E+02 0.  0.
        -11    1    3    3    0    0 -0.24407010682E+02  0.34931014615E+01 -0.69512875296E+02  0.73755974404E+02  0.00000000000E+00 0.  1.
         12    1    3    3    0    0  0.56656733192E+02 -0.84688448969E+00 -0.71819561024E+02  0.91480883113E+02  0.00000000000E+00 0. -1.
        -11    1    4    4    0    0  0.39105596770E+02 -0.55859049479E+01 -0.65969172316E+02  0.76892013427E+02  0.00000000000E+00 0. -1.
         11    1    4    4    0    0 -0.39780312323E+02 -0.81421791182E+01 -0.82529956731E+01  0.41435253913E+02  0.00000000000E+00 0.  1.
         21    1    1    2  502  501 -0.31575006957E+02  0.11081867094E+02 -0.56300895196E+02  0.65494882567E+02  0.00000000000E+00 0.  1.
<scales pt_clust_5="13000.00000" pt_clust_6="13000.00000" pt_clust_7="13000.00000" pt_clust_8="13000.00000" pt_clust_9="33.46325"></scales>
<clustering>
<clus scale="   33.463">  2  9  1 -1</clus>
<clus scale="   79.255">  5  6 -1 -1</clus>
<clus scale="   80.845">  2  5  1 -1</clus>
<clus scale="   91.124">  7  8 -1 -1</clus>
<clus scale="   92.510">  1  5  2 -1</clus>
</clustering>
</event>
<event>
 9    2  0.2869112E-005  0.1026481E+03  0.7546771E-02  0.1282773E+00
         -1   -1    0    0    0  501 -0.00000000000E+00  0.00000000000E+00  0.24661125968E+02  0.24661125968E+02  0.00000000000E+00 0.  1.
          2   -1    0    0  502    0  0.00000000000E+00 -0.00000000000E+00 -0.72605986411E+03  0.72605986411E+03  0.00000000000E+00 0. -1.
         24    2    1    2    0    0 -0.24367952843E+02  0.33089436441E+02 -0.10000934860E+03  0.13432576080E+03  0.79704656561E+02 0.  0.
         23    2    1    2    0    0  0.35526804976E+02 -0.18194672700E+01 -0.46479038611E+03  0.47581920468E+03  0.95437666520E+02 0.  0.
        -11    1    3    3    0    0 -0.23885721393E+02  0.44147447645E+02 -0.20778642903E+02  0.54325655273E+02  0.00000000000E+00 0.  1.
         12    1    3    3    0    0 -0.48223145003E+00 -0.11058011203E+02 -0.79230705700E+02  0.80000105529E+02  0.00000000000E+00 0. -1.
        -11    1    4    4    0    0  0.68272484225E+02 -0.65174129432E+01 -0.32679569513E+03  0.33391471236E+03  0.00000000000E+00 0. -1.
         11    1    4    4    0    0 -0.32745679249E+02  0.46979456732E+01 -0.13799469098E+03  0.14190449232E+03  0.00000000000E+00 0.  1.
         21    1    1    2  502  501 -0.11158852133E+02 -0.31269969171E+02 -0.13659900343E+03  0.14057602460E+03  0.00000000000E+00 0. -1.
<scales pt_clust_5="13000.00000" pt_clust_6="13000.00000" pt_clust_7="13000.00000" pt_clust_8="13000.00000" pt_clust_9="33.20137"></scales>
<clustering>
<clus scale="   33.201">  2  9  1 -1</clus>
<clus scale="   79.705">  5  6 -1 -1</clus>
<clus scale="   88.211">  1  5  2 -1</clus>
<clus scale="   95.438">  7  8 -1 -1</clus>
<clus scale="   33.201">  2  5  1 -1</clus>
</clustering>
</event>
<event>
 9    2  0.2869112E-005  0.1068035E+03  0.7546771E-02  0.1275791E+00
         -1   -1    0    0    0  501 -0.00000000000E+00  0.00000000000E+00  0.21250420152E+03  0.21250420152E+03  0.00000000000E+00 0.  1.
          2   -1    0    0  502    0  0.00000000000E+00 -0.00000000000E+00 -0.76570356083E+02  0.76570356083E+02  0.00000000000E+00 0. -1.
         24    2    1    2    0    0 -0.15174261450E+02 -0.27656624933E+02  0.12008932847E+03  0.16316225057E+03  0.10585521283E+03 0.  0.
         23    2    1    2    0    0  0.10045137757E+02  0.35269433607E+01 -0.10788374577E+02  0.89609960631E+02  0.88318808282E+02 0.  0.
        -13    1    3    3    0    0  0.43771601005E+02  0.21945426366E+01  0.40006511785E+02  0.59340458855E+02  0.00000000000E+00 0.  1.
         14    1    3    3    0    0 -0.58945862455E+02 -0.29851167570E+02  0.80082816687E+02  0.10382179171E+03  0.00000000000E+00 0. -1.
        -13    1    4    4    0    0 -0.90953871095E+01 -0.30946805836E+02 -0.31487245369E+02  0.45076351661E+02  0.00000000000E+00 0. -1.
         13    1    4    4    0    0  0.19140524866E+02  0.34473749196E+02  0.20698870793E+02  0.44533608970E+02  0.00000000000E+00 0.  1.
         21    1    1    2  502  501  0.51291236931E+01  0.24129681572E+02  0.26632891541E+02  0.36302346405E+02  0.00000000000E+00 0. -1.
<scales pt_clust_5="13000.00000" pt_clust_6="13000.00000" pt_clust_7="13000.00000" pt_clust_8="13000.00000" pt_clust_9="24.66879"></scales>
<clustering>
<clus scale="   24.669">  1  9  2 -1</clus>
<clus scale="   88.319">  7  8 -1 -1</clus>
<clus scale="   89.453">  2  7  1 -1</clus>
<clus scale="  105.855">  5  6 -1 -1</clus>
<clus scale="   89.453">  2  5  1 -1</clus>
</clustering>
</event>
<event>
 9    2  0.2869112E-005  0.1042120E+03  0.7546771E-02  0.1276062E+00
         -3   -1    0    0    0  501 -0.00000000000E+00  0.00000000000E+00  0.41135713692E+03  0.41135713692E+03  0.00000000000E+00 0.  1.
          4   -1    0    0  502    0  0.00000000000E+00 -0.00000000000E+00 -0.67892604564E+02  0.67892604564E+02  0.00000000000E+00 0. -1.
         24    2    1    2    0    0  0.37339225140E+02  0.65483695473E+02  0.24367020090E+03  0.26740124925E+03  0.80286544243E+02 0.  0.
         23    2    1    2    0    0 -0.25787339372E+02 -0.40391077576E+02 -0.62173991385E+01  0.10229680324E+03  0.90164038740E+02 0.  0.
        -11    1    3    3    0    0  0.56572255612E+02  0.65842622930E+02  0.16533437539E+03  0.18673812355E+03  0.00000000000E+00 0.  1.
         12    1    3    3    0    0 -0.19233030473E+02 -0.35892745731E+00  0.78335825510E+02  0.80663125704E+02  0.00000000000E+00 0. -1.
        -11    1    4    4    0    0 -0.87762082640E+01  0.25626640371E+02 -0.18798252537E+02  0.32971515383E+02  0.00000000000E+00 0.  1.
         11    1    4    4    0    0 -0.17011131108E+02 -0.66017717947E+02  0.12580853399E+02  0.69325287859E+02  0.00000000000E+00 0. -1.
         21    1    1    2  502  501 -0.11551885768E+02 -0.25092617897E+02  0.10601173059E+03  0.10955168899E+03  0.00000000000E+00 0. -1.
<scales pt_clust_5="13000.00000" pt_clust_6="13000.00000" pt_clust_7="13000.00000" pt_clust_8="13000.00000" pt_clust_9="27.62400"></scales>
<clustering>
<clus scale="   27.624">  1  9  2 -1</clus>
<clus scale="   80.287">  5  6 -1 -1</clus>
<clus scale="   90.164">  7  8 -1 -1</clus>
<clus scale="   95.794">  1  5  2 -1</clus>
<clus scale="  104.212">  2  5  1 -1</clus>
</clustering>
</event>
<event>
 9    2  0.2869112E-005  0.9539185E+02  0.7546771E-02  0.1296310E+00
          2   -1    0    0  502    0  0.00000000000E+00  0.00000000000E+00  0.31454793199E+03  0.31454793199E+03  0.00000000000E+00 0. -1.
         -1   -1    0    0    0  501 -0.00000000000E+00 -0.00000000000E+00 -0.14507890738E+03  0.14507890738E+03  0.00000000000E+00 0.  1.
         23    2    1    2    0    0  0.22790088348E+02 -0.96573588442E+02 -0.62523516557E+02  0.14867952740E+03  0.91381429369E+02 0.  0.
         24    2    1    2    0    0  0.66047232280E+00  0.22204264251E+02  0.21554799368E+03  0.23125321985E+03  0.80769106342E+02 0.  0.
        -13    1    4    4    0    0 -0.24526483464E+02  0.11419781466E+02  0.19623320527E+02  0.33422066189E+02  0.00000000000E+00 0.  1.
         14    1    4    4    0    0  0.25186955787E+02  0.10784482784E+02  0.19592467315E+03  0.19783115366E+03  0.00000000000E+00 0. -1.
        -11    1    3    3    0    0 -0.22373510372E+02 -0.17546339642E+02  0.12174892067E+02  0.30930179405E+02  0.00000000000E+00 0. -1.
         11    1    3    3    0    0  0.45163598719E+02 -0.79027248799E+02 -0.74698408624E+02  0.11774934799E+03  0.00000000000E+00 0.  1.
         21    1    1    2  502  501 -0.23450560671E+02  0.74369324191E+02  0.16444547490E+02  0.79694092118E+02  0.00000000000E+00 0.  1.
<scales pt_clust_5="13000.00000" pt_clust_6="13000.00000" pt_clust_7="13000.00000" pt_clust_8="13000.00000" pt_clust_9="77.97900"></scales>
<clustering>
<clus scale="   77.979">  2  9  1 -1</clus>
<clus scale="   80.769">  5  6 -1 -1</clus>
<clus scale="   85.280">  1  5  2 -1</clus>
<clus scale="   91.381">  7  8 -1 -1</clus>
<clus scale="   85.280">  1  5  2 -1</clus>
</clustering>
</event>
<event>
 9    2  0.2869112E-005  0.1069776E+03  0.7546771E-02  0.1270684E+00
          2   -1    0    0  502    0  0.00000000000E+00  0.00000000000E+00  0.49624861819E+03  0.49624861819E+03  0.00000000000E+00 0. -1.
         -1   -1    0    0    0  501 -0.00000000000E+00 -0.00000000000E+00 -0.55126734049E+02  0.55126734049E+02  0.00000000000E+00 0.  1.
         23    2    1    2    0    0  0.49633487676E+01 -0.69765643705E+02  0.75423413978E+02  0.13843959482E+03  0.92655006151E+02 0.  0.
         24    2    1    2    0    0 -0.22378307466E+02  0.45838555340E+02  0.37049670406E+03  0.38295560744E+03  0.82372493886E+02 0.  0.
        -11    1    4    4    0    0  0.19678651930E+02  0.44247116776E+02  0.12841000170E+03  0.13723769607E+03  0.00000000000E+00 0.  1.
         12    1    4    4    0    0 -0.42056959396E+02  0.15914385639E+01  0.24208670236E+03  0.24571791137E+03  0.00000000000E+00 0. -1.
        -13    1    3    3    0    0 -0.19973221309E+02 -0.61086692721E+02  0.64581947764E+01  0.64592738577E+02  0.00000000000E+00 0.  1.
         13    1    3    3    0    0  0.24936570076E+02 -0.86789509839E+01  0.68965219201E+02  0.73846856242E+02  0.00000000000E+00 0. -1.
         21    1    1    2  502  501  0.17414958699E+02  0.23927088365E+02 -0.47982339008E+01  0.29980149978E+02  0.00000000000E+00 0.  1.
<scales pt_clust_5="13000.00000" pt_clust_6="13000.00000" pt_clust_7="13000.00000" pt_clust_8="13000.00000" pt_clust_9="29.59369"></scales>
<clustering>
<clus scale="   29.594">  2  9  1 -1</clus>
<clus scale="   82.372">  5  6 -1 -1</clus>
<clus scale="   92.655">  7  8 -1 -1</clus>
<clus scale="   98.206">  1  5  2 -1</clus>
<clus scale="   98.206">  1  5  2 -1</clus>
</clustering>
</event>
<event>
 9    2  0.2869112E-005  0.1210979E+03  0.7546771E-02  0.1256815E+00
          4   -1    0    0  502    0  0.00000000000E+00  0.00000000000E+00  0.18851143519E+03  0.18851143519E+03  0.00000000000E+00 0. -1.
         -3   -1    0    0    0  501 -0.00000000000E+00 -0.00000000000E+00 -0.27748796585E+03  0.27748796585E+03  0.00000000000E+00 0.  1.
         23    2    1    2    0    0  0.61925747300E+01 -0.88059624995E+01 -0.15185363834E+03  0.17589841075E+03  0.88118275463E+02 0.  0.
         24    2    1    2    0    0  0.36455613525E+02 -0.82994472048E+02  0.12377502739E+03  0.17197078938E+03  0.77695565170E+02 0.  0.
        -11    1    4    4    0    0  0.57879990175E+02 -0.48888907896E+02  0.60460756016E+02  0.96931530453E+02  0.00000000000E+00 0.  1.
         12    1    4    4    0    0 -0.21424376650E+02 -0.34105564152E+02  0.63314271369E+02  0.75039258925E+02  0.00000000000E+00 0. -1.
        -13    1    3    3    0    0 -0.23174381767E+02 -0.27835380187E+02 -0.24261192243E+02  0.43594332309E+02  0.00000000000E+00 0. -1.
         13    1    3    3    0    0  0.29366956497E+02  0.19029417688E+02 -0.12759244610E+03  0.13230407844E+03  0.00000000000E+00 0.  1.
         21    1    1    2  502  501 -0.42648188255E+02  0.91800434547E+02 -0.60897919703E+02  0.11813020092E+03  0.00000000000E+00 0.  1.
<scales pt_clust_5="13000.00000" pt_clust_6="13000.00000" pt_clust_7="13000.00000" pt_clust_8="13000.00000" pt_clust_9="92.88763"></scales>
<clustering>
<clus scale="   77.696">  5  6 -1 -1</clus>
<clus scale="   88.118">  7  8 -1 -1</clus>
<clus scale="   88.773">  2  7  1 -1</clus>
<clus scale="   92.888">  2  9  1 -1</clus>
<clus scale="  121.098">  1  5  2 -1</clus>
</clustering>
</event>
<event>
 9    2  0.2869112E-005  0.9438357E+02  0.7546771E-02  0.1296630E+00
          2   -1    0    0  502    0  0.00000000000E+00  0.00000000000E+00  0.29013771756E+03  0.29013771756E+03  0.00000000000E+00 0. -1.
         -1   -1    0    0    0  501 -0.00000000000E+00 -0.00000000000E+00 -0.88793267639E+02  0.88793267639E+02  0.00000000000E+00 0.  1.
         23    2    1    2    0    0 -0.38111957399E+02  0.28932358865E+02 -0.30760589742E+02  0.10499002155E+03  0.88244478907E+02 0.  0.
         24    2    1    2    0    0  0.30906157803E+02 -0.88931243387E+01  0.23666949099E+03  0.25216187542E+03  0.80863373642E+02 0.  0.
        -13    1    4    4    0    0  0.19133601907E+02  0.29048203177E+02  0.47545411944E+02  0.58910601989E+02  0.00000000000E+00 0.  1.
         14    1    4    4    0    0  0.11772555896E+02 -0.37941327515E+02  0.18912407905E+03  0.19325127343E+03  0.00000000000E+00 0. -1.
        -13    1    3    3    0    0 -0.90322500298E+01 -0.20180970104E+02  0.19088157359E+02  0.29209773130E+02  0.00000000000E+00 0. -1.
         13    1    3    3    0    0 -0.29079707370E+02  0.49113328969E+02 -0.49848747101E+02  0.75780248420E+02  0.00000000000E+00 0.  1.
         21    1    1    2  502  501  0.72057995963E+01 -0.20039234526E+02 -0.45644513297E+01  0.21779088230E+02  0.00000000000E+00 0.  1.
<scales pt_clust_5="13000.00000" pt_clust_6="13000.00000" pt_clust_7="13000.00000" pt_clust_8="13000.00000" pt_clust_9="21.29541"></scales>
<clustering>
<clus scale="   21.295">  2  9  1 -1</clus>
<clus scale="   80.863">  5  6 -1 -1</clus>
<clus scale="   87.522">  1  5  2 -1</clus>
<clus scale="   88.244">  7  8 -1 -1</clus>
<clus scale="   87.522">  1  5  2 -1</clus>
</clustering>
</event>
<event>
 9    2  0.2869112E-005  0.1612352E+03  0.7546771E-02  0.1189494E+00
         -1   -1    0    0    0  501 -0.00000000000E+00  0.00000000000E+00  0.19449506867E+03  0.19449506867E+03  0.00000000000E+00 0.  1.
          2   -1    0    0  502    0  0.00000000000E+00 -0.00000000000E+00 -0.22833955891E+03  0.22833955891E+03  0.00000000000E+00 0. -1.
         24    2    1    2    0    0 -0.12711692800E+02  0.12635053200E+03  0.46288812088E+02  0.15652251768E+03  0.78934151962E+02 0.  0.
         23    2    1    2    0    0  0.55751166070E+02 -0.12369226619E+03 -0.12312629639E+03  0.20541990862E+03  0.92893943631E+02 0.  0.
        -13    1    3    3    0    0 -0.41173349132E+02  0.67512009995E+02  0.45344166011E+02  0.91154865825E+02  0.00000000000E+00 0.  1.
         14    1    3    3    0    0  0.28461656332E+02  0.58838522005E+02  0.94464607651E+00  0.65367651855E+02  0.00000000000E+00 0. -1.
        -13    1    4    4    0    0  0.32329135644E+02 -0.10432909985E+03 -0.13424083492E+03  0.17306165331E+03  0.00000000000E+00 0. -1.
         13    1    4    4    0    0  0.23422030426E+02 -0.19363166339E+02  0.11114538532E+02  0.32358255310E+02  0.00000000000E+00 0.  1.
         21    1    1    2  502  501 -0.43039473271E+02 -0.26582658125E+01  0.42992994063E+02  0.60892201266E+02  0.00000000000E+00 0.  1.
<scales pt_clust_5="13000.00000" pt_clust_6="13000.00000" pt_clust_7="13000.00000" pt_clust_8="13000.00000" pt_clust_9="43.12149"></scales>
<clustering>
<clus scale="   43.121">  1  9  2 -1</clus>
<clus scale="   78.934">  5  6 -1 -1</clus>
<clus scale="   92.894">  7  8 -1 -1</clus>
<clus scale="  153.617">  1  5  2 -1</clus>
<clus scale="  161.235">  2  5  1 -1</clus>
</clustering>
</event>
<event>
 9    2  0.2869112E-005  0.9220455E+02  0.7546771E-02  0.1304059E+00
         -1   -1    0    0    0  501 -0.00000000000E+00  0.00000000000E+00  0.25404667109E+02  0.25404667109E+02  0.00000000000E+00 0.  1.
          2   -1    0    0  502    0  0.00000000000E+00 -0.00000000000E+00 -0.45708479883E+03  0.45708479883E+03  0.00000000000E+00 0. -1.
         24    2    1    2    0    0  0.28174989583E+02  0.11509559858E+02 -0.11859238887E+03  0.14675716780E+03  0.80914841626E+02 0.  0.
         23    2    1    2    0    0 -0.27447091821E+01  0.32405726630E-01 -0.26235135876E+03  0.27781773347E+03  0.91361496854E+02 0.  0.
        -11    1    3    3    0    0 -0.34948062185E+01  0.42142912607E+02 -0.54538938702E+02  0.69012568336E+02  0.00000000000E+00 0.  1.
         12    1    3    3    0    0  0.31669795802E+02 -0.30633352749E+02 -0.64053450172E+02  0.77744599463E+02  0.00000000000E+00 0. -1.
        -11    1    4    4    0    0  0.33090440512E+02 -0.23939627531E+02 -0.18308167706E+03  0.18758193808E+03  0.00000000000E+00 0. -1.
         11    1    4    4    0    0 -0.35835149695E+02  0.23972033258E+02 -0.79269681707E+02  0.90235795393E+02  0.00000000000E+00 0.  1.
         21    1    1    2  502  501 -0.25430280401E+02 -0.11541965585E+02 -0.50736384081E+02  0.57914564666E+02  0.00000000000E+00 0. -1.
<scales pt_clust_5="13000.00000" pt_clust_6="13000.00000" pt_clust_7="13000.00000" pt_clust_8="13000.00000" pt_clust_9="27.92698"></scales>
<clustering>
<clus scale="   27.927">  1  9  2 -1</clus>
<clus scale="   80.915">  5  6 -1 -1</clus>
<clus scale="   81.866">  1  5  2 -1</clus>
<clus scale="   91.361">  7  8 -1 -1</clus>
<clus scale="   92.205">  2  5  1 -1</clus>
</clustering>
</event>
<event>
 9    2  0.2869112E-005  0.9162086E+02  0.7546771E-02  0.1304663E+00
          2   -1    0    0  502    0  0.00000000000E+00  0.00000000000E+00  0.10996335837E+03  0.10996335837E+03  0.00000000000E+00 0. -1.
         -1   -1    0    0    0  501 -0.00000000000E+00 -0.00000000000E+00 -0.11464548784E+03  0.11464548784E+03  0.00000000000E+00 0.  1.
         23    2    1    2    0    0 -0.20415065107E+02  0.21122172231E+02 -0.14304668934E+02  0.96347929993E+02  0.90638728023E+02 0.  0.
         24    2    1    2    0    0 -0.17676321503E+02 -0.80538398694E+01  0.21202180716E+02  0.86358372902E+02  0.81430457599E+02 0.  0.
        -11    1    4    4    0    0  0.25016878933E+02 -0.16238981089E+02 -0.11494610642E+02  0.31963648293E+02  0.00000000000E+00 0.  1.
         12    1    4    4    0    0 -0.42693200436E+02  0.81851412198E+01  0.32696791359E+02  0.54394724610E+02  0.00000000000E+00 0. -1.
        -13    1    3    3    0    0  0.24282214290E+02 -0.12119411160E+02  0.17415773665E+02  0.32246166129E+02  0.00000000000E+00 0.  1.
         13    1    3    3    0    0 -0.44697279396E+02  0.33241583392E+02 -0.31720442599E+02  0.64101763864E+02  0.00000000000E+00 0. -1.
         21    1    1    2  502  501  0.38091386610E+02 -0.13068332362E+02 -0.11579641246E+02  0.41902543311E+02  0.00000000000E+00 0.  1.
<scales pt_clust_5="13000.00000" pt_clust_6="13000.00000" pt_clust_7="13000.00000" pt_clust_8="13000.00000" pt_clust_9="40.27077"></scales>
<clustering>
<clus scale="   40.271">  2  9  1 -1</clus>
<clus scale="   81.430">  5  6 -1 -1</clus>
<clus scale="   82.522">  1  5  2 -1</clus>
<clus scale="   90.639">  7  8 -1 -1</clus>
<clus scale="   82.522">  1  5  2 -1</clus>
</clustering>
</event>
<event>
 9    2  0.2869112E-005  0.1100062E+03  0.7546771E-02  0.1264880E+00
         -1   -1    0    0    0  501 -0.00000000000E+00  0.00000000000E+00  0.36828033698E+03  0.36828033698E+03  0.00000000000E+00 0.  1.
          2   -1    0    0  502    0  0.00000000000E+00 -0.00000000000E+00 -0.64042281633E+02  0.64042281633E+02  0.00000000000E+00 0. -1.
         23    2    1    2    0    0  0.26684824468E+02  0.39782724869E+02  0.11987985127E+03  0.15851004404E+03  0.91975596042E+02 0.  0.
         24    2    1    2    0    0 -0.46028136477E+02 -0.47523314586E+02  0.18049958550E+02  0.10620436182E+03  0.81095688481E+02 0.  0.
        -11    1    4    4    0    0 -0.23868698446E+02  0.21510692645E+02  0.44828410061E+01  0.32442572756E+02  0.00000000000E+00 0.  1.
         12    1    4    4    0    0 -0.22159438031E+02 -0.69034007231E+02  0.13567117544E+02  0.73761789069E+02  0.00000000000E+00 0. -1.
        -11    1    3    3    0    0 -0.20769471397E+02  0.49080342696E+02  0.78408457994E+02  0.94805787093E+02  0.00000000000E+00 0.  1.
         11    1    3    3    0    0  0.47454295866E+02 -0.92976178272E+01  0.41471393272E+02  0.63704256948E+02  0.00000000000E+00 0. -1.
         21    1    1    2  502  501  0.19343312008E+02  0.77405897169E+01  0.16630824553E+03  0.16760821275E+03  0.00000000000E+00 0. -1.
<scales pt_clust_5="13000.00000" pt_clust_6="13000.00000" pt_clust_7="13000.00000" pt_clust_8="13000.00000" pt_clust_9="20.83460"></scales>
<clustering>
<clus scale="   20.835">  1  9  2 -1</clus>
<clus scale="   81.096">  5  6 -1 -1</clus>
<clus scale="   91.976">  7  8 -1 -1</clus>
<clus scale="  101.086">  2  5  1 -1</clus>
<clus scale="  101.086">  2  5  1 -1</clus>
</clustering>
</event>
<event>
 9    2  0.2869112E-005  0.1091726E+03  0.7546771E-02  0.1268157E+00
         -1   -1    0    0    0  501 -0.00000000000E+00  0.00000000000E+00  0.14408996717E+03  0.14408996717E+03  0.00000000000E+00 0.  1.
          2   -1    0    0  502    0  0.00000000000E+00 -0.00000000000E+00 -0.10227932171E+03  0.10227932171E+03  0.00000000000E+00 0. -1.
         23    2    1    2    0    0 -0.43327076219E+02  0.80494200705E+01  0.43276013123E+02  0.11177550538E+03  0.93160729893E+02 0.  0.
         24    2    1    2    0    0  0.64326518106E+02  0.75240020190E+01 -0.18344208296E+02  0.10347460458E+03  0.78587354437E+02 0.  0.
        -11    1    4    4    0    0  0.67338074876E+02  0.84703119527E+01  0.15391026183E+02  0.69591998100E+02  0.00000000000E+00 0.  1.
         12    1    4    4    0    0 -0.30115567700E+01 -0.94630993370E+00 -0.33735234479E+02  0.33882606482E+02  0.00000000000E+00 0. -1.
        -11    1    3    3    0    0  0.27954567322E+02  0.86652467001E+01  0.24217979439E+02  0.37987561947E+02  0.00000000000E+00 0. -1.
         11    1    3    3    0    0 -0.71281643542E+02 -0.61582662960E+00  0.19058033684E+02  0.73787943435E+02  0.00000000000E+00 0.  1.
         21    1    1    2  502  501 -0.20999441887E+02 -0.15573422089E+02  0.16878840630E+02  0.31119178912E+02  0.00000000000E+00 0.  1.
<scales pt_clust_5="13000.00000" pt_clust_6="13000.00000" pt_clust_7="13000.00000" pt_clust_8="13000.00000" pt_clust_9="26.14399"></scales>
<clustering>
<clus scale="   26.144">  1  9  2 -1</clus>
<clus scale="   78.587">  5  6 -1 -1</clus>
<clus scale="   93.161">  7  8 -1 -1</clus>
<clus scale="   97.035">  2  5  1 -1</clus>
<clus scale="   97.035">  2  5  1 -1</clus>
</clustering>
</event>
<event>
 9    2  0.2869112E-005  0.1956572E+03  0.7546771E-02  0.1154480E+00
          2   -1    0    0  502    0  0.00000000000E+00  0.00000000000E+00  0.20583004201E+03  0.20583004201E+03  0.00000000000E+00 0. -1.
         -1   -1    0    0    0  501 -0.00000000000E+00 -0.00000000000E+00 -0.40333387100E+03  0.40333387100E+03  0.00000000000E+00 0.  1.
         24    2    1    2    0    0  0.16841294876E+03 -0.78109530233E+02 -0.28582715256E+03  0.35050915679E+03  0.81825960647E+02 0.  0.
         23    2    1    2    0    0 -0.14848450494E+03  0.83595148916E+02  0.11470166861E+03  0.22514278861E+03  0.92179202382E+02 0.  0.
        -13    1    3    3    0    0  0.12086191972E+03 -0.89222078355E+02 -0.24230814663E+03  0.28509896672E+03  0.00000000000E+00 0.  1.
         14    1    3    3    0    0  0.47551029036E+02  0.11112548121E+02 -0.43519005929E+02  0.65410190071E+02  0.00000000000E+00 0. -1.
        -13    1    4    4    0    0 -0.46777510144E+02  0.38819395671E+02 -0.59915209390E+01  0.61081742434E+02  0.00000000000E+00 0.  1.
         13    1    4    4    0    0 -0.10170699479E+03  0.44775753245E+02  0.12069318955E+03  0.16406104617E+03  0.00000000000E+00 0. -1.
         21    1    1    2  502  501 -0.19928443821E+02 -0.54856186828E+01 -0.26378345042E+02  0.33511967603E+02  0.00000000000E+00 0.  1.
<scales pt_clust_5="13000.00000" pt_clust_6="13000.00000" pt_clust_7="13000.00000" pt_clust_8="13000.00000" pt_clust_9="20.66966"></scales>
<clustering>
<clus scale="   20.670">  2  9  1 -1</clus>
<clus scale="   81.826">  5  6 -1 -1</clus>
<clus scale="   92.179">  7  8 -1 -1</clus>
<clus scale="  190.998">  2  5  1 -1</clus>
<clus scale="  195.657">  1  5  2 -1</clus>
</clustering>
</event>
<event>
 9    2  0.2869112E-005  0.1112965E+03  0.7546771E-02  0.1263860E+00
         -1   -1    0    0    0  501 -0.00000000000E+00  0.00000000000E+00  0.17983817200E+03  0.17983817200E+03  0.00000000000E+00 0.  1.
          2   -1    0    0  502    0  0.00000000000E+00 -0.00000000000E+00 -0.30395983603E+03  0.30395983603E+03  0.00000000000E+00 0. -1.
         24    2    1    2    0    0 -0.72349199052E+02 -0.36772009745E+02  0.63416250977E+02  0.12902349236E+03  0.77710059757E+02 0.  0.
         23    2    1    2    0    0  0.43405609404E+02  0.41996151224E+02 -0.25682926399E+03  0.27949959236E+03  0.92255230949E+02 0.  0.
        -13    1    3    3    0    0 -0.88119897873E+02 -0.28663428708E+02  0.61435303915E+02  0.11118005718E+03  0.00000000000E+00 0.  1.
         14    1    3    3    0    0  0.15770698821E+02 -0.81085810368E+01  0.19809470621E+01  0.17843435180E+02  0.00000000000E+00 0. -1.
        -13    1    4    4    0    0 -0.27968476500E+02  0.21635965212E+02 -0.97995813537E+02  0.10418027711E+03  0.00000000000E+00 0.  1.
         13    1    4    4    0    0  0.71374085904E+02  0.20360186012E+02 -0.15883345046E+03  0.17531931524E+03  0.00000000000E+00 0. -1.
         21    1    1    2  502  501  0.28943589648E+02 -0.52241414791E+01  0.69291348992E+02  0.75274923321E+02  0.00000000000E+00 0. -1.
<scales pt_clust_5="13000.00000" pt_clust_6="13000.00000" pt_clust_7="13000.00000" pt_clust_8="13000.00000" pt_clust_9="29.41127"></scales>
<clustering>
<clus scale="   29.411">  1  9  2 -1</clus>
<clus scale="   77.710">  5  6 -1 -1</clus>
<clus scale="   92.255">  7  8 -1 -1</clus>
<clus scale="   99.573">  1  5  2 -1</clus>
<clus scale="  111.297">  2  5  1 -1</clus>
</clustering>
</event>
<event>
 9    2  0.2869112E-005  0.1042650E+03  0.7546771E-02  0.1276062E+00
         -1   -1    0    0    0  501 -0.00000000000E+00  0.00000000000E+00  0.33349937223E+03  0.33349937223E+03  0.00000000000E+00 0.  1.
          2   -1    0    0  502    0  0.00000000000E+00 -0.00000000000E+00 -0.13684133818E+03  0.13684133818E+03  0.00000000000E+00 0. -1.
         24    2    1    2    0    0  0.36314419002E+02 -0.43848107762E+02  0.13617392135E+03  0.16830196916E+03  0.80875350911E+02 0.  0.
         23    2    1    2    0    0 -0.95920915814E+00  0.51806753993E+02 -0.95644146096E+02  0.14175972169E+03  0.90901904111E+02 0.  0.
        -11    1    3    3    0    0  0.10513727697E+02  0.17667914688E+02  0.75085097467E+02  0.77848991909E+02  0.00000000000E+00 0.  1.
         12    1    3    3    0    0  0.25800691305E+02 -0.61516022451E+02  0.61088823881E+02  0.90452977249E+02  0.00000000000E+00 0. -1.
        -13    1    4    4    0    0 -0.17709969129E+02  0.27993024275E+02  0.80222719262E+01  0.34082389316E+02  0.00000000000E+00 0.  1.
         13    1    4    4    0    0  0.16750759970E+02  0.23813729718E+02 -0.10366641802E+03  0.10767733238E+03  0.00000000000E+00 0. -1.
         21    1    1    2  502  501 -0.35355209844E+02 -0.79586462309E+01  0.15612825880E+03  0.16027901955E+03  0.00000000000E+00 0.  1.
<scales pt_clust_5="13000.00000" pt_clust_6="13000.00000" pt_clust_7="13000.00000" pt_clust_8="13000.00000" pt_clust_9="36.23991"></scales>
<clustering>
<clus scale="   36.240">  1  9  2 -1</clus>
<clus scale="   80.875">  5  6 -1 -1</clus>
<clus scale="   90.902">  7  8 -1 -1</clus>
<clus scale="   95.650">  1  5  2 -1</clus>
<clus scale="  104.265">  2  5  1 -1</clus>
</clustering>
</event>
<event>
 9    2  0.2869112E-005  0.1148219E+03  0.7546771E-02  0.1264660E+00
         -1   -1    0    0    0  501 -0.00000000000E+00  0.00000000000E+00  0.12771348100E+03  0.12771348100E+03  0.00000000000E+00 0.  1.
          2   -1    0    0  502    0  0.00000000000E+00 -0.00000000000E+00 -0.24878236470E+03  0.24878236470E+03  0.00000000000E+00 0. -1.
         23    2    1    2    0    0  0.41135315894E+01 -0.10347632056E+01  0.72914356995E+01  0.10678162404E+03  0.10644791365E+03 0.  0.
         24    2    1    2    0    0  0.52367641896E+02  0.78847308842E+01 -0.17319471155E+03  0.19727688506E+03  0.78212673983E+02 0.  0.
        -11    1    4    4    0    0 -0.86441289910E+01  0.23974663369E+02 -0.22853112351E+02  0.34231129017E+02  0.00000000000E+00 0.  1.
         12    1    4    4    0    0  0.61011770887E+02 -0.16089932485E+02 -0.15034159920E+03  0.16304575604E+03  0.00000000000E+00 0. -1.
        -11    1    3    3    0    0  0.27898597679E+02 -0.45970415246E+02  0.13821739664E+02  0.55521629278E+02  0.00000000000E+00 0.  1.
         11    1    3    3    0    0 -0.23785066090E+02  0.44935652040E+02 -0.65303039646E+01  0.51259994763E+02  0.00000000000E+00 0. -1.
         21    1    1    2  502  501 -0.56481173486E+02 -0.68499676786E+01  0.44834392147E+02  0.72437336607E+02  0.00000000000E+00 0.  1.
<scales pt_clust_5="13000.00000" pt_clust_6="13000.00000" pt_clust_7="13000.00000" pt_clust_8="13000.00000" pt_clust_9="56.89504"></scales>
<clustering>
<clus scale="   56.895">  1  9  2 -1</clus>
<clus scale="   78.213">  5  6 -1 -1</clus>
<clus scale="   89.276">  2  5  1 -1</clus>
<clus scale="  106.448">  7  8 -1 -1</clus>
<clus scale="   89.276">  2  5  1 -1</clus>
</clustering>
</event>
<event>
 9    2  0.2869112E-005  0.2173054E+03  0.7546771E-02  0.1136606E+00
         -1   -1    0    0    0  501 -0.00000000000E+00  0.00000000000E+00  0.31622330983E+03  0.31622330983E+03  0.00000000000E+00 0.  1.
          2   -1    0    0  502    0  0.00000000000E+00 -0.00000000000E+00 -0.24870639042E+03  0.24870639042E+03  0.00000000000E+00 0. -1.
         24    2    1    2    0    0 -0.20660109193E+03  0.39448506034E+01  0.18407355254E+03  0.28857006052E+03  0.81792628343E+02 0.  0.
         23    2    1    2    0    0  0.19358778018E+03 -0.25166331090E+02 -0.12627394766E+03  0.24963654637E+03  0.90905019504E+02 0.  0.
        -11    1    3    3    0    0 -0.13169206803E+03  0.30594948449E+02  0.15037113623E+03  0.20221357587E+03  0.00000000000E+00 0.  1.
         12    1    3    3    0    0 -0.74909023897E+02 -0.26650097846E+02  0.33702416302E+02  0.86356484650E+02  0.00000000000E+00 0. -1.
        -11    1    4    4    0    0  0.14130739295E+03  0.23012421714E+02 -0.95933548360E+02  0.17233861018E+03  0.00000000000E+00 0. -1.
         11    1    4    4    0    0  0.52280387223E+02 -0.48178752804E+02 -0.30340399301E+02  0.77297936193E+02  0.00000000000E+00 0.  1.
         21    1    1    2  502  501  0.13013311757E+02  0.21221480486E+02  0.97173145376E+01  0.26723093360E+02  0.00000000000E+00 0.  1.
<scales pt_clust_5="13000.00000" pt_clust_6="13000.00000" pt_clust_7="13000.00000" pt_clust_8="13000.00000" pt_clust_9="24.89372"></scales>
<clustering>
<clus scale="   24.894">  1  9  2 -1</clus>
<clus scale="   81.793">  5  6 -1 -1</clus>
<clus scale="   90.905">  7  8 -1 -1</clus>
<clus scale="  213.654">  1  5  2 -1</clus>
<clus scale="  217.305">  2  5  1 -1</clus>
</clustering>
</event>
<event>
 9    2  0.2869112E-005  0.9516762E+02  0.7546771E-02  0.1295042E+00
          2   -1    0    0  502    0  0.00000000000E+00  0.00000000000E+00  0.15200838875E+03  0.15200838875E+03  0.00000000000E+00 0. -1.
         -1   -1    0    0    0  501 -0.00000000000E+00 -0.00000000000E+00 -0.21749527138E+03  0.21749527138E+03  0.00000000000E+00 0.  1.
         23    2    1    2    0    0 -0.12872890345E+02 -0.23914629075E+02 -0.10145008211E+03  0.13932495382E+03  0.91551640111E+02 0.  0.
         24    2    1    2    0    0 -0.10938648048E+02  0.24699103077E+02  0.11652648238E+03  0.14616652081E+03  0.84003160616E+02 0.  0.
        -11    1    4    4    0    0 -0.34433140521E+02  0.22284867701E+02  0.17899377581E+02  0.44750912978E+02  0.00000000000E+00 0.  1.
         12    1    4    4    0    0  0.23494492473E+02  0.24142353766E+01  0.98627104803E+02  0.10141560783E+03  0.00000000000E+00 0. -1.
        -11    1    3    3    0    0  0.28136392572E+02  0.14651474150E+02 -0.64808075970E+02  0.72155450194E+02  0.00000000000E+00 0. -1.
         11    1    3    3    0    0 -0.41009282918E+02 -0.38566103225E+02 -0.36642006144E+02  0.67169503628E+02  0.00000000000E+00 0.  1.
         21    1    1    2  502  501  0.23811538393E+02 -0.78447400278E+00 -0.80563282902E+02  0.84012185497E+02  0.00000000000E+00 0.  1.
<scales pt_clust_5="13000.00000" pt_clust_6="13000.00000" pt_clust_7="13000.00000" pt_clust_8="13000.00000" pt_clust_9="23.82446"></scales>
<clustering>
<clus scale="   23.824">  2  9  1 -1</clus>
<clus scale="   84.003">  5  6 -1 -1</clus>
<clus scale="   87.930">  1  5  2 -1</clus>
<clus scale="   91.552">  7  8 -1 -1</clus>
<clus scale="   87.930">  1  5  2 -1</clus>
</clustering>
</event>
<event>
 9    2  0.2869112E-005  0.2678642E+03  0.7546771E-02  0.1123590E+00
         -1   -1    0    0    0  501 -0.00000000000E+00  0.00000000000E+00  0.71655722373E+03  0.71655722373E+03  0.00000000000E+00 0.  1.
          2   -1    0    0  502    0  0.00000000000E+00 -0.00000000000E+00 -0.55627090026E+03  0.55627090026E+03  0.00000000000E+00 0. -1.
         24    2    1    2    0    0 -0.24635922463E+03 -0.21907490909E+03 -0.33921838263E+03  0.47973018467E+03  0.79907794487E+02 0.  0.
         23    2    1    2    0    0  0.11560837147E+02  0.12735772837E+03 -0.68765957992E+02  0.17142771189E+03  0.91132099145E+02 0.  0.
        -11    1    3    3    0    0 -0.27648466583E+02 -0.86223025187E+01 -0.71167401435E+01  0.29823309598E+02  0.00000000000E+00 0.  1.
         12    1    3    3    0    0 -0.21871075805E+03 -0.21045260657E+03 -0.33210164248E+03  0.44990687507E+03  0.00000000000E+00 0. -1.
        -11    1    4    4    0    0 -0.67201071443E+01  0.63857292913E+02  0.13798864321E+02  0.65675888687E+02  0.00000000000E+00 0. -1.
         11    1    4    4    0    0  0.18280944292E+02  0.63500435456E+02 -0.82564822314E+02  0.10575182320E+03  0.00000000000E+00 0.  1.
         21    1    1    2  502  501  0.23479838749E+03  0.91717180715E+02  0.56827066409E+03  0.62167022743E+03  0.00000000000E+00 0.  1.
<scales pt_clust_5="13000.00000" pt_clust_6="13000.00000" pt_clust_7="13000.00000" pt_clust_8="13000.00000" pt_clust_9="255.66773"></scales>
<clustering>
<clus scale="   79.908">  5  6 -1 -1</clus>
<clus scale="   91.132">  7  8 -1 -1</clus>
<clus scale="  157.031">  2  7  1 -1</clus>
<clus scale="  255.668">  1  9  2 -1</clus>
<clus scale="  157.031">  2  5  1 -1</clus>
</clustering>
</event>
<event>
 9    2  0.2869112E-005  0.1015616E+03  0.7546771E-02  0.1280400E+00
          2   -1    0    0  502    0  0.00000000000E+00  0.00000000000E+00  0.39497387503E+03  0.39497387503E+03  0.00000000000E+00 0. -1.
         -1   -1    0    0    0  501 -0.00000000000E+00 -0.00000000000E+00 -0.90972625399E+02  0.90972625399E+02  0.00000000000E+00 0.  1.
         24    2    1    2    0    0  0.14594539401E+02  0.15550488911E+02 -0.22533828110E+02  0.89109551291E+02  0.83533947808E+02 0.  0.
         23    2    1    2    0    0 -0.49608105054E+02  0.98625751018E+01  0.33674840124E+03  0.35238376501E+03  0.90645450145E+02 0.  0.
        -13    1    3    3    0    0 -0.27910587719E+01 -0.30935235152E+02 -0.24316546879E+02  0.39447094127E+02  0.00000000000E+00 0.  1.
         14    1    3    3    0    0  0.17385598173E+02  0.46485724062E+02  0.17827187683E+01  0.49662457164E+02  0.00000000000E+00 0. -1.
        -13    1    4    4    0    0 -0.59578101420E+02  0.39325015650E+02  0.25862532333E+03  0.26829659874E+03  0.00000000000E+00 0. -1.
         13    1    4    4    0    0  0.99699963651E+01 -0.29462440548E+02  0.78123077904E+02  0.84087166273E+02  0.00000000000E+00 0.  1.
         21    1    1    2  502  501  0.35013565654E+02 -0.25413064012E+02 -0.10213323496E+02  0.44453184128E+02  0.00000000000E+00 0.  1.
<scales pt_clust_5="13000.00000" pt_clust_6="13000.00000" pt_clust_7="13000.00000" pt_clust_8="13000.00000" pt_clust_9="43.26400"></scales>
<clustering>
<clus scale="   43.264">  2  9  1 -1</clus>
<clus scale="   83.534">  5  6 -1 -1</clus>
<clus scale="   90.645">  7  8 -1 -1</clus>
<clus scale="   95.268">  2  5  1 -1</clus>
<clus scale="  101.562">  1  5  2 -1</clus>
</clustering>
</event>
<event>
 9    2  0.2869112E-005  0.9722955E+02  0.7546771E-02  0.1292411E+00
          2   -1    0    0  502    0  0.00000000000E+00  0.00000000000E+00  0.65292087948E+03  0.65292087948E+03  0.00000000000E+00 0. -1.
         -1   -1    0    0    0  501 -0.00000000000E+00 -0.00000000000E+00 -0.22822065007E+02  0.22822065007E+02  0.00000000000E+00 0.  1.
         24    2    1    2    0    0 -0.16068512574E+02 -0.18920799342E+02  0.23645855987E+03  0.25078542848E+03  0.79777734082E+02 0.  0.
         23    2    1    2    0    0  0.10762153994E+02  0.41776591437E+02  0.38789117784E+03  0.40079977279E+03  0.91212852565E+02 0.  0.
        -11    1    3    3    0    0  0.21452923121E+01 -0.25429144664E+02  0.17428459423E+02  0.30902991365E+02  0.00000000000E+00 0.  1.
         12    1    3    3    0    0 -0.18213804886E+02  0.65083453224E+01  0.21903010045E+03  0.21988243711E+03  0.00000000000E+00 0. -1.
        -13    1    4    4    0    0  0.25493749969E+00  0.62649884947E+02  0.35480046695E+03  0.36028938983E+03  0.00000000000E+00 0. -1.
         13    1    4    4    0    0  0.10507216494E+02 -0.20873293510E+02  0.33090710893E+02  0.40510382963E+02  0.00000000000E+00 0.  1.
         21    1    1    2  502  501  0.53063585799E+01 -0.22855792095E+02  0.57490767570E+01  0.24157743215E+02  0.00000000000E+00 0.  1.
<scales pt_clust_5="13000.00000" pt_clust_6="13000.00000" pt_clust_7="13000.00000" pt_clust_8="13000.00000" pt_clust_9="23.46369"></scales>
<clustering>
<clus scale="   23.464">  2  9  1 -1</clus>
<clus scale="   79.778">  5  6 -1 -1</clus>
<clus scale="   86.593">  2  5  1 -1</clus>
<clus scale="   91.213">  7  8 -1 -1</clus>
<clus scale="   97.230">  1  5  2 -1</clus>
</clustering>
</event>
<event>
 9    2  0.2869112E-005  0.1098413E+03  0.7546771E-02  0.1264237E+00
         -1   -1    0    0    0  501 -0.00000000000E+00  0.00000000000E+00  0.19884475151E+03  0.19884475151E+03  0.00000000000E+00 0.  1.
          2   -1    0    0  502    0  0.00000000000E+00 -0.00000000000E+00 -0.35373159232E+03  0.35373159232E+03  0.00000000000E+00 0. -1.
         23    2    1    2    0    0  0.21854874359E+02  0.11000993707E+02  0.11711991588E+03  0.14912021199E+03  0.89000592873E+02 0.  0.
         24    2    1    2    0    0 -0.66921198354E+02  0.46490611701E+01 -0.31948285669E+03  0.33615176461E+03  0.80178878625E+02 0.  0.
        -13    1    4    4    0    0 -0.35073264533E+02 -0.25345630321E+02 -0.65998688879E+02  0.78919970826E+02  0.00000000000E+00 0.  1.
         14    1    4    4    0    0 -0.31847933820E+02  0.29994691491E+02 -0.25348416781E+03  0.25723179379E+03  0.00000000000E+00 0. -1.
        -11    1    3    3    0    0 -0.18310300502E+02  0.15691378098E+02 -0.11366340335E+01  0.24140803384E+02  0.00000000000E+00 0. -1.
         11    1    3    3    0    0  0.40165174861E+02 -0.46903843909E+01  0.11825654992E+03  0.12497940861E+03  0.00000000000E+00 0.  1.
         21    1    1    2  502  501  0.45066323995E+02 -0.15650054877E+02  0.47476099993E+02  0.67304367218E+02  0.00000000000E+00 0. -1.
<scales pt_clust_5="13000.00000" pt_clust_6="13000.00000" pt_clust_7="13000.00000" pt_clust_8="13000.00000" pt_clust_9="47.70637"></scales>
<clustering>
<clus scale="   47.706">  1  9  2 -1</clus>
<clus scale="   80.179">  5  6 -1 -1</clus>
<clus scale="   89.001">  7  8 -1 -1</clus>
<clus scale="  102.823">  2  5  1 -1</clus>
<clus scale="  102.823">  2  5  1 -1</clus>
</clustering>
</event>
<event>
 9    2  0.2869112E-005  0.1278686E+03  0.7546771E-02  0.1234428E+00
          2   -1    0    0  502    0  0.00000000000E+00  0.00000000000E+00  0.41598944323E+03  0.41598944323E+03  0.00000000000E+00 0. -1.
         -1   -1    0    0    0  501 -0.00000000000E+00 -0.00000000000E+00 -0.77058285600E+02  0.77058285600E+02  0.00000000000E+00 0.  1.
         23    2    1    2    0    0 -0.74277984552E+02  0.17656796715E+02  0.19471861196E+02  0.12115586923E+03  0.92035915878E+02 0.  0.
         24    2    1    2    0    0  0.84290036436E+02 -0.35797543450E+02  0.32805035486E+03  0.34946120735E+03  0.78229315230E+02 0.  0.
        -11    1    4    4    0    0  0.25070446300E+02 -0.22706939656E+02  0.29714881634E+02  0.45023400324E+02  0.00000000000E+00 0.  1.
         12    1    4    4    0    0  0.59219590136E+02 -0.13090603794E+02  0.29833547323E+03  0.30443780703E+03  0.00000000000E+00 0. -1.
        -11    1    3    3    0    0 -0.95301639936E+02  0.22622966814E+02  0.16971197538E+02  0.99409369517E+02  0.00000000000E+00 0.  1.
         11    1    3    3    0    0  0.21023655384E+02 -0.49661700983E+01  0.25006636577E+01  0.21746499715E+02  0.00000000000E+00 0. -1.
         21    1    1    2  502  501 -0.10012051884E+02  0.18140746735E+02 -0.85910584296E+01  0.22430652241E+02  0.00000000000E+00 0.  1.
<scales pt_clust_5="13000.00000" pt_clust_6="13000.00000" pt_clust_7="13000.00000" pt_clust_8="13000.00000" pt_clust_9="20.72023"></scales>
<clustering>
<clus scale="   20.720">  2  9  1 -1</clus>
<clus scale="   78.229">  5  6 -1 -1</clus>
<clus scale="   92.036">  7  8 -1 -1</clus>
<clus scale="  118.320">  1  5  2 -1</clus>
<clus scale="  118.320">  1  5  2 -1</clus>
</clustering>
</event>
<event>
 9    2  0.2869112E-005  0.1711658E+03  0.7546771E-02  0.1177878E+00
         -1   -1    0    0    0  501 -0.00000000000E+00  0.00000000000E+00  0.25790195324E+03  0.25790195324E+03  0.00000000000E+00 0.  1.
          2   -1    0    0  502    0  0.00000000000E+00 -0.00000000000E+00 -0.62525773762E+03  0.62525773762E+03  0.00000000000E+00 0. -1.
         23    2    1    2    0    0 -0.61511904072E+02 -0.14850751435E+03  0.43677262286E+02  0.18902647600E+03  0.89359438377E+02 0.  0.
         24    2    1    2    0    0  0.68767566771E+02  0.12709065073E+03 -0.53923431899E+03  0.56395298243E+03  0.79926865741E+02 0.  0.
        -11    1    4    4    0    0 -0.41026413111E-02  0.58211672375E+02 -0.11745879358E+03  0.13109220803E+03  0.00000000000E+00 0.  1.
         12    1    4    4    0    0  0.68771669412E+02  0.68878978356E+02 -0.42177552541E+03  0.43286077440E+03  0.00000000000E+00 0. -1.
        -13    1    3    3    0    0  0.79477296593E-01 -0.67595831854E+02 -0.18186826599E+02  0.69999739017E+02  0.00000000000E+00 0.  1.
         13    1    3    3    0    0 -0.61591381368E+02 -0.80911682497E+02  0.61864088885E+02  0.11902673698E+03  0.00000000000E+00 0. -1.
         21    1    1    2  502  501 -0.72556626988E+01  0.21416863619E+02  0.12820127232E+03  0.13018023242E+03  0.00000000000E+00 0. -1.
<scales pt_clust_5="13000.00000" pt_clust_6="13000.00000" pt_clust_7="13000.00000" pt_clust_8="13000.00000" pt_clust_9="22.61253"></scales>
<clustering>
<clus scale="   22.613">  1  9  2 -1</clus>
<clus scale="   79.927">  5  6 -1 -1</clus>
<clus scale="   89.359">  7  8 -1 -1</clus>
<clus scale="  166.436">  2  5  1 -1</clus>
<clus scale="  166.436">  2  5  1 -1</clus>
</clustering>
</event>
<event>
 9    2  0.2869112E-005  0.1431676E+03  0.7546771E-02  0.1209892E+00
          2   -1    0    0  502    0  0.00000000000E+00  0.00000000000E+00  0.75465318318E+03  0.75465318318E+03  0.00000000000E+00 0. -1.
         -1   -1    0    0    0  501 -0.00000000000E+00 -0.00000000000E+00 -0.33748940797E+02  0.33748940797E+02  0.00000000000E+00 0.  1.
         23    2    1    2    0    0 -0.96929241070E+02 -0.82773127991E+02  0.32269188478E+03  0.35769921160E+03  0.87017268322E+02 0.  0.
         24    2    1    2    0    0  0.88612278738E+02  0.55466757193E+02  0.35065865803E+03  0.37523973457E+03  0.83154475862E+02 0.  0.
        -11    1    4    4    0    0  0.73461980078E+02  0.31448947664E+02  0.33147257517E+03  0.34096886503E+03  0.00000000000E+00 0.  1.
         12    1    4    4    0    0  0.15150298660E+02  0.24017809529E+02  0.19186082853E+02  0.34270869544E+02  0.00000000000E+00 0. -1.
        -13    1    3    3    0    0 -0.38928195991E+02 -0.31565653276E+02  0.23702069346E+03  0.24226143737E+03  0.00000000000E+00 0. -1.
         13    1    3    3    0    0 -0.58001045079E+02 -0.51207474715E+02  0.85671191322E+02  0.11543777423E+03  0.00000000000E+00 0.  1.
         21    1    1    2  502  501  0.83169623325E+01  0.27306370798E+02  0.47553699580E+02  0.55463177806E+02  0.00000000000E+00 0. -1.
<scales pt_clust_5="13000.00000" pt_clust_6="13000.00000" pt_clust_7="13000.00000" pt_clust_8="13000.00000" pt_clust_9="28.54487"></scales>
<clustering>
<clus scale="   28.545">  2  9  1 -1</clus>
<clus scale="   83.154">  5  6 -1 -1</clus>
<clus scale="   87.017">  7  8 -1 -1</clus>
<clus scale="  140.853">  1  5  2 -1</clus>
<clus scale="  140.853">  1  5  2 -1</clus>
</clustering>
</event>
<event>
 9    2  0.2869112E-005  0.1064741E+03  0.7546771E-02  0.1268305E+00
         -1   -1    0    0    0  501 -0.00000000000E+00  0.00000000000E+00  0.24489340329E+02  0.24489340329E+02  0.00000000000E+00 0.  1.
          2   -1    0    0  502    0  0.00000000000E+00 -0.00000000000E+00 -0.12245112433E+04  0.12245112433E+04  0.00000000000E+00 0. -1.
         24    2    1    2    0    0  0.16514377886E+02  0.38149473201E+02 -0.23491901536E+03  0.25191372387E+03  0.80904100735E+02 0.  0.
         23    2    1    2    0    0  0.10892896110E+02 -0.12043529985E+03 -0.39448309718E+03  0.41991352256E+03  0.78020098911E+02 0.  0.
        -13    1    3    3    0    0  0.47754029081E+02  0.97795980574E+01 -0.12363175367E+03  0.13289431269E+03  0.00000000000E+00 0.  1.
         14    1    3    3    0    0 -0.31239651195E+02  0.28369875144E+02 -0.11128726169E+03  0.11901941118E+03  0.00000000000E+00 0. -1.
        -13    1    4    4    0    0  0.39239291284E+01 -0.63965551506E+02 -0.91968266690E+02  0.11209438468E+03  0.00000000000E+00 0.  1.
         13    1    4    4    0    0  0.69689669811E+01 -0.56469748345E+02 -0.30251483049E+03  0.30781913788E+03  0.00000000000E+00 0. -1.
         21    1    1    2  502  501 -0.27407273996E+02  0.82285826650E+02 -0.57061979042E+03  0.57717333718E+03  0.00000000000E+00 0. -1.
<scales pt_clust_5="13000.00000" pt_clust_6="13000.00000" pt_clust_7="13000.00000" pt_clust_8="13000.00000" pt_clust_9="86.73013"></scales>
<clustering>
<clus scale="   78.020">  7  8 -1 -1</clus>
<clus scale="   80.904">  5  6 -1 -1</clus>
<clus scale="   86.730">  2  9  1 -1</clus>
<clus scale="  104.300">  2  7  1 -1</clus>
<clus scale="   86.730">  2  5  1 -1</clus>
</clustering>
</event>
<event>
 9    2  0.2869112E-005  0.1013582E+03  0.7546771E-02  0.1283675E+00
          2   -1    0    0  502    0  0.00000000000E+00  0.00000000000E+00  0.26323525067E+03  0.26323525067E+03  0.00000000000E+00 0. -1.
         -1   -1    0    0    0  501 -0.00000000000E+00 -0.00000000000E+00 -0.12973783717E+03  0.12973783717E+03  0.00000000000E+00 0.  1.
         24    2    1    2    0    0 -0.56004551120E+02  0.31701264349E+02 -0.72236433304E+02  0.12562722608E+03  0.80141236124E+02 0.  0.
         23    2    1    2    0    0  0.33555700395E+02 -0.18909622073E+02  0.21706541626E+03  0.23913271807E+03  0.92647196825E+02 0.  0.
        -11    1    3    3    0    0 -0.16556310525E+02  0.39651362667E+02 -0.73753130095E+02  0.85357285444E+02  0.00000000000E+00 0.  1.
         12    1    3    3    0    0 -0.39448240595E+02 -0.79500983174E+01  0.15166967913E+01  0.40269940632E+02  0.00000000000E+00 0. -1.
        -11    1    4    4    0    0  0.26259503138E+00  0.35975630673E+02  0.84628545748E+02  0.91958173720E+02  0.00000000000E+00 0.  1.
         11    1    4    4    0    0  0.33293105364E+02 -0.54885252746E+02  0.13243687051E+03  0.14717454435E+03  0.00000000000E+00 0. -1.
         21    1    1    2  502  501  0.22448850725E+02 -0.12791642276E+02 -0.11331569456E+02  0.28213143698E+02  0.00000000000E+00 0.  1.
<scales pt_clust_5="13000.00000" pt_clust_6="13000.00000" pt_clust_7="13000.00000" pt_clust_8="13000.00000" pt_clust_9="25.83751"></scales>
<clustering>
<clus scale="   25.838">  2  9  1 -1</clus>
<clus scale="   80.141">  5  6 -1 -1</clus>
<clus scale="   90.070">  2  5  1 -1</clus>
<clus scale="   92.647">  7  8 -1 -1</clus>
<clus scale="  101.358">  1  5  2 -1</clus>
</clustering>
</event>
<event>
 9    2  0.2869112E-005  0.8517828E+02  0.7546771E-02  0.1317896E+00
         -1   -1    0    0    0  501 -0.00000000000E+00  0.00000000000E+00  0.15072841276E+02  0.15072841276E+02  0.00000000000E+00 0.  1.
          2   -1    0    0  502    0  0.00000000000E+00 -0.00000000000E+00 -0.71944913874E+03  0.71944913874E+03  0.00000000000E+00 0. -1.
         24    2    1    2    0    0 -0.14225780643E+02  0.36207903396E+01 -0.32537718132E+03  0.33555114344E+03  0.80676990434E+02 0.  0.
         23    2    1    2    0    0 -0.62971915910E+01 -0.17657128295E+01 -0.36298491471E+03  0.37287316715E+03  0.85050444481E+02 0.  0.
        -13    1    3    3    0    0  0.25216363219E+02  0.15598337134E+02 -0.59298480415E+02  0.66298437952E+02  0.00000000000E+00 0.  1.
         14    1    3    3    0    0 -0.39442143862E+02 -0.11977546795E+02 -0.26607870090E+03  0.26925270549E+03  0.00000000000E+00 0. -1.
        -11    1    4    4    0    0 -0.18688908318E+02 -0.38298734607E+02 -0.13256914988E+03  0.13925030652E+03  0.00000000000E+00 0.  1.
         11    1    4    4    0    0  0.12391716727E+02  0.36533021778E+02 -0.23041576484E+03  0.23362286063E+03  0.00000000000E+00 0. -1.
         21    1    1    2  502  501  0.20522972234E+02 -0.18550775102E+01 -0.16014201434E+02  0.26097669425E+02  0.00000000000E+00 0.  1.
<scales pt_clust_5="13000.00000" pt_clust_6="13000.00000" pt_clust_7="13000.00000" pt_clust_8="13000.00000" pt_clust_9="20.60664"></scales>
<clustering>
<clus scale="   20.607">  1  9  2 -1</clus>
<clus scale="   80.677">  5  6 -1 -1</clus>
<clus scale="   80.812">  1  5  2 -1</clus>
<clus scale="   85.050">  7  8 -1 -1</clus>
<clus scale="   85.178">  2  5  1 -1</clus>
</clustering>
</event>
<event>
 9    2  0.2869112E-005  0.1407406E+03  0.7546771E-02  0.1214489E+00
          2   -1    0    0  502    0  0.00000000000E+00  0.00000000000E+00  0.19030084625E+03  0.19030084625E+03  0.00000000000E+00 0. -1.
         -1   -1    0    0    0  501 -0.00000000000E+00 -0.00000000000E+00 -0.30304923980E+03  0.30304923980E+03  0.00000000000E+00 0.  1.
         23    2    1    2    0    0 -0.80334450460E+02  0.52160535113E+01 -0.12463046517E+03  0.17362302278E+03  0.90174109624E+02 0.  0.
         24    2    1    2    0    0  0.11327978660E+03  0.95834814130E+01  0.13357422143E+03  0.19278849256E+03  0.80007356306E+02 0.  0.
        -11    1    4    4    0    0  0.62809358747E+02 -0.87422372963E+01  0.18908798431E+02  0.66173899063E+02  0.00000000000E+00 0.  1.
         12    1    4    4    0    0  0.50470427856E+02  0.18325718709E+02  0.11466542300E+03  0.12661459349E+03  0.00000000000E+00 0. -1.
        -13    1    3    3    0    0 -0.65762629070E+02 -0.10901980746E+02 -0.13422815350E+03  0.14986918882E+03  0.00000000000E+00 0.  1.
         13    1    3    3    0    0 -0.14571821390E+02  0.16118034257E+02  0.95976883219E+01  0.23753833965E+02  0.00000000000E+00 0. -1.
         21    1    1    2  502  501 -0.32945336142E+02 -0.14799534924E+02 -0.12169214981E+03  0.12693857071E+03  0.00000000000E+00 0.  1.
<scales pt_clust_5="13000.00000" pt_clust_6="13000.00000" pt_clust_7="13000.00000" pt_clust_8="13000.00000" pt_clust_9="36.11677"></scales>
<clustering>
<clus scale="   36.117">  2  9  1 -1</clus>
<clus scale="   80.007">  5  6 -1 -1</clus>
<clus scale="   90.174">  7  8 -1 -1</clus>
<clus scale="  134.453">  1  5  2 -1</clus>
<clus scale="  134.453">  1  5  2 -1</clus>
</clustering>
</event>
<event>
 9    2  0.2869112E-005  0.9695356E+02  0.7546771E-02  0.1289780E+00
         -1   -1    0    0    0  501 -0.00000000000E+00  0.00000000000E+00  0.51485986145E+02  0.51485986145E+02  0.00000000000E+00 0.  1.
          2   -1    0    0  502    0  0.00000000000E+00 -0.00000000000E+00 -0.48172382332E+03  0.48172382332E+03  0.00000000000E+00 0. -1.
         23    2    1    2    0    0 -0.70976458207E+00 -0.18823711533E+02 -0.97780200301E+02  0.13409178898E+03  0.89804256133E+02 0.  0.
         24    2    1    2    0    0 -0.31986467971E+01  0.42469747797E+02 -0.35433274608E+03  0.36666912045E+03  0.84146527737E+02 0.  0.
        -11    1    4    4    0    0  0.17559990676E+02  0.41789491172E+02 -0.83240173801E+02  0.94782073090E+02  0.00000000000E+00 0.  1.
         12    1    4    4    0    0 -0.20758637474E+02  0.68025662587E+00 -0.27109257228E+03  0.27188704736E+03  0.00000000000E+00 0. -1.
        -13    1    3    3    0    0 -0.14585051065E+02  0.23963356685E+02 -0.81603410052E+02  0.86290687274E+02  0.00000000000E+00 0. -1.
         13    1    3    3    0    0  0.13875286483E+02 -0.42787068217E+02 -0.16176790250E+02  0.47801101707E+02  0.00000000000E+00 0.  1.
         21    1    1    2  502  501  0.39084113792E+01 -0.23646036265E+02  0.21875109204E+02  0.32448900031E+02  0.00000000000E+00 0.  1.
<scales pt_clust_5="13000.00000" pt_clust_6="13000.00000" pt_clust_7="13000.00000" pt_clust_8="13000.00000" pt_clust_9="23.96687"></scales>
<clustering>
<clus scale="   23.967">  1  9  2 -1</clus>
<clus scale="   84.147">  5  6 -1 -1</clus>
<clus scale="   89.804">  7  8 -1 -1</clus>
<clus scale="   91.738">  2  5  1 -1</clus>
<clus scale="   91.738">  2  5  1 -1</clus>
</clustering>
</event>
<event>
 9    2  0.2869112E-005  0.1138924E+03  0.7546771E-02  0.1257968E+00
         -1   -1    0    0    0  501 -0.00000000000E+00  0.00000000000E+00  0.60392808056E+02  0.60392808056E+02  0.00000000000E+00 0.  1.
          2   -1    0    0  502    0  0.00000000000E+00 -0.00000000000E+00 -0.32839364012E+03  0.32839364012E+03  0.00000000000E+00 0. -1.
         23    2    1    2    0    0 -0.71503992086E+02  0.21520149089E+02 -0.62880701083E+02  0.13396321405E+03  0.91739971919E+02 0.  0.
         24    2    1    2    0    0  0.55404284987E+02 -0.35416708690E+02 -0.20910787594E+03  0.23318491056E+03  0.79530627329E+02 0.  0.
        -11    1    4    4    0    0 -0.20166330114E+02 -0.10846498389E+02 -0.35348394949E+02  0.42116937484E+02  0.00000000000E+00 0.  1.
         12    1    4    4    0    0  0.75570615101E+02 -0.24570210301E+02 -0.17375948099E+03  0.19106797307E+03  0.00000000000E+00 0. -1.
        -13    1    3    3    0    0 -0.30157960840E+01  0.25497905677E+02  0.15348839341E+02  0.29913627146E+02  0.00000000000E+00 0.  1.
         13    1    3    3    0    0 -0.68488196002E+02 -0.39777565876E+01 -0.78229540424E+02  0.10404958690E+03  0.00000000000E+00 0. -1.
         21    1    1    2  502  501  0.16099707099E+02  0.13896559601E+02  0.39877449523E+01  0.21638323577E+02  0.00000000000E+00 0.  1.
<scales pt_clust_5="13000.00000" pt_clust_6="13000.00000" pt_clust_7="13000.00000" pt_clust_8="13000.00000" pt_clust_9="21.26770"></scales>
<clustering>
<clus scale="   21.268">  1  9  2 -1</clus>
<clus scale="   79.531">  5  6 -1 -1</clus>
<clus scale="   91.740">  7  8 -1 -1</clus>
<clus scale="  104.309">  2  5  1 -1</clus>
<clus scale="  104.309">  2  5  1 -1</clus>
</clustering>
</event>
<event>
 9    2  0.2869112E-005  0.1157948E+03  0.7546771E-02  0.1254418E+00
         -1   -1    0    0    0  501 -0.00000000000E+00  0.00000000000E+00  0.14074331437E+03  0.14074331437E+03  0.00000000000E+00 0.  1.
          2   -1    0    0  502    0  0.00000000000E+00 -0.00000000000E+00 -0.16312121279E+03  0.16312121279E+03  0.00000000000E+00 0. -1.
         23    2    1    2    0    0 -0.38526712024E+02 -0.53913446876E+02  0.67896380073E+02  0.13233346257E+03  0.92256488091E+02 0.  0.
         24    2    1    2    0    0  0.18352395108E+02  0.69318836936E+02 -0.97421517531E+02  0.14516039657E+03  0.80241367716E+02 0.  0.
        -13    1    4    4    0    0  0.62020800201E+01  0.54670331816E+02 -0.10290469399E+02  0.55975036739E+02  0.00000000000E+00 0.  1.
         14    1    4    4    0    0  0.12150315088E+02  0.14648505119E+02 -0.87131048132E+02  0.89185359827E+02  0.00000000000E+00 0. -1.
        -13    1    3    3    0    0 -0.12066915856E+02  0.19569150516E+02  0.45671225086E+02  0.51131427822E+02  0.00000000000E+00 0. -1.
         13    1    3    3    0    0 -0.26459796168E+02 -0.73482597393E+02  0.22225154987E+02  0.81202034747E+02  0.00000000000E+00 0.  1.
         21    1    1    2  502  501  0.20174316916E+02 -0.15405390059E+02  0.71472390413E+01  0.26370668020E+02  0.00000000000E+00 0.  1.
<scales pt_clust_5="13000.00000" pt_clust_6="13000.00000" pt_clust_7="13000.00000" pt_clust_8="13000.00000" pt_clust_9="25.38364"></scales>
<clustering>
<clus scale="   25.384">  1  9  2 -1</clus>
<clus scale="   80.241">  5  6 -1 -1</clus>
<clus scale="   92.256">  7  8 -1 -1</clus>
<clus scale="  106.470">  2  5  1 -1</clus>
<clus scale="  106.470">  2  5  1 -1</clus>
</clustering>
</event>
<event>
 9    2  0.2869112E-005  0.1000156E+03  0.7546771E-02  0.1285939E+00
         -1   -1    0    0    0  501 -0.00000000000E+00  0.00000000000E+00  0.25581581223E+03  0.25581581223E+03  0.00000000000E+00 0.  1.
          2   -1    0    0  502    0  0.00000000000E+00 -0.00000000000E+00 -0.17917113476E+03  0.17917113476E+03  0.00000000000E+00 0. -1.
         23    2    1    2    0    0 -0.98450413578E+01  0.48969651408E+02  0.16468052353E+03  0.19473888234E+03  0.91151554378E+02 0.  0.
         24    2    1    2    0    0  0.39749956500E+02 -0.14117398991E+02 -0.14269131716E+03  0.16886036284E+03  0.79835143576E+02 0.  0.
        -11    1    4    4    0    0 -0.46324088240E+01  0.24517096462E+02 -0.17338159433E+02  0.30383531773E+02  0.00000000000E+00 0.  1.
         12    1    4    4    0    0  0.44382365324E+02 -0.38634495453E+02 -0.12535315773E+03  0.13847683107E+03  0.00000000000E+00 0. -1.
        -13    1    3    3    0    0 -0.45783121387E+02  0.31291685311E+02  0.13155088032E+03  0.14276168214E+03  0.00000000000E+00 0.  1.
         13    1    3    3    0    0  0.35938080029E+02  0.17677966097E+02  0.33129643209E+02  0.51977200200E+02  0.00000000000E+00 0. -1.
         21    1    1    2  502  501 -0.29904915142E+02 -0.34852252417E+02  0.54655471102E+02  0.71387701809E+02  0.00000000000E+00 0.  1.
<scales pt_clust_5="13000.00000" pt_clust_6="13000.00000" pt_clust_7="13000.00000" pt_clust_8="13000.00000" pt_clust_9="45.92367"></scales>
<clustering>
<clus scale="   45.924">  1  9  2 -1</clus>
<clus scale="   79.835">  5  6 -1 -1</clus>
<clus scale="   89.823">  2  5  1 -1</clus>
<clus scale="   91.152">  7  8 -1 -1</clus>
<clus scale="   89.823">  2  5  1 -1</clus>
</clustering>
</event>
<event>
 9    2  0.2869112E-005  0.1023397E+03  0.7546771E-02  0.1280100E+00
         -1   -1    0    0    0  501 -0.00000000000E+00  0.00000000000E+00  0.24565404172E+02  0.24565404172E+02  0.00000000000E+00 0.  1.
          2   -1    0    0  502    0  0.00000000000E+00 -0.00000000000E+00 -0.59508550066E+03  0.59508550066E+03  0.00000000000E+00 0. -1.
         23    2    1    2    0    0  0.21721824304E+02 -0.35503403278E+02 -0.19250125511E+03  0.21687010306E+03  0.90794157771E+02 0.  0.
         24    2    1    2    0    0 -0.54332514315E+02  0.14199573272E+02 -0.29681536291E+03  0.31271796154E+03  0.80867260483E+02 0.  0.
        -13    1    4    4    0    0 -0.11038220275E+02  0.39229596079E+02 -0.19586499723E+03  0.20005974271E+03  0.00000000000E+00 0.  1.
         14    1    4    4    0    0 -0.43294294040E+02 -0.25030022807E+02 -0.10095036569E+03  0.11265821883E+03  0.00000000000E+00 0. -1.
        -11    1    3    3    0    0  0.23313242446E+02  0.47978307743E+01 -0.40410881914E+01  0.24142428362E+02  0.00000000000E+00 0.  1.
         11    1    3    3    0    0 -0.15914181419E+01 -0.40301234052E+02 -0.18846016692E+03  0.19272767469E+03  0.00000000000E+00 0. -1.
         21    1    1    2  502  501  0.32610690011E+02  0.21303830005E+02 -0.81203478465E+02  0.90062840232E+02  0.00000000000E+00 0.  1.
<scales pt_clust_5="13000.00000" pt_clust_6="13000.00000" pt_clust_7="13000.00000" pt_clust_8="13000.00000" pt_clust_9="38.95267"></scales>
<clustering>
<clus scale="   38.953">  1  9  2 -1</clus>
<clus scale="   80.867">  5  6 -1 -1</clus>
<clus scale="   90.794">  7  8 -1 -1</clus>
<clus scale="   93.645">  2  5  1 -1</clus>
<clus scale="   93.645">  2  5  1 -1</clus>
</clustering>
</event>
<event>
 9    2  0.2869112E-005  0.1031497E+03  0.7546771E-02  0.1275667E+00
          2   -1    0    0  502    0  0.00000000000E+00  0.00000000000E+00  0.39891580428E+03  0.39891580428E+03  0.00000000000E+00 0. -1.
         -1   -1    0    0    0  501 -0.00000000000E+00 -0.00000000000E+00 -0.33031094303E+03  0.33031094303E+03  0.00000000000E+00 0.  1.
         23    2    1    2    0    0 -0.31024269930E+02  0.51433509888E+02 -0.52743135185E+02  0.12190208426E+03  0.92034605299E+02 0.  0.
         24    2    1    2    0    0 -0.11784384953E+02 -0.45318891114E+02  0.35550526233E+03  0.36920789618E+03  0.87964796544E+02 0.  0.
        -13    1    4    4    0    0  0.14830965808E+02 -0.22617907650E+02  0.24919523481E+02  0.36776486290E+02  0.00000000000E+00 0.  1.
         14    1    4    4    0    0 -0.26615350761E+02 -0.22700983464E+02  0.33058573885E+03  0.33243140989E+03  0.00000000000E+00 0. -1.
        -13    1    3    3    0    0  0.88763810022E+01  0.66328465272E+02 -0.37200151852E+02  0.76564396052E+02  0.00000000000E+00 0.  1.
         13    1    3    3    0    0 -0.39900650932E+02 -0.14894955384E+02 -0.15542983334E+02  0.45337688203E+02  0.00000000000E+00 0. -1.
         21    1    1    2  502  501  0.42808654883E+02 -0.61146187737E+01 -0.23415726590E+03  0.23811676688E+03  0.00000000000E+00 0.  1.
<scales pt_clust_5="13000.00000" pt_clust_6="13000.00000" pt_clust_7="13000.00000" pt_clust_8="13000.00000" pt_clust_9="43.24314"></scales>
<clustering>
<clus scale="   43.243">  2  9  1 -1</clus>
<clus scale="   87.965">  5  6 -1 -1</clus>
<clus scale="   92.035">  7  8 -1 -1</clus>
<clus scale="   99.535">  1  5  2 -1</clus>
<clus scale="   99.535">  1  5  2 -1</clus>
</clustering>
</event>
<event>
 9    2  0.2869112E-005  0.1127673E+03  0.7546771E-02  0.1258627E+00
          2   -1    0    0  502    0  0.00000000000E+00  0.00000000000E+00  0.40619063521E+03  0.40619063521E+03  0.00000000000E+00 0. -1.
         -1   -1    0    0    0  501 -0.00000000000E+00 -0.00000000000E+00 -0.19304474440E+03  0.19304474440E+03  0.00000000000E+00 0.  1.
         23    2    1    2    0    0 -0.33553648020E+02  0.80319260441E+02 -0.61060454957E+02  0.13952762388E+03  0.90346819380E+02 0.  0.
         24    2    1    2    0    0  0.23490839890E+02 -0.61690003408E+02  0.35808222662E+03  0.37320068831E+03  0.81843733169E+02 0.  0.
        -11    1    4    4    0    0  0.22171755904E+02 -0.16970264219E+02  0.26109166463E+02  0.38226498674E+02  0.00000000000E+00 0.  1.
         12    1    4    4    0    0  0.13190839855E+01 -0.44719739189E+02  0.33197306015E+03  0.33497418964E+03  0.00000000000E+00 0. -1.
        -11    1    3    3    0    0  0.87967554293E+01  0.81341708096E+02 -0.49464560025E+02  0.95606480327E+02  0.00000000000E+00 0.  1.
         11    1    3    3    0    0 -0.42350403449E+02 -0.10224476547E+01 -0.11595894933E+02  0.43921143551E+02  0.00000000000E+00 0. -1.
         21    1    1    2  502  501  0.10062808131E+02 -0.18629257034E+02 -0.83875880853E+02  0.86507067422E+02  0.00000000000E+00 0.  1.
<scales pt_clust_5="13000.00000" pt_clust_6="13000.00000" pt_clust_7="13000.00000" pt_clust_8="13000.00000" pt_clust_9="21.17332"></scales>
<clustering>
<clus scale="   21.173">  2  9  1 -1</clus>
<clus scale="   81.844">  5  6 -1 -1</clus>
<clus scale="   90.347">  7  8 -1 -1</clus>
<clus scale="  106.077">  1  5  2 -1</clus>
<clus scale="  106.077">  1  5  2 -1</clus>
</clustering>
</event>
<event>
 9    2  0.2869112E-005  0.9623618E+02  0.7546771E-02  0.1294997E+00
         -1   -1    0    0    0  501 -0.00000000000E+00  0.00000000000E+00  0.74733061164E+01  0.74733061164E+01  0.00000000000E+00 0.  1.
          2   -1    0    0  502    0  0.00000000000E+00 -0.00000000000E+00 -0.17326410532E+04  0.17326410532E+04  0.00000000000E+00 0. -1.
         23    2    1    2    0    0 -0.23085290761E+02  0.65935351263E+01 -0.45018176187E+03  0.46015816476E+03  0.92225335547E+02 0.  0.
         24    2    1    2    0    0  0.14995750631E+02 -0.26506416566E+02 -0.11422972489E+04  0.11455379508E+04  0.80540233799E+02 0.  0.
        -13    1    4    4    0    0 -0.16155652811E+02 -0.13910228161E+02 -0.82560111174E+02  0.85268232785E+02  0.00000000000E+00 0.  1.
         14    1    4    4    0    0  0.31151403442E+02 -0.12596188405E+02 -0.10597371377E+04  0.10602697180E+04  0.00000000000E+00 0. -1.
        -13    1    3    3    0    0 -0.26999459695E+02  0.46490451517E+02 -0.29644871918E+03  0.30128421135E+03  0.00000000000E+00 0.  1.
         13    1    3    3    0    0  0.39141689335E+01 -0.39896916391E+02 -0.15373304270E+03  0.15887395341E+03  0.00000000000E+00 0. -1.
         21    1    1    2  502  501  0.80895401298E+01  0.19912881440E+02 -0.13268873639E+03  0.13441824382E+03  0.00000000000E+00 0.  1.
<scales pt_clust_5="13000.00000" pt_clust_6="13000.00000" pt_clust_7="13000.00000" pt_clust_8="13000.00000" pt_clust_9="21.49334"></scales>
<clustering>
<clus scale="   21.493">  1  9  2 -1</clus>
<clus scale="   80.540">  5  6 -1 -1</clus>
<clus scale="   85.104">  2  5  1 -1</clus>
<clus scale="   92.225">  7  8 -1 -1</clus>
<clus scale="   85.104">  2  5  1 -1</clus>
</clustering>
</event>
<event>
 9    2  0.2869112E-005  0.1074224E+03  0.7546771E-02  0.1268022E+00
          2   -1    0    0  502    0  0.00000000000E+00  0.00000000000E+00  0.20787932928E+03  0.20787932928E+03  0.00000000000E+00 0. -1.
         -1   -1    0    0    0  501 -0.00000000000E+00 -0.00000000000E+00 -0.94578649764E+02  0.94578649764E+02  0.00000000000E+00 0.  1.
         23    2    1    2    0    0  0.48979672994E+02 -0.30750280012E+02 -0.15847430608E+02  0.10537126110E+03  0.86645100970E+02 0.  0.
         24    2    1    2    0    0 -0.55574234972E+02  0.61747553062E+02  0.11326524958E+03  0.16163838309E+03  0.79979336243E+02 0.  0.
        -11    1    4    4    0    0  0.95554307256E+01  0.36621940061E+02  0.14148791362E+02  0.40406200604E+02  0.00000000000E+00 0.  1.
         12    1    4    4    0    0 -0.65129665698E+02  0.25125613000E+02  0.99116458215E+02  0.12123218249E+03  0.00000000000E+00 0. -1.
        -11    1    3    3    0    0  0.61374073267E+02 -0.49063835679E+02 -0.23429914970E+02  0.81993888530E+02  0.00000000000E+00 0.  1.
         11    1    3    3    0    0 -0.12394400273E+02  0.18313555667E+02  0.75824843620E+01  0.23377372572E+02  0.00000000000E+00 0. -1.
         21    1    1    2  502  501  0.65945619783E+01 -0.30997273050E+02  0.15882860548E+02  0.35448334846E+02  0.00000000000E+00 0. -1.
<scales pt_clust_5="13000.00000" pt_clust_6="13000.00000" pt_clust_7="13000.00000" pt_clust_8="13000.00000" pt_clust_9="31.69100"></scales>
<clustering>
<clus scale="   31.691">  1  9  2 -1</clus>
<clus scale="   79.979">  5  6 -1 -1</clus>
<clus scale="   86.645">  7  8 -1 -1</clus>
<clus scale="  102.122">  1  5  2 -1</clus>
<clus scale="   31.691">  1  5  2 -1</clus>
</clustering>
</event>
<event>
 9    2  0.2869112E-005  0.1343512E+03  0.7546771E-02  0.1227063E+00
         -1   -1    0    0    0  501 -0.00000000000E+00  0.00000000000E+00  0.11554101934E+03  0.11554101934E+03  0.00000000000E+00 0.  1.
          2   -1    0    0  502    0  0.00000000000E+00 -0.00000000000E+00 -0.50555387741E+03  0.50555387741E+03  0.00000000000E+00 0. -1.
         23    2    1    2    0    0  0.41910714208E+02  0.27238298937E+02  0.45951820692E+01  0.10983418907E+03  0.97693400472E+02 0.  0.
         24    2    1    2    0    0 -0.82686774202E+02 -0.53789345748E+02 -0.43232436592E+03  0.44969638045E+03  0.74780217150E+02 0.  0.
        -13    1    4    4    0    0  0.12841903103E+02 -0.16153635345E+02 -0.88145957310E+02  0.90529355461E+02  0.00000000000E+00 0.  1.
         14    1    4    4    0    0 -0.95528677306E+02 -0.37635710403E+02 -0.34417840861E+03  0.35916702499E+03  0.00000000000E+00 0. -1.
        -13    1    3    3    0    0  0.92604903023E+01 -0.27596976742E+02 -0.26027045161E+02  0.39048135496E+02  0.00000000000E+00 0. -1.
         13    1    3    3    0    0  0.32650223906E+02  0.54835275678E+02  0.30622227230E+02  0.70786053572E+02  0.00000000000E+00 0.  1.
         21    1    1    2  502  501  0.40776059994E+02  0.26551046811E+02  0.37716325789E+02  0.61564327223E+02  0.00000000000E+00 0.  1.
<scales pt_clust_5="13000.00000" pt_clust_6="13000.00000" pt_clust_7="13000.00000" pt_clust_8="13000.00000" pt_clust_9="48.65845"></scales>
<clustering>
<clus scale="   48.658">  1  9  2 -1</clus>
<clus scale="   74.780">  5  6 -1 -1</clus>
<clus scale="   97.693">  7  8 -1 -1</clus>
<clus scale="  118.736">  2  5  1 -1</clus>
<clus scale="  118.736">  2  5  1 -1</clus>
</clustering>
</event>
<event>
 9    2  0.2869112E-005  0.1047687E+03  0.7546771E-02  0.1275527E+00
          2   -1    0    0  502    0  0.00000000000E+00  0.00000000000E+00  0.30698379912E+03  0.30698379912E+03  0.00000000000E+00 0. -1.
         -1   -1    0    0    0  501 -0.00000000000E+00 -0.00000000000E+00 -0.22140911802E+03  0.22140911802E+03  0.00000000000E+00 0.  1.
         24    2    1    2    0    0 -0.15097760596E+02 -0.63861135414E+02 -0.17207376715E+02  0.10537965039E+03  0.80638637833E+02 0.  0.
         23    2    1    2    0    0  0.40435186870E+02  0.29974309202E+02  0.24938205133E+03  0.27042932179E+03  0.91690495736E+02 0.  0.
        -11    1    3    3    0    0  0.17090307457E+02 -0.61170562414E+02 -0.30492922940E+02  0.70453776793E+02  0.00000000000E+00 0.  1.
         12    1    3    3    0    0 -0.32188068053E+02 -0.26905730002E+01  0.13285546225E+02  0.34925873597E+02  0.00000000000E+00 0. -1.
        -13    1    4    4    0    0  0.65619918260E+02  0.34790642328E+02  0.21549102302E+03  0.22793144467E+03  0.00000000000E+00 0.  1.
         13    1    4    4    0    0 -0.25184731390E+02 -0.48163331256E+01  0.33891028314E+02  0.42497877125E+02  0.00000000000E+00 0. -1.
         21    1    1    2  502  501 -0.25337426274E+02  0.33886826212E+02 -0.14659999351E+03  0.15258394496E+03  0.00000000000E+00 0.  1.
<scales pt_clust_5="13000.00000" pt_clust_6="13000.00000" pt_clust_7="13000.00000" pt_clust_8="13000.00000" pt_clust_9="42.31196"></scales>
<clustering>
<clus scale="   42.312">  2  9  1 -1</clus>
<clus scale="   80.639">  5  6 -1 -1</clus>
<clus scale="   91.690">  7  8 -1 -1</clus>
<clus scale="   95.247">  2  5  1 -1</clus>
<clus scale="  104.769">  1  5  2 -1</clus>
</clustering>
</event>
<event>
 9    2  0.2869112E-005  0.9576151E+02  0.7546771E-02  0.1295980E+00
         -1   -1    0    0    0  501 -0.00000000000E+00  0.00000000000E+00  0.31589535052E+03  0.31589535052E+03  0.00000000000E+00 0.  1.
          2   -1    0    0  502    0  0.00000000000E+00 -0.00000000000E+00 -0.44082282943E+02  0.44082282943E+02  0.00000000000E+00 0. -1.
         23    2    1    2    0    0 -0.93677979932E+01  0.17002338643E+02  0.21381282674E+03  0.23380193816E+03  0.92577460806E+02 0.  0.
         24    2    1    2    0    0  0.28834755302E+02 -0.26339843967E+02  0.50669033611E+02  0.10337442271E+03  0.81201538227E+02 0.  0.
        -13    1    4    4    0    0  0.33617340499E+02  0.13579088965E+02 -0.29278200744E+01  0.36374295454E+02  0.00000000000E+00 0.  1.
         14    1    4    4    0    0 -0.47825851974E+01 -0.39918932933E+02  0.53596853685E+02  0.67000127258E+02  0.00000000000E+00 0. -1.
        -13    1    3    3    0    0 -0.21940004312E+02 -0.34342526937E+02  0.76745250636E+02  0.86894225590E+02  0.00000000000E+00 0. -1.
         13    1    3    3    0    0  0.12572206318E+02  0.51344865580E+02  0.13706757610E+03  0.14690771257E+03  0.00000000000E+00 0.  1.
         21    1    1    2  502  501 -0.19466957309E+02  0.93375053244E+01  0.73312072279E+01  0.22801272595E+02  0.00000000000E+00 0. -1.
<scales pt_clust_5="13000.00000" pt_clust_6="13000.00000" pt_clust_7="13000.00000" pt_clust_8="13000.00000" pt_clust_9="21.59054"></scales>
<clustering>
<clus scale="   21.591">  2  9  1 -1</clus>
<clus scale="   81.202">  5  6 -1 -1</clus>
<clus scale="   84.814">  2  5  1 -1</clus>
<clus scale="   92.577">  7  8 -1 -1</clus>
<clus scale="   21.591">  2  5  1 -1</clus>
</clustering>
</event>
<event>
 9    2  0.2869112E-005  0.1251676E+03  0.7546771E-02  0.1238846E+00
          4   -1    0    0  502    0  0.00000000000E+00  0.00000000000E+00  0.50648278637E+03  0.50648278637E+03  0.00000000000E+00 0. -1.
         -3   -1    0    0    0  501 -0.00000000000E+00 -0.00000000000E+00 -0.41783827270E+02  0.41783827270E+02  0.00000000000E+00 0.  1.
         23    2    1    2    0    0  0.54409330283E+01  0.83082861391E+02  0.10932973583E+03  0.16673640894E+03  0.94422843202E+02 0.  0.
         24    2    1    2    0    0 -0.26378536851E+02 -0.77174043726E+02  0.32029667858E+03  0.34025817094E+03  0.80833163688E+02 0.  0.
        -11    1    4    4    0    0 -0.70864562691E+01 -0.34316786110E+02  0.29843781957E+02  0.46027285309E+02  0.00000000000E+00 0.  1.
         12    1    4    4    0    0 -0.19292080582E+02 -0.42857257616E+02  0.29045289663E+03  0.29423088564E+03  0.00000000000E+00 0. -1.
        -11    1    3    3    0    0 -0.41084957733E+02  0.49516292693E+02  0.36327182890E+02  0.73888437598E+02  0.00000000000E+00 0.  1.
         11    1    3    3    0    0  0.46525890761E+02  0.33566568697E+02  0.73002552943E+02  0.92847971337E+02  0.00000000000E+00 0. -1.
         21    1    1    2  502  501  0.20937603823E+02 -0.59088176649E+01  0.35072544681E+02  0.41272033757E+02  0.00000000000E+00 0. -1.
<scales pt_clust_5="13000.00000" pt_clust_6="13000.00000" pt_clust_7="13000.00000" pt_clust_8="13000.00000" pt_clust_9="21.75540"></scales>
<clustering>
<clus scale="   21.755">  1  9  2 -1</clus>
<clus scale="   80.833">  5  6 -1 -1</clus>
<clus scale="   94.423">  7  8 -1 -1</clus>
<clus scale="  115.262">  1  5  2 -1</clus>
<clus scale="   21.755">  1  5  2 -1</clus>
</clustering>
</event>
<event>
 9    2  0.2869112E-005  0.1133536E+03  0.7546771E-02  0.1266952E+00
         -1   -1    0    0    0  501 -0.00000000000E+00  0.00000000000E+00  0.65812587936E+02  0.65812587936E+02  0.00000000000E+00 0.  1.
          2   -1    0    0  502    0  0.00000000000E+00 -0.00000000000E+00 -0.27913639279E+03  0.27913639279E+03  0.00000000000E+00 0. -1.
         23    2    1    2    0    0 -0.34603775962E+02  0.38315365090E+02 -0.50485875162E+02  0.12945017675E+03  0.10743852268E+03 0.  0.
         24    2    1    2    0    0 -0.16650352285E+02 -0.26254169974E+02 -0.11701787925E+03  0.14569955533E+03  0.81047274389E+02 0.  0.
        -13    1    4    4    0    0  0.52995443668E+01  0.20216691924E+02 -0.36363086708E+01  0.21213734786E+02  0.00000000000E+00 0.  1.
         14    1    4    4    0    0 -0.21949896652E+02 -0.46470861897E+02 -0.11338157058E+03  0.12448582054E+03  0.00000000000E+00 0. -1.
        -11    1    3    3    0    0  0.74347146043E+01  0.32100567997E+02  0.25985965399E+02  0.41964173347E+02  0.00000000000E+00 0.  1.
         11    1    3    3    0    0 -0.42038490566E+02  0.62147970925E+01 -0.76471840561E+02  0.87486003399E+02  0.00000000000E+00 0. -1.
         21    1    1    2  502  501  0.51254128247E+02 -0.12061195116E+02 -0.45820050440E+02  0.69799248652E+02  0.00000000000E+00 0.  1.
<scales pt_clust_5="13000.00000" pt_clust_6="13000.00000" pt_clust_7="13000.00000" pt_clust_8="13000.00000" pt_clust_9="52.65414"></scales>
<clustering>
<clus scale="   52.654">  2  9  1 -1</clus>
<clus scale="   81.047">  5  6 -1 -1</clus>
<clus scale="   88.739">  2  5  1 -1</clus>
<clus scale="  107.439">  7  8 -1 -1</clus>
<clus scale="   52.654">  2  5  1 -1</clus>
</clustering>
</event>
<event>
 9    2  0.2869112E-005  0.1246824E+03  0.7546771E-02  0.1247676E+00
         -1   -1    0    0    0  501 -0.00000000000E+00  0.00000000000E+00  0.22393893388E+02  0.22393893388E+02  0.00000000000E+00 0.  1.
          2   -1    0    0  502    0  0.00000000000E+00 -0.00000000000E+00 -0.69239815759E+03  0.69239815759E+03  0.00000000000E+00 0. -1.
         23    2    1    2    0    0  0.16484953267E+02 -0.62979912080E+02 -0.30146064009E+03  0.32805478974E+03  0.11181772906E+03 0.  0.
         24    2    1    2    0    0  0.13969365453E+01  0.46801856276E+02 -0.29099927306E+03  0.30553000878E+03  0.80471387220E+02 0.  0.
        -13    1    4    4    0    0 -0.39259202826E+02  0.27244018916E+02 -0.13965556385E+03  0.14760487149E+03  0.00000000000E+00 0.  1.
         14    1    4    4    0    0  0.40656139371E+02  0.19557837361E+02 -0.15134370921E+03  0.15792513729E+03  0.00000000000E+00 0. -1.
        -11    1    3    3    0    0 -0.39817399355E+02  0.20804541210E+00 -0.58411488906E+02  0.70692083083E+02  0.00000000000E+00 0.  1.
         11    1    3    3    0    0  0.56302352623E+02 -0.63187957492E+02 -0.24304915119E+03  0.25736270665E+03  0.00000000000E+00 0. -1.
         21    1    1    2  502  501 -0.17881889813E+02  0.16178055803E+02 -0.77544351045E+02  0.81207252459E+02  0.00000000000E+00 0.  1.
<scales pt_clust_5="13000.00000" pt_clust_6="13000.00000" pt_clust_7="13000.00000" pt_clust_8="13000.00000" pt_clust_9="24.11413"></scales>
<clustering>
<clus scale="   24.114">  2  9  1 -1</clus>
<clus scale="   80.471">  5  6 -1 -1</clus>
<clus scale="   97.561">  2  5  1 -1</clus>
<clus scale="  111.818">  7  8 -1 -1</clus>
<clus scale="   24.114">  2  5  1 -1</clus>
</clustering>
</event>
<event>
 9    2  0.6309601E-005  0.1517550E+03  0.7546771E-02  0.1201813E+00
         -1   -1    0    0    0  501 -0.00000000000E+00  0.00000000000E+00  0.22488674398E+03  0.22488674398E+03  0.00000000000E+00 0.  1.
          2   -1    0    0  502    0  0.00000000000E+00 -0.00000000000E+00 -0.67104595335E+03  0.67104595335E+03  0.00000000000E+00 0. -1.
         24    2    1    2    0    0 -0.28620755696E+01 -0.11537140490E+03  0.15547054855E+03  0.20611385076E+03  0.70661697298E+02 0.  0.
         23    2    1    2    0    0  0.25066754236E+02  0.11948061332E+03 -0.63308633784E+03  0.65109611720E+03  0.90685630337E+02 0.  0.
        -11    1    3    3    0    0  0.57021990472E+00 -0.12350919406E+03  0.13074647731E+03  0.17985963276E+03  0.00000000000E+00 0.  1.
         12    1    3    3    0    0 -0.34322954743E+01  0.81377891510E+01  0.24724071243E+02  0.26254218010E+02  0.00000000000E+00 0. -1.
        -11    1    4    4    0    0  0.51372454714E+02  0.37757079264E+02 -0.32911318586E+03  0.33523158449E+03  0.00000000000E+00 0. -1.
         11    1    4    4    0    0 -0.26305700478E+02  0.81723534060E+02 -0.30397315199E+03  0.31586453271E+03  0.00000000000E+00 0.  1.
         21    1    1    2  502  501 -0.22204678667E+02 -0.41092084196E+01  0.31456579928E+02  0.38722729363E+02  0.00000000000E+00 0.  1.
<scales pt_clust_5="13000.00000" pt_clust_6="13000.00000" pt_clust_7="13000.00000" pt_clust_8="13000.00000" pt_clust_9="22.58170"></scales>
<clustering>
<clus scale="   22.582">  1  9  2 -1</clus>
<clus scale="   70.662">  5  6 -1 -1</clus>
<clus scale="   90.686">  7  8 -1 -1</clus>
<clus scale="  140.708">  1  5  2 -1</clus>
<clus scale="  151.755">  2  5  1 -1</clus>
</clustering>
</event>
<event>
 9    2  0.2869112E-005  0.1151800E+03  0.7546771E-02  0.1256878E+00
          2   -1    0    0  502    0  0.00000000000E+00  0.00000000000E+00  0.61809126991E+02  0.61809126991E+02  0.00000000000E+00 0. -1.
         -1   -1    0    0    0  501 -0.00000000000E+00 -0.00000000000E+00 -0.28504653370E+03  0.28504653370E+03  0.00000000000E+00 0.  1.
         24    2    1    2    0    0 -0.84069218171E+01 -0.43510087952E+02 -0.13987744285E+03  0.17950638409E+03  0.10340715073E+03 0.  0.
         23    2    1    2    0    0 -0.19646246923E+02  0.62558766176E+02 -0.61259147734E+02  0.12687362353E+03  0.89692022625E+02 0.  0.
        -13    1    3    3    0    0 -0.80804152500E+01 -0.77793683544E+02 -0.98045153601E+02  0.12541930655E+03  0.00000000000E+00 0.  1.
         14    1    3    3    0    0 -0.32650656714E+00  0.34283595591E+02 -0.41832289250E+02  0.54087077542E+02  0.00000000000E+00 0. -1.
        -11    1    4    4    0    0 -0.51621624265E+02  0.17502857798E+02 -0.20578613291E+02  0.58263379990E+02  0.00000000000E+00 0. -1.
         11    1    4    4    0    0  0.31975377342E+02  0.45055908378E+02 -0.40680534443E+02  0.68610243539E+02  0.00000000000E+00 0.  1.
         21    1    1    2  502  501  0.28053168740E+02 -0.19048678224E+02 -0.22100816124E+02  0.40475653074E+02  0.00000000000E+00 0.  1.
<scales pt_clust_5="13000.00000" pt_clust_6="13000.00000" pt_clust_7="13000.00000" pt_clust_8="13000.00000" pt_clust_9="33.90918"></scales>
<clustering>
<clus scale="   33.909">  1  9  2 -1</clus>
<clus scale="   89.692">  7  8 -1 -1</clus>
<clus scale="  103.044">  1  7  2 -1</clus>
<clus scale="  103.407">  5  6 -1 -1</clus>
<clus scale="   33.909">  1  5  2 -1</clus>
</clustering>
</event>
<event>
 9    2  0.2869112E-005  0.9983622E+02  0.7546771E-02  0.1285505E+00
          2   -1    0    0  502    0  0.00000000000E+00  0.00000000000E+00  0.24545977142E+03  0.24545977142E+03  0.00000000000E+00 0. -1.
         -1   -1    0    0    0  501 -0.00000000000E+00 -0.00000000000E+00 -0.81267959884E+02  0.81267959884E+02  0.00000000000E+00 0.  1.
         24    2    1    2    0    0  0.52063001328E+01 -0.71108284542E+01  0.12460545034E+02  0.84331081195E+02  0.82938511143E+02 0.  0.
         23    2    1    2    0    0 -0.41365843710E+02 -0.38103148255E+02  0.14934518618E+03  0.18445262832E+03  0.92497592001E+02 0.  0.
        -13    1    3    3    0    0  0.31548837621E+02  0.21422573837E+02  0.22424296585E+02  0.44239178364E+02  0.00000000000E+00 0.  1.
         14    1    3    3    0    0 -0.26342537488E+02 -0.28533402291E+02 -0.99637515506E+01  0.40091902830E+02  0.00000000000E+00 0. -1.
        -13    1    4    4    0    0 -0.11701767044E+02 -0.42029578317E+02  0.13970549610E+02  0.45810403424E+02  0.00000000000E+00 0.  1.
         13    1    4    4    0    0 -0.29664076666E+02  0.39264300620E+01  0.13537463657E+03  0.13864222490E+03  0.00000000000E+00 0. -1.
         21    1    1    2  502  501  0.36159543578E+02  0.45213976709E+02  0.23860803190E+01  0.57944021787E+02  0.00000000000E+00 0.  1.
<scales pt_clust_5="13000.00000" pt_clust_6="13000.00000" pt_clust_7="13000.00000" pt_clust_8="13000.00000" pt_clust_9="57.89487"></scales>
<clustering>
<clus scale="   57.895">  2  9  1 -1</clus>
<clus scale="   82.939">  5  6 -1 -1</clus>
<clus scale="   91.051">  2  5  1 -1</clus>
<clus scale="   92.498">  7  8 -1 -1</clus>
<clus scale="   99.836">  1  5  2 -1</clus>
</clustering>
</event>
<event>
 9    2  0.2869112E-005  0.9584745E+02  0.7546771E-02  0.1294708E+00
          2   -1    0    0  502    0  0.00000000000E+00  0.00000000000E+00  0.64160779431E+02  0.64160779431E+02  0.00000000000E+00 0. -1.
         -1   -1    0    0    0  501 -0.00000000000E+00 -0.00000000000E+00 -0.25743867445E+03  0.25743867445E+03  0.00000000000E+00 0.  1.
         23    2    1    2    0    0 -0.11444425145E+02  0.28003178460E+02 -0.15779107677E+03  0.18509258392E+03  0.91902599764E+02 0.  0.
         24    2    1    2    0    0  0.29914995967E+02 -0.21150913379E+01  0.17512167762E+01  0.87537223301E+02  0.82221153653E+02 0.  0.
        -13    1    4    4    0    0  0.38543663804E+02  0.10265656202E+02 -0.31628038494E+02  0.50905113060E+02  0.00000000000E+00 0.  1.
         14    1    4    4    0    0 -0.86286678372E+01 -0.12380747540E+02  0.33379255271E+02  0.36632110241E+02  0.00000000000E+00 0. -1.
        -13    1    3    3    0    0  0.28273555462E+02  0.16181507389E+02 -0.14014695509E+02  0.35463316399E+02  0.00000000000E+00 0. -1.
         13    1    3    3    0    0 -0.39717980607E+02  0.11821671072E+02 -0.14377638126E+03  0.14962926752E+03  0.00000000000E+00 0.  1.
         21    1    1    2  502  501 -0.18470570822E+02 -0.25888087122E+02 -0.37238035018E+02  0.48969646653E+02  0.00000000000E+00 0. -1.
<scales pt_clust_5="13000.00000" pt_clust_6="13000.00000" pt_clust_7="13000.00000" pt_clust_8="13000.00000" pt_clust_9="31.80181"></scales>
<clustering>
<clus scale="   31.802">  2  9  1 -1</clus>
<clus scale="   82.221">  5  6 -1 -1</clus>
<clus scale="   86.608">  1  5  2 -1</clus>
<clus scale="   91.903">  7  8 -1 -1</clus>
<clus scale="   86.608">  1  5  2 -1</clus>
</clustering>
</event>
<event>
 9    2  0.2869112E-005  0.5207952E+03  0.7546771E-02  0.1008753E+00
         -1   -1    0    0    0  501 -0.00000000000E+00  0.00000000000E+00  0.37734071616E+03  0.37734071616E+03  0.00000000000E+00 0.  1.
          2   -1    0    0  502    0  0.00000000000E+00 -0.00000000000E+00 -0.20923776987E+04  0.20923776987E+04  0.00000000000E+00 0. -1.
         23    2    1    2    0    0 -0.37003402900E+03  0.26949308641E+03 -0.11687534309E+03  0.48150994590E+03  0.92953084574E+02 0.  0.
         24    2    1    2    0    0  0.53823875558E+03 -0.40807752230E+02 -0.16147610197E+04  0.17038401311E+04  0.65205912796E+02 0.  0.
        -13    1    4    4    0    0  0.18932683061E+03 -0.41732172364E+02 -0.62509726915E+03  0.65447140419E+03  0.00000000000E+00 0.  1.
         14    1    4    4    0    0  0.34891192497E+03  0.92442013377E+00 -0.98966375054E+03  0.10493687269E+04  0.00000000000E+00 0. -1.
        -13    1    3    3    0    0 -0.24369513936E+03  0.20983681151E+03 -0.11576574616E+03  0.34179016428E+03  0.00000000000E+00 0.  1.
         13    1    3    3    0    0 -0.12633888964E+03  0.59656274904E+02 -0.11095969361E+01  0.13971978162E+03  0.00000000000E+00 0. -1.
         21    1    1    2  502  501 -0.16820472657E+03 -0.22868533418E+03  0.16599380285E+02  0.28436833779E+03  0.00000000000E+00 0.  1.
<scales pt_clust_5="13000.00000" pt_clust_6="13000.00000" pt_clust_7="13000.00000" pt_clust_8="13000.00000" pt_clust_9="283.88345"></scales>
<clustering>
<clus scale="   65.206">  5  6 -1 -1</clus>
<clus scale="   92.953">  7  8 -1 -1</clus>
<clus scale="  283.883">  1  9  2 -1</clus>
<clus scale="  516.565">  2  5  1 -1</clus>
<clus scale="  516.565">  2  5  1 -1</clus>
</clustering>
</event>
<event>
 9    2  0.2869112E-005  0.1561459E+03  0.7546771E-02  0.1195810E+00
         -1   -1    0    0    0  501 -0.00000000000E+00  0.00000000000E+00  0.11811850077E+03  0.11811850077E+03  0.00000000000E+00 0.  1.
          2   -1    0    0  502    0  0.00000000000E+00 -0.00000000000E+00 -0.49066580018E+03  0.49066580018E+03  0.00000000000E+00 0. -1.
         24    2    1    2    0    0  0.86755918718E+02 -0.11052384868E+03  0.19312287979E+02  0.16229005044E+03  0.78885901438E+02 0.  0.
         23    2    1    2    0    0 -0.56100571032E+02  0.10828621783E+03 -0.38532100336E+03  0.41506957207E+03  0.94537267713E+02 0.  0.
        -11    1    3    3    0    0  0.65455940571E+02 -0.11124000462E+03  0.37355245539E+02  0.13436604167E+03  0.00000000000E+00 0.  1.
         12    1    3    3    0    0  0.21299978147E+02  0.71615594313E+00 -0.18042957560E+02  0.27924008772E+02  0.00000000000E+00 0. -1.
        -13    1    4    4    0    0 -0.31079186474E+02  0.86875846387E+02 -0.36475475958E+03  0.37624375497E+03  0.00000000000E+00 0. -1.
         13    1    4    4    0    0 -0.25021384557E+02  0.21410371441E+02 -0.20566243783E+02  0.38825817104E+02  0.00000000000E+00 0.  1.
         21    1    1    2  502  501 -0.30655347686E+02  0.22376308533E+01 -0.65385840173E+01  0.31424678432E+02  0.00000000000E+00 0. -1.
<scales pt_clust_5="13000.00000" pt_clust_6="13000.00000" pt_clust_7="13000.00000" pt_clust_8="13000.00000" pt_clust_9="30.73691"></scales>
<clustering>
<clus scale="   30.737">  1  9  2 -1</clus>
<clus scale="   78.886">  5  6 -1 -1</clus>
<clus scale="   94.537">  7  8 -1 -1</clus>
<clus scale="  147.198">  1  5  2 -1</clus>
<clus scale="  156.146">  2  5  1 -1</clus>
</clustering>
</event>
<event>
 9    2  0.2869112E-005  0.9948991E+02  0.7546771E-02  0.1286506E+00
          2   -1    0    0  502    0  0.00000000000E+00  0.00000000000E+00  0.36664507760E+03  0.36664507760E+03  0.00000000000E+00 0. -1.
         -1   -1    0    0    0  501 -0.00000000000E+00 -0.00000000000E+00 -0.23276975318E+03  0.23276975318E+03  0.00000000000E+00 0.  1.
         23    2    1    2    0    0  0.48587368641E+02  0.43061293751E+02 -0.18622204176E+03  0.21728477805E+03  0.91208653780E+02 0.  0.
         24    2    1    2    0    0 -0.10642925108E+02 -0.37812087043E+02  0.33040175878E+03  0.34246249076E+03  0.81069165465E+02 0.  0.
        -13    1    4    4    0    0 -0.11383158779E+02  0.24842263813E+02  0.93065913048E+02  0.96994734633E+02  0.00000000000E+00 0.  1.
         14    1    4    4    0    0  0.74023367041E+00 -0.62654350856E+02  0.23733584573E+03  0.24546775612E+03  0.00000000000E+00 0. -1.
        -11    1    3    3    0    0  0.74657993672E+02  0.38823254657E+02 -0.15517204257E+03  0.17652032154E+03  0.00000000000E+00 0.  1.
         11    1    3    3    0    0 -0.26070625031E+02  0.42380390946E+01 -0.31049999182E+02  0.40764456504E+02  0.00000000000E+00 0. -1.
         21    1    1    2  502  501 -0.37944443533E+02 -0.52492067086E+01 -0.10304392605E+02  0.39667561975E+02  0.00000000000E+00 0. -1.
<scales pt_clust_5="13000.00000" pt_clust_6="13000.00000" pt_clust_7="13000.00000" pt_clust_8="13000.00000" pt_clust_9="38.30581"></scales>
<clustering>
<clus scale="   38.306">  2  9  1 -1</clus>
<clus scale="   81.069">  5  6 -1 -1</clus>
<clus scale="   90.285">  1  5  2 -1</clus>
<clus scale="   91.209">  7  8 -1 -1</clus>
<clus scale="   90.285">  1  5  2 -1</clus>
</clustering>
</event>
<event>
 9    2  0.2869112E-005  0.1483615E+03  0.7546771E-02  0.1204663E+00
         -1   -1    0    0    0  501 -0.00000000000E+00  0.00000000000E+00  0.69952770707E+02  0.69952770707E+02  0.00000000000E+00 0.  1.
          2   -1    0    0  502    0  0.00000000000E+00 -0.00000000000E+00 -0.47862890022E+03  0.47862890022E+03  0.00000000000E+00 0. -1.
         23    2    1    2    0    0  0.11340975286E+03 -0.69238298689E+02 -0.90859056741E+02  0.18537992144E+03  0.91949078464E+02 0.  0.
         24    2    1    2    0    0 -0.83028544067E+02  0.74580130286E+02 -0.29258324033E+03  0.32334827646E+03  0.80580521243E+02 0.  0.
        -11    1    4    4    0    0 -0.14296891769E+02 -0.17232519580E+02 -0.37655123728E+02  0.43809464597E+02  0.00000000000E+00 0.  1.
         12    1    4    4    0    0 -0.68731652298E+02  0.91812649866E+02 -0.25492811660E+03  0.27953881186E+03  0.00000000000E+00 0. -1.
        -13    1    3    3    0    0  0.17738095810E+02  0.18841129963E+02 -0.35773025964E+02  0.44151303581E+02  0.00000000000E+00 0. -1.
         13    1    3    3    0    0  0.95671657055E+02 -0.88079428652E+02 -0.55086030777E+02  0.14122861786E+03  0.00000000000E+00 0.  1.
         21    1    1    2  502  501 -0.30381208798E+02 -0.53418315968E+01 -0.25233832445E+02  0.39853473032E+02  0.00000000000E+00 0.  1.
<scales pt_clust_5="13000.00000" pt_clust_6="13000.00000" pt_clust_7="13000.00000" pt_clust_8="13000.00000" pt_clust_9="30.84725"></scales>
<clustering>
<clus scale="   30.847">  1  9  2 -1</clus>
<clus scale="   80.581">  5  6 -1 -1</clus>
<clus scale="   91.949">  7  8 -1 -1</clus>
<clus scale="  141.597">  2  5  1 -1</clus>
<clus scale="  141.597">  2  5  1 -1</clus>
</clustering>
</event>
<event>
 9    2  0.2869112E-005  0.1003207E+03  0.7546771E-02  0.1285957E+00
          2   -1    0    0  502    0  0.00000000000E+00  0.00000000000E+00  0.66901245440E+03  0.66901245440E+03  0.00000000000E+00 0. -1.
         -1   -1    0    0    0  501 -0.00000000000E+00 -0.00000000000E+00 -0.65220538013E+02  0.65220538013E+02  0.00000000000E+00 0.  1.
         23    2    1    2    0    0  0.61208509168E+01 -0.37614611567E+01  0.27083326469E+02  0.95666158335E+02  0.91470726858E+02 0.  0.
         24    2    1    2    0    0  0.45591934128E+02  0.66094446442E+01  0.57954531225E+03  0.58669805598E+03  0.78864001467E+02 0.  0.
        -13    1    4    4    0    0  0.40261882362E+02 -0.14564171644E+01  0.11154261149E+03  0.11859550793E+03  0.00000000000E+00 0.  1.
         14    1    4    4    0    0  0.53300517657E+01  0.80658618085E+01  0.46800270076E+03  0.46810254806E+03  0.00000000000E+00 0. -1.
        -13    1    3    3    0    0 -0.39491641292E+01 -0.35022303058E+02  0.45857123941E+02  0.57836263927E+02  0.00000000000E+00 0. -1.
         13    1    3    3    0    0  0.10070015046E+02  0.31260841902E+02 -0.18773797472E+02  0.37829894408E+02  0.00000000000E+00 0.  1.
         21    1    1    2  502  501 -0.51712785045E+02 -0.28479834875E+01 -0.28367223363E+01  0.51868778091E+02  0.00000000000E+00 0.  1.
<scales pt_clust_5="13000.00000" pt_clust_6="13000.00000" pt_clust_7="13000.00000" pt_clust_8="13000.00000" pt_clust_9="51.79115"></scales>
<clustering>
<clus scale="   51.791">  2  9  1 -1</clus>
<clus scale="   78.864">  5  6 -1 -1</clus>
<clus scale="   88.977">  1  5  2 -1</clus>
<clus scale="   91.471">  7  8 -1 -1</clus>
<clus scale="   88.977">  1  5  2 -1</clus>
</clustering>
</event>
<event>
 9    2  0.2869112E-005  0.1378293E+03  0.7546771E-02  0.1216332E+00
          2   -1    0    0  502    0  0.00000000000E+00  0.00000000000E+00  0.18844741806E+03  0.18844741806E+03  0.00000000000E+00 0. -1.
         -1   -1    0    0    0  501 -0.00000000000E+00 -0.00000000000E+00 -0.60262813026E+03  0.60262813026E+03  0.00000000000E+00 0.  1.
         23    2    1    2    0    0  0.87871340977E+02  0.85596032189E+01 -0.35604899227E+03  0.37676015528E+03  0.85922583389E+02 0.  0.
         24    2    1    2    0    0 -0.10275999093E+03 -0.37591269790E+02  0.14951086882E+03  0.20412511206E+03  0.85678714852E+02 0.  0.
        -13    1    4    4    0    0 -0.77873502961E+02 -0.51296074991E+02  0.61654472237E+02  0.11178928267E+03  0.00000000000E+00 0.  1.
         14    1    4    4    0    0 -0.24886487965E+02  0.13704805201E+02  0.87856396580E+02  0.92335829388E+02  0.00000000000E+00 0. -1.
        -13    1    3    3    0    0  0.64628735891E+02 -0.35203953440E+02 -0.21795513202E+03  0.23004484652E+03  0.00000000000E+00 0.  1.
         13    1    3    3    0    0  0.23242605085E+02  0.43763556659E+02 -0.13809386026E+03  0.14671530876E+03  0.00000000000E+00 0. -1.
         21    1    1    2  502  501  0.14888649949E+02  0.29031666571E+02 -0.20764258874E+03  0.21019028098E+03  0.00000000000E+00 0. -1.
<scales pt_clust_5="13000.00000" pt_clust_6="13000.00000" pt_clust_7="13000.00000" pt_clust_8="13000.00000" pt_clust_9="32.62682"></scales>
<clustering>
<clus scale="   32.627">  2  9  1 -1</clus>
<clus scale="   85.679">  5  6 -1 -1</clus>
<clus scale="   85.923">  7  8 -1 -1</clus>
<clus scale="  137.677">  1  5  2 -1</clus>
<clus scale="  137.677">  1  5  2 -1</clus>
</clustering>
</event>
<event>
 9    2  0.2869112E-005  0.1057224E+03  0.7546771E-02  0.1273286E+00
          4   -1    0    0  502    0  0.00000000000E+00  0.00000000000E+00  0.14857831306E+03  0.14857831306E+03  0.00000000000E+00 0. -1.
         -3   -1    0    0    0  501 -0.00000000000E+00 -0.00000000000E+00 -0.94766407542E+02  0.94766407542E+02  0.00000000000E+00 0.  1.
         23    2    1    2    0    0 -0.82611902416E+01  0.63796598230E+02  0.25786633474E+02  0.11440231239E+03  0.91020247226E+02 0.  0.
         24    2    1    2    0    0 -0.63380210066E+01 -0.46973891973E+02  0.42277735645E+02  0.10249863516E+03  0.80447785800E+02 0.  0.
        -13    1    4    4    0    0  0.27786710085E+01 -0.42834634403E+02 -0.14144386234E+02  0.45195028255E+02  0.00000000000E+00 0.  1.
         14    1    4    4    0    0 -0.91166920151E+01 -0.41392575696E+01  0.56422121879E+02  0.57303606901E+02  0.00000000000E+00 0. -1.
        -13    1    3    3    0    0  0.39137473247E+02  0.47021963260E+02  0.14290011014E+02  0.62825243778E+02  0.00000000000E+00 0.  1.
         13    1    3    3    0    0 -0.47398663489E+02  0.16774634970E+02  0.11496622461E+02  0.51577068615E+02  0.00000000000E+00 0. -1.
         21    1    1    2  502  501  0.14599211248E+02 -0.16822706257E+02 -0.14252463597E+02  0.26443773056E+02  0.00000000000E+00 0.  1.
<scales pt_clust_5="13000.00000" pt_clust_6="13000.00000" pt_clust_7="13000.00000" pt_clust_8="13000.00000" pt_clust_9="22.27421"></scales>
<clustering>
<clus scale="   22.274">  2  9  1 -1</clus>
<clus scale="   80.448">  5  6 -1 -1</clus>
<clus scale="   91.020">  7  8 -1 -1</clus>
<clus scale="   96.770">  1  5  2 -1</clus>
<clus scale="   96.770">  1  5  2 -1</clus>
</clustering>
</event>
<event>
 9    2  0.2869112E-005  0.1687873E+03  0.7546771E-02  0.1180750E+00
         -1   -1    0    0    0  501 -0.00000000000E+00  0.00000000000E+00  0.86594255264E+02  0.86594255264E+02  0.00000000000E+00 0.  1.
          2   -1    0    0  502    0  0.00000000000E+00 -0.00000000000E+00 -0.10706243293E+04  0.10706243293E+04  0.00000000000E+00 0. -1.
         23    2    1    2    0    0 -0.15282971440E+03 -0.78090582731E+02 -0.55077449340E+02  0.20196218468E+03  0.91105092612E+02 0.  0.
         24    2    1    2    0    0  0.12698121812E+03  0.57092414754E+02 -0.88863890878E+03  0.90296621430E+03  0.79278625078E+02 0.  0.
        -11    1    4    4    0    0  0.59307895691E+02  0.66227378300E+02 -0.41379605379E+03  0.42323830907E+03  0.00000000000E+00 0.  1.
         12    1    4    4    0    0  0.67673322428E+02 -0.91349635467E+01 -0.47484285499E+03  0.47972790524E+03  0.00000000000E+00 0. -1.
        -13    1    3    3    0    0 -0.14198412905E+03 -0.34551102616E+02 -0.57484216403E+02  0.15702772599E+03  0.00000000000E+00 0. -1.
         13    1    3    3    0    0 -0.10845585353E+02 -0.43539480115E+02  0.24067670624E+01  0.44934458693E+02  0.00000000000E+00 0.  1.
         21    1    1    2  502  501  0.25848496281E+02  0.20998167977E+02 -0.40313715955E+02  0.52290185623E+02  0.00000000000E+00 0.  1.
<scales pt_clust_5="13000.00000" pt_clust_6="13000.00000" pt_clust_7="13000.00000" pt_clust_8="13000.00000" pt_clust_9="33.30267"></scales>
<clustering>
<clus scale="   33.303">  1  9  2 -1</clus>
<clus scale="   79.279">  5  6 -1 -1</clus>
<clus scale="   91.105">  7  8 -1 -1</clus>
<clus scale="  162.709">  2  5  1 -1</clus>
<clus scale="  162.709">  2  5  1 -1</clus>
</clustering>
</event>
<event>
 9    2  0.2869112E-005  0.1570438E+03  0.7546771E-02  0.1194158E+00
         -1   -1    0    0    0  501 -0.00000000000E+00  0.00000000000E+00  0.42280365470E+02  0.42280365470E+02  0.00000000000E+00 0.  1.
          2   -1    0    0  502    0  0.00000000000E+00 -0.00000000000E+00 -0.17792566003E+04  0.17792566003E+04  0.00000000000E+00 0. -1.
         23    2    1    2    0    0  0.94736473201E+02 -0.28386001264E+02 -0.15680977986E+03  0.20727050283E+03  0.92687592811E+02 0.  0.
         24    2    1    2    0    0 -0.12826746186E+03  0.26414285893E+02 -0.15722824721E+04  0.15797646942E+04  0.80212595341E+02 0.  0.
        -11    1    4    4    0    0 -0.47856402239E+02  0.12511587928E+02 -0.24320099601E+03  0.24818037700E+03  0.00000000000E+00 0.  1.
         12    1    4    4    0    0 -0.80411059624E+02  0.13902697964E+02 -0.13290814761E+04  0.13315843172E+04  0.00000000000E+00 0. -1.
        -13    1    3    3    0    0 -0.48298975285E+01  0.19411619788E+02 -0.70919264303E+01  0.21223437832E+02  0.00000000000E+00 0. -1.
         13    1    3    3    0    0  0.99566370730E+02 -0.47797621052E+02 -0.14971785343E+03  0.18604706500E+03  0.00000000000E+00 0.  1.
         21    1    1    2  502  501  0.33530988662E+02  0.19717153718E+01 -0.78839828036E+01  0.34501768752E+02  0.00000000000E+00 0.  1.
<scales pt_clust_5="13000.00000" pt_clust_6="13000.00000" pt_clust_7="13000.00000" pt_clust_8="13000.00000" pt_clust_9="33.58891"></scales>
<clustering>
<clus scale="   33.589">  1  9  2 -1</clus>
<clus scale="   80.213">  5  6 -1 -1</clus>
<clus scale="   92.688">  7  8 -1 -1</clus>
<clus scale="  150.019">  2  5  1 -1</clus>
<clus scale="  150.019">  2  5  1 -1</clus>
</clustering>
</event>
<event>
 9    2  0.2869112E-005  0.1008570E+03  0.7546771E-02  0.1283631E+00
          2   -1    0    0  502    0  0.00000000000E+00  0.00000000000E+00  0.22712970279E+03  0.22712970279E+03  0.00000000000E+00 0. -1.
         -1   -1    0    0    0  501 -0.00000000000E+00 -0.00000000000E+00 -0.79877436811E+02  0.79877436811E+02  0.00000000000E+00 0.  1.
         23    2    1    2    0    0 -0.20700450862E+02  0.82861161403E+01 -0.42500902461E+01  0.93164008813E+02  0.90356520984E+02 0.  0.
         24    2    1    2    0    0  0.48238652512E+02 -0.16094414402E+02  0.15830779478E+03  0.18442143699E+03  0.79774123395E+02 0.  0.
        -13    1    4    4    0    0  0.18934584603E+02 -0.16688244885E+02  0.19215324285E+01  0.25312216384E+02  0.00000000000E+00 0.  1.
         14    1    4    4    0    0  0.29304067910E+02  0.59383048229E+00  0.15638626235E+03  0.15910922061E+03  0.00000000000E+00 0. -1.
        -13    1    3    3    0    0 -0.26778416220E+02  0.29318631576E+02 -0.36666449939E+02  0.54047148711E+02  0.00000000000E+00 0.  1.
         13    1    3    3    0    0  0.60779653575E+01 -0.21032515436E+02  0.32416359692E+02  0.39116860101E+02  0.00000000000E+00 0. -1.
         21    1    1    2  502  501 -0.27538201650E+02  0.78082982621E+01 -0.68054385550E+01  0.29421693796E+02  0.00000000000E+00 0.  1.
<scales pt_clust_5="13000.00000" pt_clust_6="13000.00000" pt_clust_7="13000.00000" pt_clust_8="13000.00000" pt_clust_9="28.62380"></scales>
<clustering>
<clus scale="   28.624">  2  9  1 -1</clus>
<clus scale="   79.774">  5  6 -1 -1</clus>
<clus scale="   90.357">  7  8 -1 -1</clus>
<clus scale="   91.497">  1  5  2 -1</clus>
<clus scale="   91.497">  1  5  2 -1</clus>
</clustering>
</event>
<event>
 9    2  0.2869112E-005  0.9190528E+02  0.7546771E-02  0.1304786E+00
          2   -1    0    0  502    0  0.00000000000E+00  0.00000000000E+00  0.27549885196E+03  0.27549885196E+03  0.00000000000E+00 0. -1.
         -1   -1    0    0    0  501 -0.00000000000E+00 -0.00000000000E+00 -0.86438978770E+02  0.86438978770E+02  0.00000000000E+00 0.  1.
         23    2    1    2    0    0 -0.14222628517E+02 -0.14442209379E+02 -0.11807518788E+02  0.93654040733E+02  0.90668634444E+02 0.  0.
         24    2    1    2    0    0  0.14732141153E+02 -0.56753430218E+01  0.22351635189E+03  0.23798608542E+03  0.80178374805E+02 0.  0.
        -11    1    4    4    0    0  0.10806659925E+02  0.17373295302E+02  0.92603534892E+01  0.22458170788E+02  0.00000000000E+00 0.  1.
         12    1    4    4    0    0  0.39254812279E+01 -0.23048638324E+02  0.21425599841E+03  0.21552791463E+03  0.00000000000E+00 0. -1.
        -11    1    3    3    0    0  0.15859289300E+02 -0.40030835744E+02  0.15363721754E+02  0.45716832935E+02  0.00000000000E+00 0. -1.
         11    1    3    3    0    0 -0.30081917818E+02  0.25588626365E+02 -0.27171240542E+02  0.47937207798E+02  0.00000000000E+00 0.  1.
         21    1    1    2  502  501 -0.50951263562E+00  0.20117552401E+02 -0.22648959915E+02  0.30297704582E+02  0.00000000000E+00 0.  1.
<scales pt_clust_5="13000.00000" pt_clust_6="13000.00000" pt_clust_7="13000.00000" pt_clust_8="13000.00000" pt_clust_9="20.12400"></scales>
<clustering>
<clus scale="   20.124">  2  9  1 -1</clus>
<clus scale="   80.178">  5  6 -1 -1</clus>
<clus scale="   81.574">  1  5  2 -1</clus>
<clus scale="   90.669">  7  8 -1 -1</clus>
<clus scale="   81.574">  1  5  2 -1</clus>
</clustering>
</event>
<event>
 9    2  0.2869112E-005  0.1801076E+03  0.7546771E-02  0.1168880E+00
         -1   -1    0    0    0  501 -0.00000000000E+00  0.00000000000E+00  0.46601941576E+03  0.46601941576E+03  0.00000000000E+00 0.  1.
          2   -1    0    0  502    0  0.00000000000E+00 -0.00000000000E+00 -0.22769950062E+03  0.22769950062E+03  0.00000000000E+00 0. -1.
         23    2    1    2    0    0 -0.14008984845E+03 -0.65014966312E+02  0.37126189032E+03  0.41197008780E+03  0.89620592264E+02 0.  0.
         24    2    1    2    0    0  0.13659891445E+03  0.11303950574E+03 -0.12942054452E+03  0.23346898307E+03  0.79504059181E+02 0.  0.
        -13    1    4    4    0    0  0.30564868995E+02  0.65866231265E+02 -0.77896757099E+02  0.10649167293E+03  0.00000000000E+00 0.  1.
         14    1    4    4    0    0  0.10603404545E+03  0.47173274479E+02 -0.51523787422E+02  0.12697731014E+03  0.00000000000E+00 0. -1.
        -11    1    3    3    0    0 -0.21369570642E+02  0.22421206158E+02  0.58386040428E+02  0.66093106690E+02  0.00000000000E+00 0. -1.
         11    1    3    3    0    0 -0.11872027781E+03 -0.87436172471E+02  0.31287584989E+03  0.34587698111E+03  0.00000000000E+00 0.  1.
         21    1    1    2  502  501  0.34909340018E+01 -0.48024539432E+02 -0.35214306593E+01  0.48279845503E+02  0.00000000000E+00 0. -1.
<scales pt_clust_5="13000.00000" pt_clust_6="13000.00000" pt_clust_7="13000.00000" pt_clust_8="13000.00000" pt_clust_9="48.15125"></scales>
<clustering>
<clus scale="   48.151">  2  9  1 -1</clus>
<clus scale="   79.504">  5  6 -1 -1</clus>
<clus scale="   89.621">  7  8 -1 -1</clus>
<clus scale="  175.293">  2  5  1 -1</clus>
<clus scale="   48.151">  2  5  1 -1</clus>
</clustering>
</event>
<event>
 9    2  0.2869112E-005  0.1085755E+03  0.7546771E-02  0.1268265E+00
          4   -1    0    0  502    0  0.00000000000E+00  0.00000000000E+00  0.90740605351E+02  0.90740605351E+02  0.00000000000E+00 0. -1.
         -3   -1    0    0    0  501 -0.00000000000E+00 -0.00000000000E+00 -0.30705162822E+03  0.30705162822E+03  0.00000000000E+00 0.  1.
         23    2    1    2    0    0  0.46484552855E+02 -0.67176319653E+02 -0.14113283594E+03  0.18775045781E+03  0.93049908383E+02 0.  0.
         24    2    1    2    0    0 -0.32378689755E+02  0.38785418843E+02  0.30102381403E+02  0.10009171123E+03  0.80990795932E+02 0.  0.
        -13    1    4    4    0    0 -0.29987104923E+02 -0.66721620239E+00 -0.20167496018E+02  0.36144149385E+02  0.00000000000E+00 0.  1.
         14    1    4    4    0    0 -0.23915848321E+01  0.39452635046E+02  0.50269877421E+02  0.63947561845E+02  0.00000000000E+00 0. -1.
        -13    1    3    3    0    0  0.12338729925E+02 -0.65757532103E+02 -0.33502333691E+02  0.74824485613E+02  0.00000000000E+00 0. -1.
         13    1    3    3    0    0  0.34145822929E+02 -0.14187875500E+01 -0.10763050225E+03  0.11292597220E+03  0.00000000000E+00 0.  1.
         21    1    1    2  502  501 -0.14105863099E+02  0.28390900810E+02 -0.10528056834E+03  0.10995006454E+03  0.00000000000E+00 0.  1.
<scales pt_clust_5="13000.00000" pt_clust_6="13000.00000" pt_clust_7="13000.00000" pt_clust_8="13000.00000" pt_clust_9="31.70203"></scales>
<clustering>
<clus scale="   31.702">  2  9  1 -1</clus>
<clus scale="   80.991">  5  6 -1 -1</clus>
<clus scale="   93.050">  7  8 -1 -1</clus>
<clus scale="   98.437">  1  5  2 -1</clus>
<clus scale="   98.437">  1  5  2 -1</clus>
</clustering>
</event>
<event>
 9    2  0.2869112E-005  0.9106236E+02  0.7546771E-02  0.1306376E+00
          2   -1    0    0  502    0  0.00000000000E+00  0.00000000000E+00  0.41154429538E+03  0.41154429538E+03  0.00000000000E+00 0. -1.
         -1   -1    0    0    0  501 -0.00000000000E+00 -0.00000000000E+00 -0.43577267161E+02  0.43577267161E+02  0.00000000000E+00 0.  1.
         23    2    1    2    0    0  0.29990254783E+02  0.71175312189E+01  0.96663326920E+02  0.13564725393E+03  0.90035015930E+02 0.  0.
         24    2    1    2    0    0 -0.88844150090E+01  0.16492718421E+01  0.28263733227E+03  0.29396422238E+03  0.80308464806E+02 0.  0.
        -13    1    4    4    0    0  0.49374024799E+01 -0.32740805217E+02  0.62504166053E+02  0.70732658959E+02  0.00000000000E+00 0.  1.
         14    1    4    4    0    0 -0.13821817489E+02  0.34390077059E+02  0.22013316622E+03  0.22323156342E+03  0.00000000000E+00 0. -1.
        -13    1    3    3    0    0  0.38329383183E+02 -0.34738850807E+02  0.61388376330E+02  0.80277407277E+02  0.00000000000E+00 0.  1.
         13    1    3    3    0    0 -0.83391284007E+01  0.41856382026E+02  0.35274950590E+02  0.55369846649E+02  0.00000000000E+00 0. -1.
         21    1    1    2  502  501 -0.21105839774E+02 -0.87668030609E+01 -0.11333630975E+02  0.25510086231E+02  0.00000000000E+00 0.  1.
<scales pt_clust_5="13000.00000" pt_clust_6="13000.00000" pt_clust_7="13000.00000" pt_clust_8="13000.00000" pt_clust_9="22.85417"></scales>
<clustering>
<clus scale="   22.854">  2  9  1 -1</clus>
<clus scale="   80.308">  5  6 -1 -1</clus>
<clus scale="   81.459">  1  5  2 -1</clus>
<clus scale="   90.035">  7  8 -1 -1</clus>
<clus scale="   81.459">  1  5  2 -1</clus>
</clustering>
</event>
<event>
 9    2  0.2869112E-005  0.9413056E+02  0.7546771E-02  0.1298989E+00
          2   -1    0    0  502    0  0.00000000000E+00  0.00000000000E+00  0.16553581646E+03  0.16553581646E+03  0.00000000000E+00 0. -1.
         -1   -1    0    0    0  501 -0.00000000000E+00 -0.00000000000E+00 -0.45537925886E+03  0.45537925886E+03  0.00000000000E+00 0.  1.
         23    2    1    2    0    0 -0.32876457254E+02  0.59691544134E+02 -0.20750869069E+03  0.23661675673E+03  0.91014784344E+02 0.  0.
         24    2    1    2    0    0  0.17069616870E+02 -0.13715562171E+02  0.13645283608E+03  0.16017412157E+03  0.80974590343E+02 0.  0.
        -13    1    4    4    0    0 -0.22509316020E+02  0.11129245201E+02  0.13218462695E+02  0.28377053449E+02  0.00000000000E+00 0.  1.
         14    1    4    4    0    0  0.39578932890E+02 -0.24844807371E+02  0.12323437339E+03  0.13179706813E+03  0.00000000000E+00 0. -1.
        -11    1    3    3    0    0 -0.93377834016E+01  0.35438385605E+02 -0.19820120242E+03  0.20156088413E+03  0.00000000000E+00 0.  1.
         11    1    3    3    0    0 -0.23538673853E+02  0.24253158530E+02 -0.93074882760E+01  0.35055872596E+02  0.00000000000E+00 0. -1.
         21    1    1    2  502  501  0.15806840384E+02 -0.45975981964E+02 -0.21878758779E+03  0.22412419702E+03  0.00000000000E+00 0.  1.
<scales pt_clust_5="13000.00000" pt_clust_6="13000.00000" pt_clust_7="13000.00000" pt_clust_8="13000.00000" pt_clust_9="48.61735"></scales>
<clustering>
<clus scale="   48.617">  2  9  1 -1</clus>
<clus scale="   80.975">  5  6 -1 -1</clus>
<clus scale="   84.462">  1  5  2 -1</clus>
<clus scale="   91.015">  7  8 -1 -1</clus>
<clus scale="   84.462">  1  5  2 -1</clus>
</clustering>
</event>
<event>
 9    2  0.2869112E-005  0.1170014E+03  0.7546771E-02  0.1253035E+00
          4   -1    0    0  502    0  0.00000000000E+00  0.00000000000E+00  0.10374232678E+03  0.10374232678E+03  0.00000000000E+00 0. -1.
         -3   -1    0    0    0  501 -0.00000000000E+00 -0.00000000000E+00 -0.34769629506E+03  0.34769629506E+03  0.00000000000E+00 0.  1.
         24    2    1    2    0    0 -0.70721540226E+02 -0.19955697523E+02 -0.19918351793E+03  0.22614747283E+03  0.77902756920E+02 0.  0.
         23    2    1    2    0    0  0.48734334102E+02  0.55189220299E+02  0.45067984926E+02  0.12631750196E+03  0.92217691781E+02 0.  0.
        -13    1    3    3    0    0 -0.54905256424E+02  0.21014479264E+02 -0.14457138393E+03  0.15606755132E+03  0.00000000000E+00 0.  1.
         14    1    3    3    0    0 -0.15816283802E+02 -0.40970176788E+02 -0.54612134001E+02  0.70079921514E+02  0.00000000000E+00 0. -1.
        -11    1    4    4    0    0  0.13188212679E+02  0.71758964765E+02  0.47439452091E+02  0.87027464588E+02  0.00000000000E+00 0. -1.
         11    1    4    4    0    0  0.35546121424E+02 -0.16569744466E+02 -0.23714671649E+01  0.39290037369E+02  0.00000000000E+00 0.  1.
         21    1    1    2  502  501  0.21987206124E+02 -0.35233522776E+02 -0.89838435271E+02  0.98973647060E+02  0.00000000000E+00 0. -1.
<scales pt_clust_5="13000.00000" pt_clust_6="13000.00000" pt_clust_7="13000.00000" pt_clust_8="13000.00000" pt_clust_9="41.53117"></scales>
<clustering>
<clus scale="   41.531">  2  9  1 -1</clus>
<clus scale="   77.903">  5  6 -1 -1</clus>
<clus scale="   92.218">  7  8 -1 -1</clus>
<clus scale="  106.085">  2  5  1 -1</clus>
<clus scale="  117.001">  1  5  2 -1</clus>
</clustering>
</event>
<event>
 9    2  0.2869112E-005  0.1042004E+03  0.7546771E-02  0.1277513E+00
          2   -1    0    0  502    0  0.00000000000E+00  0.00000000000E+00  0.70941847945E+03  0.70941847945E+03  0.00000000000E+00 0. -1.
         -1   -1    0    0    0  501 -0.00000000000E+00 -0.00000000000E+00 -0.25620270116E+02  0.25620270116E+02  0.00000000000E+00 0.  1.
         23    2    1    2    0    0 -0.61671503468E+02  0.15682225881E+02  0.14445596390E+03  0.18151400168E+03  0.89613061273E+02 0.  0.
         24    2    1    2    0    0  0.51240789969E+02  0.15280800506E+01  0.50793982803E+03  0.51622721133E+03  0.76548750694E+02 0.  0.
        -13    1    4    4    0    0  0.52080113924E+02 -0.29284884891E+02  0.28752304646E+03  0.29366553253E+03  0.00000000000E+00 0.  1.
         14    1    4    4    0    0 -0.83932395557E+00  0.30812964942E+02  0.22041678157E+03  0.22256167880E+03  0.00000000000E+00 0. -1.
        -13    1    3    3    0    0 -0.26846929165E+02  0.46281448725E+02  0.11432134554E+03  0.12622242332E+03  0.00000000000E+00 0. -1.
         13    1    3    3    0    0 -0.34824574304E+02 -0.30599222844E+02  0.30134618356E+02  0.55291578360E+02  0.00000000000E+00 0.  1.
         21    1    1    2  502  501  0.10430713500E+02 -0.17210305932E+02  0.31402417408E+02  0.37297536560E+02  0.00000000000E+00 0.  1.
<scales pt_clust_5="13000.00000" pt_clust_6="13000.00000" pt_clust_7="13000.00000" pt_clust_8="13000.00000" pt_clust_9="20.12447"></scales>
<clustering>
<clus scale="   20.124">  2  9  1 -1</clus>
<clus scale="   76.549">  5  6 -1 -1</clus>
<clus scale="   89.613">  7  8 -1 -1</clus>
<clus scale="   93.204">  1  5  2 -1</clus>
<clus scale="   93.204">  1  5  2 -1</clus>
</clustering>
</event>
<event>
 9    2  0.2869112E-005  0.1492830E+03  0.7546771E-02  0.1203327E+00
          2   -1    0    0  502    0  0.00000000000E+00  0.00000000000E+00  0.23920982783E+03  0.23920982783E+03  0.00000000000E+00 0. -1.
         -1   -1    0    0    0  501 -0.00000000000E+00 -0.00000000000E+00 -0.18533791018E+03  0.18533791018E+03  0.00000000000E+00 0.  1.
         24    2    1    2    0    0 -0.72760431424E+02 -0.10846340813E+03 -0.90871546976E+02  0.17743753032E+03  0.78536920183E+02 0.  0.
         23    2    1    2    0    0  0.85986603948E+02  0.80424245154E+02  0.15525919429E+03  0.21437327334E+03  0.89379682497E+02 0.  0.
        -13    1    3    3    0    0 -0.66062794660E+02 -0.52036938877E+02 -0.86194650327E+02  0.12042281176E+03  0.00000000000E+00 0.  1.
         14    1    3    3    0    0 -0.66976367634E+01 -0.56426469256E+02 -0.46768966496E+01  0.57014718567E+02  0.00000000000E+00 0. -1.
        -13    1    4    4    0    0  0.52979595398E+02 -0.47716288725E+01  0.79648123245E+02  0.95778022046E+02  0.00000000000E+00 0.  1.
         13    1    4    4    0    0  0.33007008550E+02  0.85195874026E+02  0.75611071044E+02  0.11859525129E+03  0.00000000000E+00 0. -1.
         21    1    1    2  502  501 -0.13226172524E+02  0.28039162980E+02 -0.10515729658E+02  0.32736934348E+02  0.00000000000E+00 0. -1.
<scales pt_clust_5="13000.00000" pt_clust_6="13000.00000" pt_clust_7="13000.00000" pt_clust_8="13000.00000" pt_clust_9="31.00204"></scales>
<clustering>
<clus scale="   31.002">  2  9  1 -1</clus>
<clus scale="   78.537">  5  6 -1 -1</clus>
<clus scale="   89.380">  7  8 -1 -1</clus>
<clus scale="  143.055">  2  5  1 -1</clus>
<clus scale="  149.283">  1  5  2 -1</clus>
</clustering>
</event>
<event>
 9    2  0.2869112E-005  0.8981453E+02  0.7546771E-02  0.1306212E+00
          2   -1    0    0  502    0  0.00000000000E+00  0.00000000000E+00  0.38042466352E+03  0.38042466352E+03  0.00000000000E+00 0. -1.
         -1   -1    0    0    0  501 -0.00000000000E+00 -0.00000000000E+00 -0.75278505272E+02  0.75278505272E+02  0.00000000000E+00 0.  1.
         23    2    1    2    0    0 -0.16752980920E+02 -0.49080510617E+02  0.53822244980E+02  0.11339268031E+03  0.85273131762E+02 0.  0.
         24    2    1    2    0    0  0.15908685524E+02  0.17926278363E+02  0.28461394753E+03  0.29670867488E+03  0.80352354597E+02 0.  0.
        -11    1    4    4    0    0 -0.25698061710E+02  0.49346842969E+01  0.37182739939E+02  0.45467544844E+02  0.00000000000E+00 0.  1.
         12    1    4    4    0    0  0.41606747234E+02  0.12991594066E+02  0.24743120759E+03  0.25124113004E+03  0.00000000000E+00 0. -1.
        -13    1    3    3    0    0  0.13326202961E+02 -0.35691817174E+02  0.67683472470E+02  0.77669465971E+02  0.00000000000E+00 0. -1.
         13    1    3    3    0    0 -0.30079183881E+02 -0.13388693442E+02 -0.13861227490E+02  0.35723214337E+02  0.00000000000E+00 0.  1.
         21    1    1    2  502  501  0.84429539647E+00  0.31154232254E+02 -0.33290034267E+02  0.45601813600E+02  0.00000000000E+00 0.  1.
<scales pt_clust_5="13000.00000" pt_clust_6="13000.00000" pt_clust_7="13000.00000" pt_clust_8="13000.00000" pt_clust_9="31.16567"></scales>
<clustering>
<clus scale="   31.166">  2  9  1 -1</clus>
<clus scale="   80.352">  5  6 -1 -1</clus>
<clus scale="   85.157">  1  5  2 -1</clus>
<clus scale="   85.273">  7  8 -1 -1</clus>
<clus scale="   85.157">  1  5  2 -1</clus>
</clustering>
</event>
<event>
 9    2  0.2869112E-005  0.2361468E+03  0.7546771E-02  0.1122849E+00
         -3   -1    0    0    0  501 -0.00000000000E+00  0.00000000000E+00  0.49418863981E+03  0.49418863981E+03  0.00000000000E+00 0.  1.
          4   -1    0    0  502    0  0.00000000000E+00 -0.00000000000E+00 -0.56906258788E+03  0.56906258788E+03  0.00000000000E+00 0. -1.
         23    2    1    2    0    0  0.48172345419E+02 -0.20408183357E+03  0.32851596238E+03  0.39957858997E+03  0.88149545449E+02 0.  0.
         24    2    1    2    0    0 -0.28207556650E+02  0.21799819155E+03 -0.50635742480E+03  0.55786825775E+03  0.80624274180E+02 0.  0.
        -11    1    4    4    0    0 -0.10040245651E+02  0.15703912248E+03 -0.26434994335E+03  0.30764100031E+03  0.00000000000E+00 0.  1.
         12    1    4    4    0    0 -0.18167310999E+02  0.60959069075E+02 -0.24200748145E+03  0.25022725744E+03  0.00000000000E+00 0. -1.
        -13    1    3    3    0    0 -0.21191924258E+02 -0.84870024322E+02  0.15435516549E+03  0.17741909648E+03  0.00000000000E+00 0.  1.
         13    1    3    3    0    0  0.69364269677E+02 -0.11921180925E+03  0.17416079689E+03  0.22215949349E+03  0.00000000000E+00 0. -1.
         21    1    1    2  502  501 -0.19964788769E+02 -0.13916357982E+02  0.10296751434E+03  0.10580437997E+03  0.00000000000E+00 0.  1.
<scales pt_clust_5="13000.00000" pt_clust_6="13000.00000" pt_clust_7="13000.00000" pt_clust_8="13000.00000" pt_clust_9="24.33635"></scales>
<clustering>
<clus scale="   24.336">  1  9  2 -1</clus>
<clus scale="   80.624">  5  6 -1 -1</clus>
<clus scale="   88.150">  7  8 -1 -1</clus>
<clus scale="  233.442">  2  5  1 -1</clus>
<clus scale="  233.442">  2  5  1 -1</clus>
</clustering>
</event>
<event>
 9    2  0.2869112E-005  0.1001569E+03  0.7546771E-02  0.1284631E+00
         -1   -1    0    0    0  501 -0.00000000000E+00  0.00000000000E+00  0.60409571268E+02  0.60409571268E+02  0.00000000000E+00 0.  1.
          2   -1    0    0  502    0  0.00000000000E+00 -0.00000000000E+00 -0.72351756586E+03  0.72351756586E+03  0.00000000000E+00 0. -1.
         23    2    1    2    0    0 -0.68503811163E+02 -0.13104575750E+02 -0.30938857860E+03  0.32992734508E+03  0.90918966193E+02 0.  0.
         24    2    1    2    0    0  0.23124126214E+02  0.21121325832E+02 -0.38727682092E+03  0.39699379662E+03  0.81485599452E+02 0.  0.
        -11    1    4    4    0    0  0.13898311554E+02 -0.30658333867E+02 -0.12231684389E+03  0.12686412731E+03  0.00000000000E+00 0.  1.
         12    1    4    4    0    0  0.92258146602E+01  0.51779659699E+02 -0.26495997703E+03  0.27012966931E+03  0.00000000000E+00 0. -1.
        -13    1    3    3    0    0  0.16596256568E+02  0.16151178827E+02 -0.44411112544E+02  0.50086357694E+02  0.00000000000E+00 0.  1.
         13    1    3    3    0    0 -0.85100067732E+02 -0.29255754577E+02 -0.26497746606E+03  0.27984098739E+03  0.00000000000E+00 0. -1.
         21    1    1    2  502  501  0.45379684949E+02 -0.80167500824E+01  0.33557404933E+02  0.57005995420E+02  0.00000000000E+00 0.  1.
<scales pt_clust_5="13000.00000" pt_clust_6="13000.00000" pt_clust_7="13000.00000" pt_clust_8="13000.00000" pt_clust_9="46.08236"></scales>
<clustering>
<clus scale="   46.082">  1  9  2 -1</clus>
<clus scale="   81.486">  5  6 -1 -1</clus>
<clus scale="   90.919">  7  8 -1 -1</clus>
<clus scale="   91.679">  2  5  1 -1</clus>
<clus scale="   91.679">  2  5  1 -1</clus>
</clustering>
</event>
<event>
 9    2  0.2869112E-005  0.1287727E+03  0.7546771E-02  0.1232407E+00
         -1   -1    0    0    0  501 -0.00000000000E+00  0.00000000000E+00  0.67816054058E+02  0.67816054058E+02  0.00000000000E+00 0.  1.
          2   -1    0    0  502    0  0.00000000000E+00 -0.00000000000E+00 -0.18052885536E+04  0.18052885536E+04  0.00000000000E+00 0. -1.
         23    2    1    2    0    0  0.61343320605E+02  0.70070608997E+01 -0.52761359034E+01  0.11069876624E+03  0.91729370174E+02 0.  0.
         24    2    1    2    0    0 -0.91553572653E+02  0.10271059769E+01 -0.17263174049E+04  0.17305975198E+04  0.80080468904E+02 0.  0.
        -13    1    4    4    0    0 -0.32179079872E+02  0.11110424897E+02 -0.18514028437E+03  0.18824414896E+03  0.00000000000E+00 0.  1.
         14    1    4    4    0    0 -0.59374492781E+02 -0.10083318920E+02 -0.15411771205E+04  0.15423533708E+04  0.00000000000E+00 0. -1.
        -11    1    3    3    0    0  0.64681468110E+02  0.40565627301E+02  0.11968706138E+01  0.76358987254E+02  0.00000000000E+00 0.  1.
         11    1    3    3    0    0 -0.33381475046E+01 -0.33558566402E+02 -0.64730065171E+01  0.34339778990E+02  0.00000000000E+00 0. -1.
         21    1    1    2  502  501  0.30210252048E+02 -0.80341668766E+01 -0.58789587159E+01  0.31808321581E+02  0.00000000000E+00 0.  1.
<scales pt_clust_5="13000.00000" pt_clust_6="13000.00000" pt_clust_7="13000.00000" pt_clust_8="13000.00000" pt_clust_9="31.26031"></scales>
<clustering>
<clus scale="   31.260">  1  9  2 -1</clus>
<clus scale="   80.080">  5  6 -1 -1</clus>
<clus scale="   91.729">  7  8 -1 -1</clus>
<clus scale="  120.752">  2  5  1 -1</clus>
<clus scale="  120.752">  2  5  1 -1</clus>
</clustering>
</event>
<event>
 9    2  0.2869112E-005  0.9706608E+02  0.7546771E-02  0.1292586E+00
         -1   -1    0    0    0  501 -0.00000000000E+00  0.00000000000E+00  0.92074825744E+02  0.92074825744E+02  0.00000000000E+00 0.  1.
          2   -1    0    0  502    0  0.00000000000E+00 -0.00000000000E+00 -0.19121690711E+03  0.19121690711E+03  0.00000000000E+00 0. -1.
         24    2    1    2    0    0 -0.10415798944E+01  0.12254091141E+02  0.26470676976E+01  0.82283147714E+02  0.81315815141E+02 0.  0.
         23    2    1    2    0    0 -0.44008460718E+02  0.21997890415E+02 -0.99567973444E+02  0.14437257168E+03  0.92244275274E+02 0.  0.
        -13    1    3    3    0    0 -0.22954179219E+02  0.34362005294E+02  0.20785253588E+02  0.46256551084E+02  0.00000000000E+00 0.  1.
         14    1    3    3    0    0  0.21912599324E+02 -0.22107914154E+02 -0.18138185891E+02  0.36026596630E+02  0.00000000000E+00 0. -1.
        -13    1    4    4    0    0 -0.55822661238E+02  0.49369008492E+02 -0.75179432621E+02  0.10585563564E+03  0.00000000000E+00 0.  1.
         13    1    4    4    0    0  0.11814200520E+02 -0.27371118077E+02 -0.24388540824E+02  0.38516936044E+02  0.00000000000E+00 0. -1.
         21    1    1    2  502  501  0.45050040613E+02 -0.34251981555E+02 -0.22211756242E+01  0.56636013462E+02  0.00000000000E+00 0. -1.
<scales pt_clust_5="13000.00000" pt_clust_6="13000.00000" pt_clust_7="13000.00000" pt_clust_8="13000.00000" pt_clust_9="56.59244"></scales>
<clustering>
<clus scale="   56.592">  1  9  2 -1</clus>
<clus scale="   81.316">  5  6 -1 -1</clus>
<clus scale="   86.747">  1  5  2 -1</clus>
<clus scale="   92.244">  7  8 -1 -1</clus>
<clus scale="   97.066">  2  5  1 -1</clus>
</clustering>
</event>
<event>
 9    2  0.2869112E-005  0.1441177E+03  0.7546771E-02  0.1208693E+00
          2   -1    0    0  502    0  0.00000000000E+00  0.00000000000E+00  0.45069707576E+03  0.45069707576E+03  0.00000000000E+00 0. -1.
         -1   -1    0    0    0  501 -0.00000000000E+00 -0.00000000000E+00 -0.79303095312E+02  0.79303095312E+02  0.00000000000E+00 0.  1.
         23    2    1    2    0    0 -0.12412480646E+03 -0.11672992719E+02  0.57429210178E+02  0.16492363012E+03  0.91424631543E+02 0.  0.
         24    2    1    2    0    0  0.10783891082E+03 -0.69919608088E+01  0.31030233393E+03  0.34003608715E+03  0.87515049676E+02 0.  0.
        -13    1    4    4    0    0  0.52694735854E+02 -0.45880265352E+02  0.18437125087E+03  0.19716615349E+03  0.00000000000E+00 0.  1.
         14    1    4    4    0    0  0.55144174966E+02  0.38888304544E+02  0.12593108305E+03  0.14286993365E+03  0.00000000000E+00 0. -1.
        -11    1    3    3    0    0 -0.24582885925E+02  0.17502994945E+02  0.53133425030E+02  0.61105105907E+02  0.00000000000E+00 0. -1.
         11    1    3    3    0    0 -0.99541920531E+02 -0.29175987665E+02  0.42957851476E+01  0.10381852421E+03  0.00000000000E+00 0.  1.
         21    1    1    2  502  501  0.16285895636E+02  0.18664953528E+02  0.36624363431E+01  0.25040453807E+02  0.00000000000E+00 0.  1.
<scales pt_clust_5="13000.00000" pt_clust_6="13000.00000" pt_clust_7="13000.00000" pt_clust_8="13000.00000" pt_clust_9="24.77117"></scales>
<clustering>
<clus scale="   24.771">  2  9  1 -1</clus>
<clus scale="   87.515">  5  6 -1 -1</clus>
<clus scale="   91.425">  7  8 -1 -1</clus>
<clus scale="  141.670">  1  5  2 -1</clus>
<clus scale="  141.670">  1  5  2 -1</clus>
</clustering>
</event>
<event>
 9    2  0.2869112E-005  0.1303219E+03  0.7546771E-02  0.1229735E+00
          2   -1    0    0  502    0  0.00000000000E+00  0.00000000000E+00  0.51159188033E+03  0.51159188033E+03  0.00000000000E+00 0. -1.
         -1   -1    0    0    0  501 -0.00000000000E+00 -0.00000000000E+00 -0.20422911980E+03  0.20422911980E+03  0.00000000000E+00 0.  1.
         23    2    1    2    0    0 -0.70451138365E+01 -0.96430707848E+02 -0.14389527598E+03  0.19603481226E+03  0.91516567486E+02 0.  0.
         24    2    1    2    0    0 -0.29813893598E+02  0.88029602881E+02  0.46385314996E+03  0.47993895614E+03  0.80892383191E+02 0.  0.
        -13    1    4    4    0    0 -0.37351192884E+02  0.28402430012E+01  0.15520102131E+03  0.15965755731E+03  0.00000000000E+00 0.  1.
         14    1    4    4    0    0  0.75372992860E+01  0.85189359879E+02  0.30865212865E+03  0.32028139883E+03  0.00000000000E+00 0. -1.
        -13    1    3    3    0    0  0.20215494405E+02 -0.25384476973E+02 -0.10632909164E+03  0.11117065087E+03  0.00000000000E+00 0.  1.
         13    1    3    3    0    0 -0.27260608242E+02 -0.71046230875E+02 -0.37566184337E+02  0.84864161392E+02  0.00000000000E+00 0. -1.
         21    1    1    2  502  501  0.36859007434E+02  0.84011049675E+01 -0.12595113449E+02  0.39847231729E+02  0.00000000000E+00 0.  1.
<scales pt_clust_5="13000.00000" pt_clust_6="13000.00000" pt_clust_7="13000.00000" pt_clust_8="13000.00000" pt_clust_9="37.80430"></scales>
<clustering>
<clus scale="   37.804">  2  9  1 -1</clus>
<clus scale="   80.892">  5  6 -1 -1</clus>
<clus scale="   91.517">  7  8 -1 -1</clus>
<clus scale="  123.094">  1  5  2 -1</clus>
<clus scale="  123.094">  1  5  2 -1</clus>
</clustering>
</event>
<event>
 9    2  0.2869112E-005  0.2403950E+03  0.7546771E-02  0.1120189E+00
         -1   -1    0    0    0  501 -0.00000000000E+00  0.00000000000E+00  0.29607753224E+03  0.29607753224E+03  0.00000000000E+00 0.  1.
          2   -1    0    0  502    0  0.00000000000E+00 -0.00000000000E+00 -0.38188808123E+03  0.38188808123E+03  0.00000000000E+00 0. -1.
         24    2    1    2    0    0  0.22876547969E+03  0.69949714481E+02 -0.10847609850E+02  0.25248280588E+03  0.80020555952E+02 0.  0.
         23    2    1    2    0    0 -0.21800746337E+03  0.64999290319E+02 -0.13231755446E+03  0.27845722917E+03  0.90985336364E+02 0.  0.
        -13    1    3    3    0    0  0.25798981521E+02  0.13431444283E+02  0.25500651541E+02  0.38681705910E+02  0.00000000000E+00 0.  1.
         14    1    3    3    0    0  0.20296649816E+03  0.56518270198E+02 -0.36348261391E+02  0.21380109997E+03  0.00000000000E+00 0. -1.
        -11    1    4    4    0    0 -0.17479648108E+03  0.23046382015E+02 -0.12838947039E+03  0.21810273183E+03  0.00000000000E+00 0. -1.
         11    1    4    4    0    0 -0.43210982286E+02  0.41952908305E+02 -0.39280840700E+01  0.60354497345E+02  0.00000000000E+00 0.  1.
         21    1    1    2  502  501 -0.10758016320E+02 -0.13494900480E+03  0.57354615325E+02  0.14702557842E+03  0.00000000000E+00 0. -1.
<scales pt_clust_5="13000.00000" pt_clust_6="13000.00000" pt_clust_7="13000.00000" pt_clust_8="13000.00000" pt_clust_9="135.37714"></scales>
<clustering>
<clus scale="   80.021">  5  6 -1 -1</clus>
<clus scale="   90.985">  7  8 -1 -1</clus>
<clus scale="  135.377">  1  9  2 -1</clus>
<clus scale="  236.463">  1  5  2 -1</clus>
<clus scale="  240.395">  2  5  1 -1</clus>
</clustering>
</event>
<event>
 9    2  0.2869112E-005  0.1009824E+03  0.7546771E-02  0.1281709E+00
         -1   -1    0    0    0  501 -0.00000000000E+00  0.00000000000E+00  0.53490525505E+02  0.53490525505E+02  0.00000000000E+00 0.  1.
          2   -1    0    0  502    0  0.00000000000E+00 -0.00000000000E+00 -0.96409397190E+03  0.96409397190E+03  0.00000000000E+00 0. -1.
         23    2    1    2    0    0 -0.17831751359E+02  0.42546686536E+01  0.77831582750E+00  0.90051916853E+02  0.88162738112E+02 0.  0.
         24    2    1    2    0    0  0.33494262261E+02 -0.38811830755E+02 -0.85007913190E+03  0.85543872378E+03  0.80701027470E+02 0.  0.
        -13    1    4    4    0    0  0.26900491466E+02 -0.21753248196E+02 -0.11402991669E+03  0.11916233527E+03  0.00000000000E+00 0.  1.
         14    1    4    4    0    0  0.65937707944E+01 -0.17058582559E+02 -0.73604921521E+03  0.73627638850E+03  0.00000000000E+00 0. -1.
        -11    1    3    3    0    0 -0.59214767733E+01  0.45350231812E+02  0.86531838831E+01  0.46546589605E+02  0.00000000000E+00 0. -1.
         11    1    3    3    0    0 -0.11910274585E+02 -0.41095563158E+02 -0.78748680556E+01  0.43505327247E+02  0.00000000000E+00 0.  1.
         21    1    1    2  502  501 -0.15662510902E+02  0.34557162101E+02 -0.61302630321E+02  0.72093856774E+02  0.00000000000E+00 0.  1.
<scales pt_clust_5="13000.00000" pt_clust_6="13000.00000" pt_clust_7="13000.00000" pt_clust_8="13000.00000" pt_clust_9="37.94090"></scales>
<clustering>
<clus scale="   37.941">  1  9  2 -1</clus>
<clus scale="   80.701">  5  6 -1 -1</clus>
<clus scale="   88.163">  7  8 -1 -1</clus>
<clus scale="   94.538">  2  5  1 -1</clus>
<clus scale="   94.538">  2  5  1 -1</clus>
</clustering>
</event>
<event>
 9    2  0.2869112E-005  0.1278233E+03  0.7546771E-02  0.1231319E+00
          2   -1    0    0  502    0  0.00000000000E+00  0.00000000000E+00  0.62022442676E+03  0.62022442676E+03  0.00000000000E+00 0. -1.
         -1   -1    0    0    0  501 -0.00000000000E+00 -0.00000000000E+00 -0.45431535465E+02  0.45431535465E+02  0.00000000000E+00 0.  1.
         23    2    1    2    0    0 -0.29175508613E+02 -0.75449395119E+02  0.12321246442E+03  0.16924702240E+03  0.83183061238E+02 0.  0.
         24    2    1    2    0    0  0.42426039468E+02  0.94537383886E+02  0.45439279824E+03  0.47300301502E+03  0.80757360943E+02 0.  0.
        -11    1    4    4    0    0  0.45229747251E+02  0.44110882142E+02  0.12818430702E+03  0.14290807019E+03  0.00000000000E+00 0.  1.
         12    1    4    4    0    0 -0.28037077838E+01  0.50426501744E+02  0.32620849122E+03  0.33009494483E+03  0.00000000000E+00 0. -1.
        -11    1    3    3    0    0 -0.24827543698E+01 -0.46870425648E+02  0.80440610402E+01  0.47620455559E+02  0.00000000000E+00 0.  1.
         11    1    3    3    0    0 -0.26692754243E+02 -0.28578969472E+02  0.11516840338E+03  0.12162656684E+03  0.00000000000E+00 0. -1.
         21    1    1    2  502  501 -0.13250530855E+02 -0.19087988767E+02 -0.28123713671E+01  0.23405924801E+02  0.00000000000E+00 0. -1.
<scales pt_clust_5="13000.00000" pt_clust_6="13000.00000" pt_clust_7="13000.00000" pt_clust_8="13000.00000" pt_clust_9="23.23635"></scales>
<clustering>
<clus scale="   23.236">  2  9  1 -1</clus>
<clus scale="   80.757">  5  6 -1 -1</clus>
<clus scale="   83.183">  7  8 -1 -1</clus>
<clus scale="  126.258">  1  5  2 -1</clus>
<clus scale="  126.258">  1  5  2 -1</clus>
</clustering>
</event>
<event>
 9    2  0.2869112E-005  0.1103695E+03  0.7546771E-02  0.1262550E+00
          2   -1    0    0  502    0  0.00000000000E+00  0.00000000000E+00  0.44267503553E+03  0.44267503553E+03  0.00000000000E+00 0. -1.
         -1   -1    0    0    0  501 -0.00000000000E+00 -0.00000000000E+00 -0.46697666325E+02  0.46697666325E+02  0.00000000000E+00 0.  1.
         23    2    1    2    0    0  0.55425668770E+02  0.40668354815E+02  0.14415719066E+03  0.18362481087E+03  0.90613772169E+02 0.  0.
         24    2    1    2    0    0 -0.10198839983E+01 -0.72170923293E+02  0.16298073659E+03  0.19691385364E+03  0.83681915155E+02 0.  0.
        -11    1    4    4    0    0 -0.10457349456E+02 -0.71579801822E+02  0.17025350986E+03  0.18498454478E+03  0.00000000000E+00 0.  1.
         12    1    4    4    0    0  0.94374654582E+01 -0.59112147130E+00 -0.72727732722E+01  0.11929308863E+02  0.00000000000E+00 0. -1.
        -11    1    3    3    0    0 -0.17571104826E+02 -0.13895529476E+02  0.32961715678E+02  0.39853533904E+02  0.00000000000E+00 0.  1.
         11    1    3    3    0    0  0.72996773596E+02  0.54563884292E+02  0.11119547498E+03  0.14377127697E+03  0.00000000000E+00 0. -1.
         21    1    1    2  502  501 -0.54405784772E+02  0.31502568478E+02  0.88839441960E+02  0.10883403735E+03  0.00000000000E+00 0. -1.
<scales pt_clust_5="13000.00000" pt_clust_6="13000.00000" pt_clust_7="13000.00000" pt_clust_8="13000.00000" pt_clust_9="62.86813"></scales>
<clustering>
<clus scale="   62.868">  1  9  2 -1</clus>
<clus scale="   83.682">  5  6 -1 -1</clus>
<clus scale="   90.614">  7  8 -1 -1</clus>
<clus scale="  104.753">  1  5  2 -1</clus>
<clus scale="   62.868">  1  5  2 -1</clus>
</clustering>
</event>
<event>
 9    2  0.2869112E-005  0.2279792E+03  0.7546771E-02  0.1156414E+00
         -1   -1    0    0    0  501 -0.00000000000E+00  0.00000000000E+00  0.14257578303E+04  0.14257578303E+04  0.00000000000E+00 0.  1.
          2   -1    0    0  502    0  0.00000000000E+00 -0.00000000000E+00 -0.10556204258E+03  0.10556204258E+03  0.00000000000E+00 0. -1.
         23    2    1    2    0    0  0.11123935769E+03 -0.10241855969E+03  0.13640860839E+03  0.22299751021E+03  0.90867073521E+02 0.  0.
         24    2    1    2    0    0  0.18326363247E+02 -0.80276811648E+02  0.12773847239E+02  0.11608199315E+03  0.80818536755E+02 0.  0.
        -13    1    4    4    0    0  0.35370419982E+02 -0.75864350100E+01 -0.10858322062E+02  0.37769349529E+02  0.00000000000E+00 0.  1.
         14    1    4    4    0    0 -0.17044056735E+02 -0.72690376638E+02  0.23632169301E+02  0.78312643626E+02  0.00000000000E+00 0. -1.
        -11    1    3    3    0    0  0.10091698763E+03 -0.48707434881E+02  0.12357974250E+03  0.16681907973E+03  0.00000000000E+00 0. -1.
         11    1    3    3    0    0  0.10322370060E+02 -0.53711124808E+02  0.12828865891E+02  0.56178430485E+02  0.00000000000E+00 0.  1.
         21    1    1    2  502  501 -0.12956572094E+03  0.18269537134E+03  0.11710133320E+04  0.11922403695E+04  0.00000000000E+00 0.  1.
<scales pt_clust_5="13000.00000" pt_clust_6="13000.00000" pt_clust_7="13000.00000" pt_clust_8="13000.00000" pt_clust_9="209.08774"></scales>
<clustering>
<clus scale="   80.819">  5  6 -1 -1</clus>
<clus scale="   90.867">  7  8 -1 -1</clus>
<clus scale="  115.377">  2  5  1 -1</clus>
<clus scale="  209.088">  1  9  2 -1</clus>
<clus scale="  115.377">  2  5  1 -1</clus>
</clustering>
</event>
<event>
 9    2  0.2869112E-005  0.8919816E+02  0.7546771E-02  0.1309996E+00
          2   -1    0    0  502    0  0.00000000000E+00  0.00000000000E+00  0.30473416581E+03  0.30473416581E+03  0.00000000000E+00 0. -1.
         -1   -1    0    0    0  501 -0.00000000000E+00 -0.00000000000E+00 -0.12502176847E+03  0.12502176847E+03  0.00000000000E+00 0.  1.
         24    2    1    2    0    0 -0.39258513684E+01  0.12195341847E+02 -0.91408525199E+02  0.12238079047E+03  0.80357953713E+02 0.  0.
         23    2    1    2    0    0  0.20913588396E+02  0.22473507635E+02  0.24052246516E+03  0.25811280599E+03  0.88480097447E+02 0.  0.
        -13    1    3    3    0    0 -0.37420906083E+02 -0.29032871363E+01 -0.21116219127E+02  0.43065624325E+02  0.00000000000E+00 0.  1.
         14    1    3    3    0    0  0.33495054714E+02  0.15098628983E+02 -0.70292306072E+02  0.79315166144E+02  0.00000000000E+00 0. -1.
        -13    1    4    4    0    0  0.47475119209E+02  0.96831443356E+01  0.70446189340E+02  0.85500384915E+02  0.00000000000E+00 0. -1.
         13    1    4    4    0    0 -0.26561530813E+02  0.12790363299E+02  0.17007627582E+03  0.17261242107E+03  0.00000000000E+00 0.  1.
         21    1    1    2  502  501 -0.16987737028E+02 -0.34668849481E+02  0.30598457379E+02  0.49262337821E+02  0.00000000000E+00 0.  1.
<scales pt_clust_5="13000.00000" pt_clust_6="13000.00000" pt_clust_7="13000.00000" pt_clust_8="13000.00000" pt_clust_9="38.60715"></scales>
<clustering>
<clus scale="   38.607">  1  9  2 -1</clus>
<clus scale="   80.358">  5  6 -1 -1</clus>
<clus scale="   81.148">  2  5  1 -1</clus>
<clus scale="   88.480">  7  8 -1 -1</clus>
<clus scale="   38.607">  1  5  2 -1</clus>
</clustering>
</event>
<event>
 9    2  0.2869112E-005  0.1192346E+03  0.7546771E-02  0.1257604E+00
         -1   -1    0    0    0  501 -0.00000000000E+00  0.00000000000E+00  0.19346544174E+02  0.19346544174E+02  0.00000000000E+00 0.  1.
          2   -1    0    0  502    0  0.00000000000E+00 -0.00000000000E+00 -0.75521246724E+03  0.75521246724E+03  0.00000000000E+00 0. -1.
         23    2    1    2    0    0 -0.31255947454E+02  0.39137755216E+02 -0.30514420985E+03  0.32854365822E+03  0.11099210970E+03 0.  0.
         24    2    1    2    0    0  0.81675835756E+01 -0.41420545400E+02 -0.37005905714E+03  0.38106736231E+03  0.80537307164E+02 0.  0.
        -11    1    4    4    0    0  0.19456008728E+02 -0.86523403812E+01 -0.19732224770E+02  0.29030328350E+02  0.00000000000E+00 0.  1.
         12    1    4    4    0    0 -0.11288425153E+02 -0.32768205019E+02 -0.35032683237E+03  0.35203703396E+03  0.00000000000E+00 0. -1.
        -13    1    3    3    0    0 -0.57792167996E+02  0.56627780563E+02 -0.15259595766E+03  0.17271990768E+03  0.00000000000E+00 0.  1.
         13    1    3    3    0    0  0.26536220543E+02 -0.17490025347E+02 -0.15254825219E+03  0.15582375054E+03  0.00000000000E+00 0. -1.
         21    1    1    2  502  501  0.23088363878E+02  0.22827901836E+01 -0.60662656083E+02  0.64947990890E+02  0.00000000000E+00 0.  1.
<scales pt_clust_5="13000.00000" pt_clust_6="13000.00000" pt_clust_7="13000.00000" pt_clust_8="13000.00000" pt_clust_9="23.20094"></scales>
<clustering>
<clus scale="   23.201">  1  9  2 -1</clus>
<clus scale="   80.537">  5  6 -1 -1</clus>
<clus scale="   91.564">  2  5  1 -1</clus>
<clus scale="  110.992">  7  8 -1 -1</clus>
<clus scale="   91.564">  2  5  1 -1</clus>
</clustering>
</event>
<event>
 9    2  0.2869112E-005  0.9211877E+02  0.7546771E-02  0.1305362E+00
          2   -1    0    0  502    0  0.00000000000E+00  0.00000000000E+00  0.64847475521E+03  0.64847475521E+03  0.00000000000E+00 0. -1.
         -1   -1    0    0    0  501 -0.00000000000E+00 -0.00000000000E+00 -0.59237267008E+02  0.59237267008E+02  0.00000000000E+00 0.  1.
         23    2    1    2    0    0  0.88442562608E+00 -0.20503261129E+01  0.65663820701E+01  0.89324978373E+02  0.89055310577E+02 0.  0.
         24    2    1    2    0    0 -0.24939843301E+02 -0.26557801526E+01  0.58783495477E+03  0.59333757502E+03  0.76619155070E+02 0.  0.
        -11    1    4    4    0    0 -0.36295578859E+02 -0.77164708279E+01  0.12637334140E+03  0.13170852054E+03  0.00000000000E+00 0.  1.
         12    1    4    4    0    0  0.11355735558E+02  0.50606906753E+01  0.46146161337E+03  0.46162905448E+03  0.00000000000E+00 0. -1.
        -11    1    3    3    0    0 -0.12674220808E+02  0.27287511850E+02  0.35087148058E+02  0.46220689468E+02  0.00000000000E+00 0. -1.
         11    1    3    3    0    0  0.13558646434E+02 -0.29337837963E+02 -0.28520765988E+02  0.43104288905E+02  0.00000000000E+00 0.  1.
         21    1    1    2  502  501  0.24055417675E+02  0.47061062655E+01 -0.51638486402E+01  0.25049468826E+02  0.00000000000E+00 0.  1.
<scales pt_clust_5="13000.00000" pt_clust_6="13000.00000" pt_clust_7="13000.00000" pt_clust_8="13000.00000" pt_clust_9="24.51144"></scales>
<clustering>
<clus scale="   24.511">  2  9  1 -1</clus>
<clus scale="   76.619">  5  6 -1 -1</clus>
<clus scale="   80.159">  1  5  2 -1</clus>
<clus scale="   89.055">  7  8 -1 -1</clus>
<clus scale="   80.159">  1  5  2 -1</clus>
</clustering>
</event>
<event>
 9    2  0.2869112E-005  0.9381368E+02  0.7546771E-02  0.1304053E+00
         -1   -1    0    0    0  501 -0.00000000000E+00  0.00000000000E+00  0.40578084825E+02  0.40578084825E+02  0.00000000000E+00 0.  1.
          2   -1    0    0  502    0  0.00000000000E+00 -0.00000000000E+00 -0.28720732188E+03  0.28720732188E+03  0.00000000000E+00 0. -1.
         23    2    1    2    0    0  0.19229552458E+02  0.15613117081E-01 -0.78059733037E+02  0.12303826615E+03  0.93141382230E+02 0.  0.
         24    2    1    2    0    0  0.10881237199E+02  0.16506886482E+02 -0.13555044105E+03  0.15710355583E+03  0.76920261047E+02 0.  0.
        -13    1    4    4    0    0 -0.20675639984E+02 -0.18321383730E+02 -0.78314932046E+02  0.83044468641E+02  0.00000000000E+00 0.  1.
         14    1    4    4    0    0  0.31556877183E+02  0.34828270212E+02 -0.57235509008E+02  0.74059087186E+02  0.00000000000E+00 0. -1.
        -11    1    3    3    0    0 -0.34738683581E+02  0.14329749201E+02 -0.43013285794E+02  0.57116202639E+02  0.00000000000E+00 0.  1.
         11    1    3    3    0    0  0.53968236039E+02 -0.14314136084E+02 -0.35046447242E+02  0.65922063509E+02  0.00000000000E+00 0. -1.
         21    1    1    2  502  501 -0.30110789657E+02 -0.16522499599E+02 -0.33019062967E+02  0.47643584731E+02  0.00000000000E+00 0.  1.
<scales pt_clust_5="13000.00000" pt_clust_6="13000.00000" pt_clust_7="13000.00000" pt_clust_8="13000.00000" pt_clust_9="34.34607"></scales>
<clustering>
<clus scale="   34.346">  1  9  2 -1</clus>
<clus scale="   76.920">  5  6 -1 -1</clus>
<clus scale="   77.733">  2  5  1 -1</clus>
<clus scale="   93.141">  7  8 -1 -1</clus>
<clus scale="   77.733">  2  5  1 -1</clus>
</clustering>
</event>
<event>
 9    2  0.2869112E-005  0.1304209E+03  0.7546771E-02  0.1245852E+00
         -1   -1    0    0    0  501 -0.00000000000E+00  0.00000000000E+00  0.11433560097E+04  0.11433560097E+04  0.00000000000E+00 0.  1.
          2   -1    0    0  502    0  0.00000000000E+00 -0.00000000000E+00 -0.54210616291E+02  0.54210616291E+02  0.00000000000E+00 0. -1.
         23    2    1    2    0    0  0.45636040199E+02 -0.60326711062E+02  0.56381687020E+03  0.57753603110E+03  0.99681712760E+02 0.  0.
         24    2    1    2    0    0  0.32501135259E+02  0.13492345508E+02  0.15986335336E+01  0.88436884129E+02  0.81118183318E+02 0.  0.
        -13    1    4    4    0    0 -0.15060688341E+02 -0.20594879188E+02  0.13285190439E+02  0.28765772492E+02  0.00000000000E+00 0.  1.
         14    1    4    4    0    0  0.47561823600E+02  0.34087224696E+02 -0.11686556905E+02  0.59671111637E+02  0.00000000000E+00 0. -1.
        -11    1    3    3    0    0 -0.22439652463E+02 -0.49911895993E+02  0.20553907117E+03  0.21269942440E+03  0.00000000000E+00 0.  1.
         11    1    3    3    0    0  0.68075692663E+02 -0.10414815069E+02  0.35827779904E+03  0.36483660670E+03  0.00000000000E+00 0. -1.
         21    1    1    2  502  501 -0.78137175458E+02  0.46834365554E+02  0.52372988963E+03  0.53159371072E+03  0.00000000000E+00 0.  1.
<scales pt_clust_5="13000.00000" pt_clust_6="13000.00000" pt_clust_7="13000.00000" pt_clust_8="13000.00000" pt_clust_9="84.10210"></scales>
<clustering>
<clus scale="   81.118">  5  6 -1 -1</clus>
<clus scale="   88.422">  2  5  1 -1</clus>
<clus scale="   84.102">  1  9  2 -1</clus>
<clus scale="   99.682">  7  8 -1 -1</clus>
<clus scale="   88.422">  2  5  1 -1</clus>
</clustering>
</event>
<event>
 9    2  0.2869112E-005  0.9932724E+02  0.7546771E-02  0.1284823E+00
          2   -1    0    0  502    0  0.00000000000E+00  0.00000000000E+00  0.60192063851E+03  0.60192063851E+03  0.00000000000E+00 0. -1.
         -1   -1    0    0    0  501 -0.00000000000E+00 -0.00000000000E+00 -0.16868698869E+03  0.16868698869E+03  0.00000000000E+00 0.  1.
         23    2    1    2    0    0  0.74461562178E+01 -0.20210041938E+02  0.68258538779E+00  0.88625487146E+02  0.85965807223E+02 0.  0.
         24    2    1    2    0    0 -0.39075863949E+02 -0.39337149328E+02  0.54355381822E+03  0.55210559195E+03  0.79344167390E+02 0.  0.
        -13    1    4    4    0    0 -0.16043357590E+02  0.22851139727E+02  0.10892433929E+03  0.11244587854E+03  0.00000000000E+00 0.  1.
         14    1    4    4    0    0 -0.23032506358E+02 -0.62188289055E+02  0.43462947892E+03  0.43965971341E+03  0.00000000000E+00 0. -1.
        -11    1    3    3    0    0  0.87824301534E+01 -0.49120080652E+02 -0.19251245499E+02  0.53483865380E+02  0.00000000000E+00 0. -1.
         11    1    3    3    0    0 -0.13362739357E+01  0.28910038715E+02  0.19933830887E+02  0.35141621766E+02  0.00000000000E+00 0.  1.
         21    1    1    2  502  501  0.31629707731E+02  0.59547191266E+02 -0.11100275379E+03  0.12987654811E+03  0.00000000000E+00 0.  1.
<scales pt_clust_5="13000.00000" pt_clust_6="13000.00000" pt_clust_7="13000.00000" pt_clust_8="13000.00000" pt_clust_9="67.42630"></scales>
<clustering>
<clus scale="   67.426">  2  9  1 -1</clus>
<clus scale="   79.344">  5  6 -1 -1</clus>
<clus scale="   85.966">  7  8 -1 -1</clus>
<clus scale="   93.655">  1  5  2 -1</clus>
<clus scale="   93.655">  1  5  2 -1</clus>
</clustering>
</event>
<event>
 9    2  0.2869112E-005  0.1605175E+03  0.7546771E-02  0.1208673E+00
          2   -1    0    0  502    0  0.00000000000E+00  0.00000000000E+00  0.23469056911E+04  0.23469056911E+04  0.00000000000E+00 0. -1.
         -1   -1    0    0    0  501 -0.00000000000E+00 -0.00000000000E+00 -0.46637894377E+02  0.46637894377E+02  0.00000000000E+00 0.  1.
         23    2    1    2    0    0  0.45172853199E+02 -0.92727933782E+01  0.35651551595E+02  0.10859595147E+03  0.91626831127E+02 0.  0.
         24    2    1    2    0    0  0.92182877774E+01  0.14014341653E+03  0.12888227774E+04  0.12989159875E+04  0.79958970989E+02 0.  0.
        -11    1    4    4    0    0  0.93351697152E+01  0.18066628940E+02  0.48373996551E+02  0.52474679772E+02  0.00000000000E+00 0.  1.
         12    1    4    4    0    0 -0.11688193773E+00  0.12207678759E+03  0.12404487808E+04  0.12464413077E+04  0.00000000000E+00 0. -1.
        -11    1    3    3    0    0  0.12544167298E+02 -0.43892010127E+02  0.40173385382E+02  0.60809255704E+02  0.00000000000E+00 0.  1.
         11    1    3    3    0    0  0.32628685901E+02  0.34619216749E+02 -0.45218337866E+01  0.47786695771E+02  0.00000000000E+00 0. -1.
         21    1    1    2  502  501 -0.54391140976E+02 -0.13087062315E+03  0.97579346777E+03  0.98603164654E+03  0.00000000000E+00 0.  1.
<scales pt_clust_5="13000.00000" pt_clust_6="13000.00000" pt_clust_7="13000.00000" pt_clust_8="13000.00000" pt_clust_9="139.18489"></scales>
<clustering>
<clus scale="   79.959">  5  6 -1 -1</clus>
<clus scale="   91.627">  7  8 -1 -1</clus>
<clus scale="  102.577">  2  7  1 -1</clus>
<clus scale="  139.185">  2  9  1 -1</clus>
<clus scale="  160.518">  1  5  2 -1</clus>
</clustering>
</event>
<event>
 9    2  0.2869112E-005  0.2090035E+03  0.7546771E-02  0.1143154E+00
          2   -1    0    0  502    0  0.00000000000E+00  0.00000000000E+00  0.13496455123E+04  0.13496455123E+04  0.00000000000E+00 0. -1.
         -1   -1    0    0    0  501 -0.00000000000E+00 -0.00000000000E+00 -0.40645702114E+02  0.40645702114E+02  0.00000000000E+00 0.  1.
         23    2    1    2    0    0 -0.16253648066E+03  0.61064752694E+02  0.43706798027E+03  0.47894953012E+03  0.90648891059E+02 0.  0.
         24    2    1    2    0    0  0.17298899297E+03 -0.98474017394E+02  0.81165582630E+03  0.83963460856E+03  0.81109627886E+02 0.  0.
        -13    1    4    4    0    0  0.66189329051E+02 -0.77598762138E+01  0.38014135788E+03  0.38593871914E+03  0.00000000000E+00 0.  1.
         14    1    4    4    0    0  0.10679966392E+03 -0.90714141180E+02  0.43151446842E+03  0.45369588943E+03  0.00000000000E+00 0. -1.
        -13    1    3    3    0    0 -0.63358769422E+02  0.14477881103E+02  0.68445660989E+02  0.94386181257E+02  0.00000000000E+00 0. -1.
         13    1    3    3    0    0 -0.99177711242E+02  0.46586871591E+02  0.36862231928E+03  0.38456334886E+03  0.00000000000E+00 0.  1.
         21    1    1    2  502  501 -0.10452512308E+02  0.37409264700E+02  0.60276003601E+02  0.71707075725E+02  0.00000000000E+00 0.  1.
<scales pt_clust_5="13000.00000" pt_clust_6="13000.00000" pt_clust_7="13000.00000" pt_clust_8="13000.00000" pt_clust_9="38.84209"></scales>
<clustering>
<clus scale="   38.842">  2  9  1 -1</clus>
<clus scale="   81.110">  5  6 -1 -1</clus>
<clus scale="   90.649">  7  8 -1 -1</clus>
<clus scale="  205.046">  1  5  2 -1</clus>
<clus scale="  205.046">  1  5  2 -1</clus>
</clustering>
</event>
<event>
 9    2  0.2869112E-005  0.9537167E+02  0.7546771E-02  0.1297538E+00
          2   -1    0    0  502    0  0.00000000000E+00  0.00000000000E+00  0.98200192880E+02  0.98200192880E+02  0.00000000000E+00 0. -1.
         -1   -1    0    0    0  501 -0.00000000000E+00 -0.00000000000E+00 -0.21428167888E+03  0.21428167888E+03  0.00000000000E+00 0.  1.
         23    2    1    2    0    0 -0.12409583442E+02 -0.26570548455E+02 -0.15948402738E+03  0.18614739418E+03  0.91409548530E+02 0.  0.
         24    2    1    2    0    0 -0.11458060366E+02  0.25674670897E+02  0.54607226979E+02  0.99952438300E+02  0.78854706966E+02 0.  0.
        -13    1    4    4    0    0  0.14634592946E+02 -0.14425908923E+02 -0.72160339260E+01  0.21779561625E+02  0.00000000000E+00 0.  1.
         14    1    4    4    0    0 -0.26092653311E+02  0.40100579820E+02  0.61823260905E+02  0.78172876675E+02  0.00000000000E+00 0. -1.
        -11    1    3    3    0    0  0.15171917617E+02 -0.51347961747E+02 -0.62389307486E+02  0.82214511787E+02  0.00000000000E+00 0.  1.
         11    1    3    3    0    0 -0.27581501060E+02  0.24777413293E+02 -0.97094719894E+02  0.10393288239E+03  0.00000000000E+00 0. -1.
         21    1    1    2  502  501  0.23867643808E+02  0.89587755795E+00 -0.11204685601E+02  0.26382039288E+02  0.00000000000E+00 0.  1.
<scales pt_clust_5="13000.00000" pt_clust_6="13000.00000" pt_clust_7="13000.00000" pt_clust_8="13000.00000" pt_clust_9="23.88445"></scales>
<clustering>
<clus scale="   23.884">  2  9  1 -1</clus>
<clus scale="   78.855">  5  6 -1 -1</clus>
<clus scale="   83.415">  1  5  2 -1</clus>
<clus scale="   91.410">  7  8 -1 -1</clus>
<clus scale="   83.415">  1  5  2 -1</clus>
</clustering>
</event>
<event>
 9    2  0.2869112E-005  0.2770894E+03  0.7546771E-02  0.1097808E+00
         -1   -1    0    0    0  501 -0.00000000000E+00  0.00000000000E+00  0.23731928424E+03  0.23731928424E+03  0.00000000000E+00 0.  1.
          2   -1    0    0  502    0  0.00000000000E+00 -0.00000000000E+00 -0.10220344601E+04  0.10220344601E+04  0.00000000000E+00 0. -1.
         23    2    1    2    0    0  0.22699149599E+03 -0.20874221206E+03  0.34200332816E+02  0.32334242049E+03  0.91006635901E+02 0.  0.
         24    2    1    2    0    0 -0.17270695425E+03  0.18944331059E+03 -0.83431696024E+03  0.87637522922E+03  0.78944868554E+02 0.  0.
        -13    1    4    4    0    0 -0.25093544752E+02  0.81486683836E+02 -0.27607287263E+03  0.28893943419E+03  0.00000000000E+00 0.  1.
         14    1    4    4    0    0 -0.14761340950E+03  0.10795662675E+03 -0.55824408761E+03  0.58743579503E+03  0.00000000000E+00 0. -1.
        -13    1    3    3    0    0  0.20413305415E+03 -0.14752423176E+03  0.48405528105E+02  0.25646987718E+03  0.00000000000E+00 0.  1.
         13    1    3    3    0    0  0.22858441845E+02 -0.61217980298E+02 -0.14205195289E+02  0.66872543309E+02  0.00000000000E+00 0. -1.
         21    1    1    2  502  501 -0.54284541739E+02  0.19298901470E+02  0.15401451582E+02  0.59636094613E+02  0.00000000000E+00 0.  1.
<scales pt_clust_5="13000.00000" pt_clust_6="13000.00000" pt_clust_7="13000.00000" pt_clust_8="13000.00000" pt_clust_9="57.61301"></scales>
<clustering>
<clus scale="   57.613">  1  9  2 -1</clus>
<clus scale="   78.945">  5  6 -1 -1</clus>
<clus scale="   91.007">  7  8 -1 -1</clus>
<clus scale="  273.365">  2  5  1 -1</clus>
<clus scale="  273.365">  2  5  1 -1</clus>
</clustering>
</event>
<event>
 9    2  0.2869112E-005  0.1015906E+03  0.7546771E-02  0.1281879E+00
         -1   -1    0    0    0  501 -0.00000000000E+00  0.00000000000E+00  0.14755838229E+03  0.14755838229E+03  0.00000000000E+00 0.  1.
          2   -1    0    0  502    0  0.00000000000E+00 -0.00000000000E+00 -0.29413318090E+03  0.29413318090E+03  0.00000000000E+00 0. -1.
         23    2    1    2    0    0  0.57849091866E+02 -0.14066150086E+02  0.56471013601E+02  0.12107242559E+03  0.89023496076E+02 0.  0.
         24    2    1    2    0    0 -0.37026644807E+02  0.31302641705E+02 -0.24996813808E+03  0.26646772386E+03  0.78550302365E+02 0.  0.
        -11    1    4    4    0    0 -0.26375839414E+02 -0.15458697942E+02 -0.36184061412E+02  0.47370270710E+02  0.00000000000E+00 0.  1.
         12    1    4    4    0    0 -0.10650805393E+02  0.46761339647E+02 -0.21378407667E+03  0.21909745315E+03  0.00000000000E+00 0. -1.
        -11    1    3    3    0    0 -0.18272900720E+02 -0.20377796077E+02  0.29058350205E+02  0.39919183236E+02  0.00000000000E+00 0. -1.
         11    1    3    3    0    0  0.76121992586E+02  0.63116459903E+01  0.27412663397E+02  0.81153242356E+02  0.00000000000E+00 0.  1.
         21    1    1    2  502  501 -0.20822447059E+02 -0.17236491618E+02  0.46922325864E+02  0.54151413734E+02  0.00000000000E+00 0. -1.
<scales pt_clust_5="13000.00000" pt_clust_6="13000.00000" pt_clust_7="13000.00000" pt_clust_8="13000.00000" pt_clust_9="27.03093"></scales>
<clustering>
<clus scale="   27.031">  1  9  2 -1</clus>
<clus scale="   78.550">  5  6 -1 -1</clus>
<clus scale="   89.023">  7  8 -1 -1</clus>
<clus scale="   92.551">  2  5  1 -1</clus>
<clus scale="   92.551">  2  5  1 -1</clus>
</clustering>
</event>
<event>
 9    2  0.2869112E-005  0.1108520E+03  0.7546771E-02  0.1264649E+00
          2   -1    0    0  502    0  0.00000000000E+00  0.00000000000E+00  0.74370439590E+02  0.74370439590E+02  0.00000000000E+00 0. -1.
         -1   -1    0    0    0  501 -0.00000000000E+00 -0.00000000000E+00 -0.48569808256E+03  0.48569808256E+03  0.00000000000E+00 0.  1.
         24    2    1    2    0    0  0.10967852399E+02  0.88908929605E+02 -0.31676610925E+03  0.33823974310E+03  0.77719137243E+02 0.  0.
         23    2    1    2    0    0  0.49383842734E+01 -0.57590795078E+02  0.12225297316E+02  0.10941320540E+03  0.92090739520E+02 0.  0.
        -11    1    3    3    0    0 -0.31306699811E+02  0.33826122131E+02 -0.16550836512E+03  0.17180609685E+03  0.00000000000E+00 0.  1.
         12    1    3    3    0    0  0.42274552210E+02  0.55082807474E+02 -0.15125774414E+03  0.16643364625E+03  0.00000000000E+00 0. -1.
        -11    1    4    4    0    0 -0.19463802675E+02 -0.38807064967E+02  0.46309925464E+02  0.63477847336E+02  0.00000000000E+00 0. -1.
         11    1    4    4    0    0  0.24402186948E+02 -0.18783730111E+02 -0.34084628149E+02  0.45935358067E+02  0.00000000000E+00 0.  1.
         21    1    1    2  502  501 -0.15906236673E+02 -0.31318134527E+02 -0.10678683104E+03  0.11241557364E+03  0.00000000000E+00 0.  1.
<scales pt_clust_5="13000.00000" pt_clust_6="13000.00000" pt_clust_7="13000.00000" pt_clust_8="13000.00000" pt_clust_9="35.12597"></scales>
<clustering>
<clus scale="   35.126">  2  9  1 -1</clus>
<clus scale="   77.719">  5  6 -1 -1</clus>
<clus scale="   92.091">  7  8 -1 -1</clus>
<clus scale="   99.236">  2  5  1 -1</clus>
<clus scale="  110.852">  1  5  2 -1</clus>
</clustering>
</event>
<event>
 9    2  0.2869112E-005  0.1103966E+03  0.7546771E-02  0.1263756E+00
         -1   -1    0    0    0  501 -0.00000000000E+00  0.00000000000E+00  0.88605450737E+02  0.88605450737E+02  0.00000000000E+00 0.  1.
          2   -1    0    0  502    0  0.00000000000E+00 -0.00000000000E+00 -0.45040796324E+03  0.45040796324E+03  0.00000000000E+00 0. -1.
         23    2    1    2    0    0  0.55692096408E+02 -0.38702635712E+02  0.12926179959E+02  0.11415636973E+03  0.90912523937E+02 0.  0.
         24    2    1    2    0    0 -0.60921644329E+02  0.14132619185E+02 -0.38454318887E+03  0.39788746465E+03  0.80807133000E+02 0.  0.
        -13    1    4    4    0    0 -0.20412803458E+02 -0.20218877260E+02 -0.39856880262E+02  0.49133048418E+02  0.00000000000E+00 0.  1.
         14    1    4    4    0    0 -0.40508840871E+02  0.34351496444E+02 -0.34468630861E+03  0.34875441623E+03  0.00000000000E+00 0. -1.
        -11    1    3    3    0    0  0.27059863870E+02 -0.60514948038E+02 -0.15750958286E+02  0.68135070673E+02  0.00000000000E+00 0. -1.
         11    1    3    3    0    0  0.28632232538E+02  0.21812312326E+02  0.28677138245E+02  0.46021299059E+02  0.00000000000E+00 0.  1.
         21    1    1    2  502  501  0.52295479208E+01  0.24570016527E+02  0.98144964128E+01  0.26969579593E+02  0.00000000000E+00 0.  1.
<scales pt_clust_5="13000.00000" pt_clust_6="13000.00000" pt_clust_7="13000.00000" pt_clust_8="13000.00000" pt_clust_9="25.12039"></scales>
<clustering>
<clus scale="   25.120">  1  9  2 -1</clus>
<clus scale="   80.807">  5  6 -1 -1</clus>
<clus scale="   90.913">  7  8 -1 -1</clus>
<clus scale="  102.236">  2  5  1 -1</clus>
<clus scale="  102.236">  2  5  1 -1</clus>
</clustering>
</event>
<event>
 9    2  0.2869112E-005  0.1494171E+03  0.7546771E-02  0.1203247E+00
         -1   -1    0    0    0  501 -0.00000000000E+00  0.00000000000E+00  0.51354192553E+02  0.51354192553E+02  0.00000000000E+00 0.  1.
          2   -1    0    0  502    0  0.00000000000E+00 -0.00000000000E+00 -0.67604295244E+03  0.67604295244E+03  0.00000000000E+00 0. -1.
         23    2    1    2    0    0  0.10565414315E+03 -0.43268487280E+02 -0.11529181297E+03  0.18633330231E+03  0.91612976458E+02 0.  0.
         24    2    1    2    0    0 -0.11206437546E+03  0.68615977979E+02 -0.46055226405E+03  0.48566177226E+03  0.80575383517E+02 0.  0.
        -11    1    4    4    0    0 -0.42983475457E+02  0.22071553352E+02 -0.62567363485E+02  0.79053194769E+02  0.00000000000E+00 0.  1.
         12    1    4    4    0    0 -0.69080900006E+02  0.46544424627E+02 -0.39798490057E+03  0.40660857749E+03  0.00000000000E+00 0. -1.
        -11    1    3    3    0    0  0.66833430838E+02 -0.52546206239E+02 -0.26610839591E+02  0.89083938235E+02  0.00000000000E+00 0.  1.
         11    1    3    3    0    0  0.38820712313E+02  0.92777189597E+01 -0.88680973379E+02  0.97249364075E+02  0.00000000000E+00 0. -1.
         21    1    1    2  502  501  0.64102323125E+01 -0.25347490699E+02 -0.48844682863E+02  0.55402070422E+02  0.00000000000E+00 0.  1.
<scales pt_clust_5="13000.00000" pt_clust_6="13000.00000" pt_clust_7="13000.00000" pt_clust_8="13000.00000" pt_clust_9="26.14548"></scales>
<clustering>
<clus scale="   26.145">  2  9  1 -1</clus>
<clus scale="   80.575">  5  6 -1 -1</clus>
<clus scale="   91.613">  7  8 -1 -1</clus>
<clus scale="  142.916">  2  5  1 -1</clus>
<clus scale="   26.145">  2  5  1 -1</clus>
</clustering>
</event>
<event>
 9    2  0.2869112E-005  0.9838240E+02  0.7546771E-02  0.1289798E+00
         -1   -1    0    0    0  501 -0.00000000000E+00  0.00000000000E+00  0.59866797380E+02  0.59866797380E+02  0.00000000000E+00 0.  1.
          2   -1    0    0  502    0  0.00000000000E+00 -0.00000000000E+00 -0.41630956643E+03  0.41630956643E+03  0.00000000000E+00 0. -1.
         23    2    1    2    0    0  0.98754563158E+01 -0.13801322435E+02 -0.31798564307E+02  0.98523097495E+02  0.91693243533E+02 0.  0.
         24    2    1    2    0    0 -0.20547329703E+02  0.33011912107E+02 -0.33958029404E+03  0.35108218428E+03  0.80199407202E+02 0.  0.
        -11    1    4    4    0    0 -0.47183976250E+02  0.41219716884E+01 -0.22560094016E+03  0.23051920195E+03  0.00000000000E+00 0.  1.
         12    1    4    4    0    0  0.26636646547E+02  0.28889940419E+02 -0.11397935388E+03  0.12056298233E+03  0.00000000000E+00 0. -1.
        -11    1    3    3    0    0 -0.35881986857E+02 -0.19974208441E+02 -0.32460150745E+02  0.52346416974E+02  0.00000000000E+00 0. -1.
         11    1    3    3    0    0  0.45757443172E+02  0.61728860060E+01  0.66158643741E+00  0.46176680521E+02  0.00000000000E+00 0.  1.
         21    1    1    2  502  501  0.10671873387E+02 -0.19210589673E+02  0.14936089299E+02  0.26571082039E+02  0.00000000000E+00 0.  1.
<scales pt_clust_5="13000.00000" pt_clust_6="13000.00000" pt_clust_7="13000.00000" pt_clust_8="13000.00000" pt_clust_9="21.97580"></scales>
<clustering>
<clus scale="   21.976">  1  9  2 -1</clus>
<clus scale="   80.199">  5  6 -1 -1</clus>
<clus scale="   87.769">  2  5  1 -1</clus>
<clus scale="   91.693">  7  8 -1 -1</clus>
<clus scale="   87.769">  2  5  1 -1</clus>
</clustering>
</event>
<event>
 9    2  0.2869112E-005  0.2953114E+03  0.7546771E-02  0.1087919E+00
         -1   -1    0    0    0  501 -0.00000000000E+00  0.00000000000E+00  0.70455341354E+03  0.70455341354E+03  0.00000000000E+00 0.  1.
          2   -1    0    0  502    0  0.00000000000E+00 -0.00000000000E+00 -0.18543287025E+03  0.18543287025E+03  0.00000000000E+00 0. -1.
         23    2    1    2    0    0  0.27541140339E+03  0.24231897777E+02  0.47686813714E+03  0.55868457771E+03  0.91030825326E+02 0.  0.
         24    2    1    2    0    0 -0.29400734747E+03 -0.33681651641E+02  0.35321957260E+02  0.30932130331E+03  0.82808538167E+02 0.  0.
        -13    1    4    4    0    0 -0.15322985320E+03 -0.52957389594E+02 -0.30089610521E+01  0.16215093854E+03  0.00000000000E+00 0.  1.
         14    1    4    4    0    0 -0.14077749427E+03  0.19275737954E+02  0.38330918312E+02  0.14717036476E+03  0.00000000000E+00 0. -1.
        -11    1    3    3    0    0  0.23918515792E+03  0.51676347133E+02  0.38492389563E+03  0.45612102566E+03  0.00000000000E+00 0.  1.
         11    1    3    3    0    0  0.36226245471E+02 -0.27444449356E+02  0.91944241515E+02  0.10256355205E+03  0.00000000000E+00 0. -1.
         21    1    1    2  502  501  0.18595944078E+02  0.94497538640E+01  0.69304488932E+01  0.21980402774E+02  0.00000000000E+00 0.  1.
<scales pt_clust_5="13000.00000" pt_clust_6="13000.00000" pt_clust_7="13000.00000" pt_clust_8="13000.00000" pt_clust_9="20.85922"></scales>
<clustering>
<clus scale="   20.859">  2  9  1 -1</clus>
<clus scale="   82.809">  5  6 -1 -1</clus>
<clus scale="   91.031">  7  8 -1 -1</clus>
<clus scale="  292.881">  2  5  1 -1</clus>
<clus scale="   20.859">  2  5  1 -1</clus>
</clustering>
</event>
<event>
 9    2  0.2869112E-005  0.9573811E+02  0.7546771E-02  0.1295658E+00
         -1   -1    0    0    0  501 -0.00000000000E+00  0.00000000000E+00  0.28316539642E+02  0.28316539642E+02  0.00000000000E+00 0.  1.
          2   -1    0    0  502    0  0.00000000000E+00 -0.00000000000E+00 -0.97008397625E+03  0.97008397625E+03  0.00000000000E+00 0. -1.
         23    2    1    2    0    0 -0.37241852778E+02 -0.38767186725E+02 -0.12081750545E+03  0.16139810072E+03  0.92534463460E+02 0.  0.
         24    2    1    2    0    0  0.16013319053E+02  0.14036926128E+02 -0.78047545450E+03  0.78503685259E+03  0.81776911004E+02 0.  0.
        -13    1    4    4    0    0  0.26837304325E+02 -0.24349468267E+02 -0.20477791057E+03  0.20795944356E+03  0.00000000000E+00 0.  1.
         14    1    4    4    0    0 -0.10823985272E+02  0.38386394396E+02 -0.57569754393E+03  0.57707740904E+03  0.00000000000E+00 0. -1.
        -13    1    3    3    0    0 -0.63911385517E+02 -0.41626594683E+02 -0.68102615905E+02  0.10225167420E+03  0.00000000000E+00 0.  1.
         13    1    3    3    0    0  0.26669532739E+02  0.28594079578E+01 -0.52714889541E+02  0.59146426517E+02  0.00000000000E+00 0. -1.
         21    1    1    2  502  501  0.21228533725E+02  0.24730260597E+02 -0.40474476664E+02  0.51965562583E+02  0.00000000000E+00 0. -1.
<scales pt_clust_5="13000.00000" pt_clust_6="13000.00000" pt_clust_7="13000.00000" pt_clust_8="13000.00000" pt_clust_9="32.59197"></scales>
<clustering>
<clus scale="   32.592">  1  9  2 -1</clus>
<clus scale="   81.777">  5  6 -1 -1</clus>
<clus scale="   85.385">  2  5  1 -1</clus>
<clus scale="   92.534">  7  8 -1 -1</clus>
<clus scale="   85.385">  2  5  1 -1</clus>
</clustering>
</event>
<event>
 9    2  0.2869112E-005  0.1491103E+03  0.7546771E-02  0.1212745E+00
          2   -1    0    0  502    0  0.00000000000E+00  0.00000000000E+00  0.10211357245E+04  0.10211357245E+04  0.00000000000E+00 0. -1.
         -1   -1    0    0    0  501 -0.00000000000E+00 -0.00000000000E+00 -0.54255358743E+02  0.54255358743E+02  0.00000000000E+00 0.  1.
         23    2    1    2    0    0  0.55861942984E+02  0.52605286740E+02  0.45143390128E+03  0.46697922175E+03  0.91592322047E+02 0.  0.
         24    2    1    2    0    0  0.74359491085E+02 -0.39596224868E+02  0.44414501017E+03  0.45937913030E+03  0.81652926182E+02 0.  0.
        -13    1    4    4    0    0 -0.11147959053E+02 -0.29093957931E+02  0.11473250581E+03  0.11888769183E+03  0.00000000000E+00 0.  1.
         14    1    4    4    0    0  0.85507450138E+02 -0.10502266937E+02  0.32941250436E+03  0.34049143846E+03  0.00000000000E+00 0. -1.
        -11    1    3    3    0    0  0.21725791180E+02  0.69481094620E+02  0.36984188593E+03  0.37693852695E+03  0.00000000000E+00 0. -1.
         11    1    3    3    0    0  0.34136151804E+02 -0.16875807880E+02  0.81592015348E+02  0.90040694800E+02  0.00000000000E+00 0.  1.
         21    1    1    2  502  501 -0.13022143407E+03 -0.13009061872E+02  0.71301454312E+02  0.14903273120E+03  0.00000000000E+00 0.  1.
<scales pt_clust_5="13000.00000" pt_clust_6="13000.00000" pt_clust_7="13000.00000" pt_clust_8="13000.00000" pt_clust_9="117.66361"></scales>
<clustering>
<clus scale="   81.653">  5  6 -1 -1</clus>
<clus scale="   91.592">  7  8 -1 -1</clus>
<clus scale="  117.322">  1  5  2 -1</clus>
<clus scale="  117.664">  2  9  1 -1</clus>
<clus scale="  117.322">  1  5  2 -1</clus>
</clustering>
</event>
<event>
 9    2  0.2869112E-005  0.1043127E+03  0.7546771E-02  0.1279827E+00
          2   -1    0    0  502    0  0.00000000000E+00  0.00000000000E+00  0.50356659099E+03  0.50356659099E+03  0.00000000000E+00 0. -1.
         -1   -1    0    0    0  501 -0.00000000000E+00 -0.00000000000E+00 -0.41986933534E+02  0.41986933534E+02  0.00000000000E+00 0.  1.
         23    2    1    2    0    0  0.18567102006E+02  0.23268899369E+02  0.13514858509E+03  0.16885682180E+03  0.96753848812E+02 0.  0.
         24    2    1    2    0    0  0.98486746926E+01 -0.44821607889E+02  0.32830093533E+03  0.34098295191E+03  0.79886772527E+02 0.  0.
        -13    1    4    4    0    0 -0.19165490607E+02  0.12017959602E+02  0.42518498837E+02  0.48161915728E+02  0.00000000000E+00 0.  1.
         14    1    4    4    0    0  0.29014165299E+02 -0.56839567491E+02  0.28578243650E+03  0.29282103618E+03  0.00000000000E+00 0. -1.
        -13    1    3    3    0    0 -0.34587069595E+02  0.95492577147E+01  0.19493125045E+02  0.40834245801E+02  0.00000000000E+00 0.  1.
         13    1    3    3    0    0  0.53154171601E+02  0.13719641655E+02  0.11565546005E+03  0.12802257600E+03  0.00000000000E+00 0. -1.
         21    1    1    2  502  501 -0.28415776698E+02  0.21552708520E+02 -0.18698629722E+01  0.35713750818E+02  0.00000000000E+00 0.  1.
<scales pt_clust_5="13000.00000" pt_clust_6="13000.00000" pt_clust_7="13000.00000" pt_clust_8="13000.00000" pt_clust_9="35.66477"></scales>
<clustering>
<clus scale="   35.665">  2  9  1 -1</clus>
<clus scale="   79.887">  5  6 -1 -1</clus>
<clus scale="   88.892">  1  5  2 -1</clus>
<clus scale="   96.754">  7  8 -1 -1</clus>
<clus scale="   88.892">  1  5  2 -1</clus>
</clustering>
</event>
<event>
 9    2  0.2869112E-005  0.1755608E+03  0.7546771E-02  0.1175876E+00
         -1   -1    0    0    0  501 -0.00000000000E+00  0.00000000000E+00  0.84211960348E+02  0.84211960348E+02  0.00000000000E+00 0.  1.
          2   -1    0    0  502    0  0.00000000000E+00 -0.00000000000E+00 -0.20790650496E+04  0.20790650496E+04  0.00000000000E+00 0. -1.
         23    2    1    2    0    0  0.13317955169E+03 -0.23626780474E+01 -0.37619389136E+03  0.40935062369E+03  0.91124716649E+02 0.  0.
         24    2    1    2    0    0  0.86055304784E+02  0.12324248360E+03 -0.14308336383E+04  0.14409498847E+04  0.80358226522E+02 0.  0.
        -13    1    4    4    0    0  0.41379074429E+02  0.68340180946E+02 -0.41288417956E+03  0.42054245191E+03  0.00000000000E+00 0.  1.
         14    1    4    4    0    0  0.44676230355E+02  0.54902302650E+02 -0.10179494587E+04  0.10204074328E+04  0.00000000000E+00 0. -1.
        -13    1    3    3    0    0  0.42994642247E+02  0.42578726294E+02 -0.14871271462E+03  0.16055204354E+03  0.00000000000E+00 0. -1.
         13    1    3    3    0    0  0.90184909440E+02 -0.44941404341E+02 -0.22748117674E+03  0.24879858015E+03  0.00000000000E+00 0.  1.
         21    1    1    2  502  501 -0.21923485647E+03 -0.12087980555E+03 -0.18782555963E+03  0.31297650156E+03  0.00000000000E+00 0.  1.
<scales pt_clust_5="13000.00000" pt_clust_6="13000.00000" pt_clust_7="13000.00000" pt_clust_8="13000.00000" pt_clust_9="156.09020"></scales>
<clustering>
<clus scale="   80.358">  5  6 -1 -1</clus>
<clus scale="   91.125">  7  8 -1 -1</clus>
<clus scale="  161.388">  1  7  2 -1</clus>
<clus scale="  156.090">  1  9  2 -1</clus>
<clus scale="  175.561">  2  5  1 -1</clus>
</clustering>
</event>
<event>
 9    2  0.2869112E-005  0.1469240E+03  0.7546771E-02  0.1224104E+00
          2   -1    0    0  502    0  0.00000000000E+00  0.00000000000E+00  0.32406011990E+03  0.32406011990E+03  0.00000000000E+00 0. -1.
         -1   -1    0    0    0  501 -0.00000000000E+00 -0.00000000000E+00 -0.19141579570E+03  0.19141579570E+03  0.00000000000E+00 0.  1.
         23    2    1    2    0    0  0.24194042878E+02 -0.17154054509E+02  0.13045335629E+02  0.97430070458E+02  0.91884843968E+02 0.  0.
         24    2    1    2    0    0  0.10778941220E+03 -0.48616941859E+02  0.20313842146E+03  0.24856341766E+03  0.80847943112E+02 0.  0.
        -11    1    4    4    0    0  0.23166620434E+02 -0.54944792285E+01 -0.55486480893E+00  0.23815740158E+02  0.00000000000E+00 0.  1.
         12    1    4    4    0    0  0.84622791765E+02 -0.43122462630E+02  0.20369328627E+03  0.22474767750E+03  0.00000000000E+00 0. -1.
        -13    1    3    3    0    0 -0.31358851058E+02 -0.34256967342E+01 -0.13544262088E+02  0.34330161277E+02  0.00000000000E+00 0.  1.
         13    1    3    3    0    0  0.55552893936E+02 -0.13728357775E+02  0.26589597718E+02  0.63099909181E+02  0.00000000000E+00 0. -1.
         21    1    1    2  502  501 -0.13198345508E+03  0.65770996368E+02 -0.83539432895E+02  0.16948242748E+03  0.00000000000E+00 0.  1.
<scales pt_clust_5="13000.00000" pt_clust_6="13000.00000" pt_clust_7="13000.00000" pt_clust_8="13000.00000" pt_clust_9="122.67954"></scales>
<clustering>
<clus scale="   80.848">  5  6 -1 -1</clus>
<clus scale="   91.885">  7  8 -1 -1</clus>
<clus scale="   96.553">  2  7  1 -1</clus>
<clus scale="  122.680">  2  9  1 -1</clus>
<clus scale="  146.924">  1  5  2 -1</clus>
</clustering>
</event>
<event>
 9    2  0.2869112E-005  0.9512805E+02  0.7546771E-02  0.1297357E+00
          2   -1    0    0  502    0  0.00000000000E+00  0.00000000000E+00  0.26128329240E+03  0.26128329240E+03  0.00000000000E+00 0. -1.
         -1   -1    0    0    0  501 -0.00000000000E+00 -0.00000000000E+00 -0.14065519038E+03  0.14065519038E+03  0.00000000000E+00 0.  1.
         23    2    1    2    0    0  0.25765994509E+02  0.42281042360E+02 -0.92152986193E+02  0.13956603692E+03  0.92384699930E+02 0.  0.
         24    2    1    2    0    0  0.11969902626E+01 -0.21318697719E+02  0.21219621741E+03  0.22821451100E+03  0.81232436194E+02 0.  0.
        -11    1    4    4    0    0  0.16601898136E+02 -0.11790387975E+02  0.60055700494E+01  0.21229770181E+02  0.00000000000E+00 0.  1.
         12    1    4    4    0    0 -0.15404907873E+02 -0.95283097437E+01  0.20619064736E+03  0.20698474082E+03  0.00000000000E+00 0. -1.
        -13    1    3    3    0    0  0.33989051944E+02  0.14978673077E+02 -0.10266403962E+03  0.10917656035E+03  0.00000000000E+00 0.  1.
         13    1    3    3    0    0 -0.82230574350E+01  0.27302369284E+02  0.10511053425E+02  0.30389476570E+02  0.00000000000E+00 0. -1.
         21    1    1    2  502  501 -0.26962984771E+02 -0.20962344641E+02  0.58487080371E+00  0.34157934869E+02  0.00000000000E+00 0. -1.
<scales pt_clust_5="13000.00000" pt_clust_6="13000.00000" pt_clust_7="13000.00000" pt_clust_8="13000.00000" pt_clust_9="34.15293"></scales>
<clustering>
<clus scale="   34.153">  2  9  1 -1</clus>
<clus scale="   81.232">  5  6 -1 -1</clus>
<clus scale="   84.339">  1  5  2 -1</clus>
<clus scale="   92.385">  7  8 -1 -1</clus>
<clus scale="   84.339">  1  5  2 -1</clus>
</clustering>
</event>
<event>
 9    2  0.2869112E-005  0.1875622E+03  0.7546771E-02  0.1161589E+00
          2   -1    0    0  502    0  0.00000000000E+00  0.00000000000E+00  0.61427689288E+03  0.61427689288E+03  0.00000000000E+00 0. -1.
         -1   -1    0    0    0  501 -0.00000000000E+00 -0.00000000000E+00 -0.43290305303E+03  0.43290305303E+03  0.00000000000E+00 0.  1.
         24    2    1    2    0    0  0.12225580161E+03 -0.50200384047E+02 -0.25669289525E+03  0.29949634460E+03  0.79625739375E+02 0.  0.
         23    2    1    2    0    0 -0.14614944540E+03  0.81505911810E+02  0.57493131528E+03  0.60526571062E+03  0.88304524855E+02 0.  0.
        -13    1    3    3    0    0  0.43983080554E+02 -0.53797375920E+02 -0.16405489270E+03  0.17816474637E+03  0.00000000000E+00 0.  1.
         14    1    3    3    0    0  0.78272721057E+02  0.35969918722E+01 -0.92638002548E+02  0.12133159823E+03  0.00000000000E+00 0. -1.
        -11    1    4    4    0    0 -0.10745474845E+03  0.93059635599E+02  0.36944137613E+03  0.39584536014E+03  0.00000000000E+00 0. -1.
         11    1    4    4    0    0 -0.38694696950E+02 -0.11553723789E+02  0.20548993915E+03  0.20942035048E+03  0.00000000000E+00 0.  1.
         21    1    1    2  502  501  0.23893643785E+02 -0.31305527763E+02 -0.13686458018E+03  0.14241789069E+03  0.00000000000E+00 0.  1.
<scales pt_clust_5="13000.00000" pt_clust_6="13000.00000" pt_clust_7="13000.00000" pt_clust_8="13000.00000" pt_clust_9="39.38200"></scales>
<clustering>
<clus scale="   39.382">  2  9  1 -1</clus>
<clus scale="   79.626">  5  6 -1 -1</clus>
<clus scale="   88.305">  7  8 -1 -1</clus>
<clus scale="  183.636">  2  5  1 -1</clus>
<clus scale="  187.562">  1  5  2 -1</clus>
</clustering>
</event>
<event>
 9    2  0.2869112E-005  0.9628132E+02  0.7546771E-02  0.1293813E+00
          2   -1    0    0  502    0  0.00000000000E+00  0.00000000000E+00  0.87774707238E+03  0.87774707238E+03  0.00000000000E+00 0. -1.
         -1   -1    0    0    0  501 -0.00000000000E+00 -0.00000000000E+00 -0.12444266130E+03  0.12444266130E+03  0.00000000000E+00 0.  1.
         23    2    1    2    0    0  0.14034184408E+02 -0.40244542829E+02 -0.13980506169E+02  0.10038703176E+03  0.89808240342E+02 0.  0.
         24    2    1    2    0    0  0.12905346405E+02  0.32308602839E+02  0.82923871194E+03  0.83378071914E+03  0.79643282499E+02 0.  0.
        -13    1    4    4    0    0  0.25647762731E+02 -0.39507234962E+00  0.86748733153E+02  0.90461630092E+02  0.00000000000E+00 0.  1.
         14    1    4    4    0    0 -0.12742416326E+02  0.32703675189E+02  0.74248997879E+03  0.74331908905E+03  0.00000000000E+00 0. -1.
        -11    1    3    3    0    0 -0.25025857395E+02 -0.20613415387E+02 -0.38444946523E+02  0.50291354579E+02  0.00000000000E+00 0.  1.
         11    1    3    3    0    0  0.39060041803E+02 -0.19631127442E+02  0.24464440354E+02  0.50095677181E+02  0.00000000000E+00 0. -1.
         21    1    1    2  502  501 -0.26939530813E+02  0.79359399900E+01 -0.61953794697E+02  0.68021982780E+02  0.00000000000E+00 0.  1.
<scales pt_clust_5="13000.00000" pt_clust_6="13000.00000" pt_clust_7="13000.00000" pt_clust_8="13000.00000" pt_clust_9="28.08411"></scales>
<clustering>
<clus scale="   28.084">  2  9  1 -1</clus>
<clus scale="   79.643">  5  6 -1 -1</clus>
<clus scale="   86.877">  1  5  2 -1</clus>
<clus scale="   89.808">  7  8 -1 -1</clus>
<clus scale="   86.877">  1  5  2 -1</clus>
</clustering>
</event>
<event>
 9    2  0.2869112E-005  0.9231952E+02  0.7546771E-02  0.1301777E+00
         -3   -1    0    0    0  501 -0.00000000000E+00  0.00000000000E+00  0.19116153688E+03  0.19116153688E+03  0.00000000000E+00 0.  1.
          4   -1    0    0  502    0  0.00000000000E+00 -0.00000000000E+00 -0.39295305415E+03  0.39295305415E+03  0.00000000000E+00 0. -1.
         23    2    1    2    0    0 -0.59323395216E+02  0.30753779502E+02  0.95878948226E+02  0.14733722885E+03  0.89724166866E+02 0.  0.
         24    2    1    2    0    0  0.18938076024E+02 -0.61715995676E+01 -0.35357840963E+03  0.36355881402E+03  0.82222747067E+02 0.  0.
        -11    1    4    4    0    0 -0.20688117457E+02  0.26167711132E+02 -0.13121123256E+03  0.13538513530E+03  0.00000000000E+00 0.  1.
         12    1    4    4    0    0  0.39626193481E+02 -0.32339310700E+02 -0.22236717707E+03  0.22817367873E+03  0.00000000000E+00 0. -1.
        -13    1    3    3    0    0 -0.82472879561E+02  0.16639334978E+02  0.78927725752E+02  0.11536129864E+03  0.00000000000E+00 0.  1.
         13    1    3    3    0    0  0.23149484345E+02  0.14114444525E+02  0.16951222473E+02  0.31975930213E+02  0.00000000000E+00 0. -1.
         21    1    1    2  502  501  0.40385319192E+02 -0.24582179935E+02  0.55907944136E+02  0.73218548156E+02  0.00000000000E+00 0.  1.
<scales pt_clust_5="13000.00000" pt_clust_6="13000.00000" pt_clust_7="13000.00000" pt_clust_8="13000.00000" pt_clust_9="47.27851"></scales>
<clustering>
<clus scale="   47.279">  1  9  2 -1</clus>
<clus scale="   82.223">  5  6 -1 -1</clus>
<clus scale="   85.047">  2  5  1 -1</clus>
<clus scale="   89.724">  7  8 -1 -1</clus>
<clus scale="   85.047">  2  5  1 -1</clus>
</clustering>
</event>
<event>
 9    2  0.2869112E-005  0.1300421E+03  0.7546771E-02  0.1246713E+00
         -1   -1    0    0    0  501 -0.00000000000E+00  0.00000000000E+00  0.36645162871E+02  0.36645162871E+02  0.00000000000E+00 0.  1.
          2   -1    0    0  502    0  0.00000000000E+00 -0.00000000000E+00 -0.83589831769E+03  0.83589831769E+03  0.00000000000E+00 0. -1.
         23    2    1    2    0    0  0.21521437612E+01 -0.81923807240E+02 -0.19094059505E+03  0.22714969610E+03  0.91774352000E+02 0.  0.
         24    2    1    2    0    0 -0.30449711716E+02 -0.17413762528E+02 -0.43409214578E+03  0.44285623789E+03  0.80344460562E+02 0.  0.
        -11    1    4    4    0    0  0.21004200362E+02 -0.78728970840E+01 -0.45209738910E+02  0.50468598491E+02  0.00000000000E+00 0.  1.
         12    1    4    4    0    0 -0.51453912078E+02 -0.95408654439E+01 -0.38888240687E+03  0.39238763940E+03  0.00000000000E+00 0. -1.
        -11    1    3    3    0    0  0.27063353526E+02 -0.92070459171E+02 -0.14396921282E+03  0.17302175816E+03  0.00000000000E+00 0. -1.
         11    1    3    3    0    0 -0.24911209765E+02  0.10146651931E+02 -0.46971382229E+02  0.54127937942E+02  0.00000000000E+00 0.  1.
         21    1    1    2  502  501  0.28297567955E+02  0.99337569768E+02 -0.17422041399E+03  0.20253754657E+03  0.00000000000E+00 0.  1.
<scales pt_clust_5="13000.00000" pt_clust_6="13000.00000" pt_clust_7="13000.00000" pt_clust_8="13000.00000" pt_clust_9="92.13260"></scales>
<clustering>
<clus scale="   80.344">  5  6 -1 -1</clus>
<clus scale="   87.668">  2  5  1 -1</clus>
<clus scale="   91.774">  7  8 -1 -1</clus>
<clus scale="   92.133">  2  9  1 -1</clus>
<clus scale="   87.668">  2  5  1 -1</clus>
</clustering>
</event>
<event>
 9    2  0.2869112E-005  0.9846496E+02  0.7546771E-02  0.1296961E+00
         -1   -1    0    0    0  501 -0.00000000000E+00  0.00000000000E+00  0.80846806210E+02  0.80846806210E+02  0.00000000000E+00 0.  1.
          2   -1    0    0  502    0  0.00000000000E+00 -0.00000000000E+00 -0.40420646446E+03  0.40420646446E+03  0.00000000000E+00 0. -1.
         23    2    1    2    0    0  0.20136832936E+02  0.57194274630E+02  0.14680606542E+02  0.11145100294E+03  0.92353282323E+02 0.  0.
         24    2    1    2    0    0 -0.14883285474E+02 -0.28790709920E+02 -0.33620852357E+03  0.34465891746E+03  0.68579741171E+02 0.  0.
        -13    1    4    4    0    0 -0.22469017927E+02 -0.54066186317E+01 -0.32075090512E+02  0.39533526569E+02  0.00000000000E+00 0.  1.
         14    1    4    4    0    0  0.75857324534E+01 -0.23384091289E+02 -0.30413343306E+03  0.30512539089E+03  0.00000000000E+00 0. -1.
        -11    1    3    3    0    0  0.35111720659E+02  0.74984748508E+02 -0.20174763211E+01  0.82822796663E+02  0.00000000000E+00 0.  1.
         11    1    3    3    0    0 -0.14974887723E+02 -0.17790473878E+02  0.16698082863E+02  0.28628206273E+02  0.00000000000E+00 0. -1.
         21    1    1    2  502  501 -0.52535474619E+01 -0.28403564710E+02 -0.18317412221E+01  0.28943350274E+02  0.00000000000E+00 0. -1.
<scales pt_clust_5="13000.00000" pt_clust_6="13000.00000" pt_clust_7="13000.00000" pt_clust_8="13000.00000" pt_clust_9="28.88533"></scales>
<clustering>
<clus scale="   28.885">  1  9  2 -1</clus>
<clus scale="   68.580">  5  6 -1 -1</clus>
<clus scale="   76.612">  2  5  1 -1</clus>
<clus scale="   92.353">  7  8 -1 -1</clus>
<clus scale="   76.612">  2  5  1 -1</clus>
</clustering>
</event>
<event>
 9    2  0.2869112E-005  0.1460748E+03  0.7546771E-02  0.1210065E+00
         -1   -1    0    0    0  501 -0.00000000000E+00  0.00000000000E+00  0.36227290910E+03  0.36227290910E+03  0.00000000000E+00 0.  1.
          2   -1    0    0  502    0  0.00000000000E+00 -0.00000000000E+00 -0.21180802066E+03  0.21180802066E+03  0.00000000000E+00 0. -1.
         23    2    1    2    0    0 -0.67816363505E+02 -0.98279493488E+01  0.25404687326E+03  0.27835672394E+03  0.90813017786E+02 0.  0.
         24    2    1    2    0    0  0.10137766570E+03  0.62761102262E+02 -0.16083874184E+03  0.21083241643E+03  0.66066783508E+02 0.  0.
        -13    1    4    4    0    0  0.70101272002E+01  0.38133649712E+02 -0.44491659692E+02  0.59015463278E+02  0.00000000000E+00 0.  1.
         14    1    4    4    0    0  0.94367538498E+02  0.24627452550E+02 -0.11634708215E+03  0.15181695316E+03  0.00000000000E+00 0. -1.
        -13    1    3    3    0    0 -0.14995658756E+02 -0.26829128213E+02  0.17457714098E+02  0.35347470684E+02  0.00000000000E+00 0. -1.
         13    1    3    3    0    0 -0.52820704748E+02  0.17001178864E+02  0.23658915917E+03  0.24300925326E+03  0.00000000000E+00 0.  1.
         21    1    1    2  502  501 -0.33561302193E+02 -0.52933152913E+02  0.57256757007E+02  0.84891789387E+02  0.00000000000E+00 0.  1.
<scales pt_clust_5="13000.00000" pt_clust_6="13000.00000" pt_clust_7="13000.00000" pt_clust_8="13000.00000" pt_clust_9="62.67599"></scales>
<clustering>
<clus scale="   62.676">  1  9  2 -1</clus>
<clus scale="   66.067">  5  6 -1 -1</clus>
<clus scale="   90.813">  7  8 -1 -1</clus>
<clus scale="  132.120">  2  5  1 -1</clus>
<clus scale="  132.120">  2  5  1 -1</clus>
</clustering>
</event>
<event>
 9    2  0.2869112E-005  0.9179522E+02  0.7546771E-02  0.1303902E+00
         -1   -1    0    0    0  501 -0.00000000000E+00  0.00000000000E+00  0.10227546159E+03  0.10227546159E+03  0.00000000000E+00 0.  1.
          2   -1    0    0  502    0  0.00000000000E+00 -0.00000000000E+00 -0.18597999031E+03  0.18597999031E+03  0.00000000000E+00 0. -1.
         24    2    1    2    0    0  0.25061585547E+02  0.23183918338E+02  0.37064390854E+02  0.96332709309E+02  0.82101429183E+02 0.  0.
         23    2    1    2    0    0  0.95487169328E+01 -0.10848744058E+02 -0.12474511269E+03  0.15496547437E+03  0.90796926511E+02 0.  0.
        -11    1    3    3    0    0  0.43104718463E+02  0.27396212615E+01  0.50067639595E+02  0.66123300077E+02  0.00000000000E+00 0.  1.
         12    1    3    3    0    0 -0.18043132916E+02  0.20444297077E+02 -0.13003248741E+02  0.30209409233E+02  0.00000000000E+00 0. -1.
        -11    1    4    4    0    0  0.31775486999E+02  0.31080756710E+02 -0.62461519972E+02  0.76662484234E+02  0.00000000000E+00 0.  1.
         11    1    4    4    0    0 -0.22226770067E+02 -0.41929500768E+02 -0.62283592719E+02  0.78302990136E+02  0.00000000000E+00 0. -1.
         21    1    1    2  502  501 -0.34610302480E+02 -0.12335174280E+02  0.39761931143E+01  0.36957268216E+02  0.00000000000E+00 0. -1.
<scales pt_clust_5="13000.00000" pt_clust_6="13000.00000" pt_clust_7="13000.00000" pt_clust_8="13000.00000" pt_clust_9="36.74275"></scales>
<clustering>
<clus scale="   36.743">  1  9  2 -1</clus>
<clus scale="   82.101">  5  6 -1 -1</clus>
<clus scale="   83.204">  1  5  2 -1</clus>
<clus scale="   90.797">  7  8 -1 -1</clus>
<clus scale="   91.795">  2  5  1 -1</clus>
</clustering>
</event>
<event>
 9    2  0.2869112E-005  0.9185482E+02  0.7546771E-02  0.1303703E+00
         -1   -1    0    0    0  501 -0.00000000000E+00  0.00000000000E+00  0.24245118542E+03  0.24245118542E+03  0.00000000000E+00 0.  1.
          2   -1    0    0  502    0  0.00000000000E+00 -0.00000000000E+00 -0.14489013346E+03  0.14489013346E+03  0.00000000000E+00 0. -1.
         23    2    1    2    0    0  0.45717040422E+02 -0.96703590085E+01  0.18307654670E+03  0.20951480362E+03  0.90531029786E+02 0.  0.
         24    2    1    2    0    0 -0.91370942590E+01  0.10375888172E+02 -0.10696435053E+03  0.13541609618E+03  0.81884072159E+02 0.  0.
        -11    1    4    4    0    0 -0.14376807389E+02 -0.34445471908E+02 -0.40465303397E+02  0.55051102665E+02  0.00000000000E+00 0.  1.
         12    1    4    4    0    0  0.52397131296E+01  0.44821360079E+02 -0.66499047130E+02  0.80364993512E+02  0.00000000000E+00 0. -1.
        -11    1    3    3    0    0  0.45672947336E+02 -0.42513654374E+02  0.15195968165E+03  0.16427164628E+03  0.00000000000E+00 0.  1.
         11    1    3    3    0    0  0.44093085933E-01  0.32843295366E+02  0.31116865059E+02  0.45243157337E+02  0.00000000000E+00 0. -1.
         21    1    1    2  502  501 -0.36579946163E+02 -0.70552916313E+00  0.21448855777E+02  0.42410419083E+02  0.00000000000E+00 0.  1.
<scales pt_clust_5="13000.00000" pt_clust_6="13000.00000" pt_clust_7="13000.00000" pt_clust_8="13000.00000" pt_clust_9="36.58675"></scales>
<clustering>
<clus scale="   36.587">  1  9  2 -1</clus>
<clus scale="   81.884">  5  6 -1 -1</clus>
<clus scale="   83.345">  2  5  1 -1</clus>
<clus scale="   90.531">  7  8 -1 -1</clus>
<clus scale="   83.345">  2  5  1 -1</clus>
</clustering>
</event>
<event>
 9    2  0.2869112E-005  0.1727715E+03  0.7546771E-02  0.1176138E+00
          2   -1    0    0  502    0  0.00000000000E+00  0.00000000000E+00  0.63586201034E+03  0.63586201034E+03  0.00000000000E+00 0. -1.
         -1   -1    0    0    0  501 -0.00000000000E+00 -0.00000000000E+00 -0.78680855449E+02  0.78680855449E+02  0.00000000000E+00 0.  1.
         24    2    1    2    0    0 -0.78138508766E+02 -0.13019712699E+03  0.70672381099E+02  0.18656582997E+03  0.82190662685E+02 0.  0.
         23    2    1    2    0    0  0.53607601058E+02  0.13580702129E+03  0.46143462453E+03  0.49245310996E+03  0.90944108524E+02 0.  0.
        -11    1    3    3    0    0 -0.39045213378E+02 -0.12273758383E+03  0.70364911319E+02  0.14676601758E+03  0.00000000000E+00 0.  1.
         12    1    3    3    0    0 -0.39093295388E+02 -0.74595431649E+01  0.30746978050E+00  0.39799812388E+02  0.00000000000E+00 0. -1.
        -11    1    4    4    0    0 -0.78422949456E+01  0.60637000216E+02  0.28079211745E+03  0.28737181595E+03  0.00000000000E+00 0. -1.
         11    1    4    4    0    0  0.61449896003E+02  0.75170021071E+02  0.18064250708E+03  0.20508129401E+03  0.00000000000E+00 0.  1.
         21    1    1    2  502  501  0.24530907708E+02 -0.56098942937E+01  0.25074149262E+02  0.35523925856E+02  0.00000000000E+00 0.  1.
<scales pt_clust_5="13000.00000" pt_clust_6="13000.00000" pt_clust_7="13000.00000" pt_clust_8="13000.00000" pt_clust_9="25.16419"></scales>
<clustering>
<clus scale="   25.164">  2  9  1 -1</clus>
<clus scale="   82.191">  5  6 -1 -1</clus>
<clus scale="   90.944">  7  8 -1 -1</clus>
<clus scale="  168.328">  2  5  1 -1</clus>
<clus scale="  172.771">  1  5  2 -1</clus>
</clustering>
</event>
<event>
 9    2  0.2869112E-005  0.1009190E+03  0.7546771E-02  0.1286283E+00
         -1   -1    0    0    0  501 -0.00000000000E+00  0.00000000000E+00  0.14427051537E+03  0.14427051537E+03  0.00000000000E+00 0.  1.
          2   -1    0    0  502    0  0.00000000000E+00 -0.00000000000E+00 -0.96717358350E+03  0.96717358350E+03  0.00000000000E+00 0. -1.
         23    2    1    2    0    0  0.10158615294E+02  0.51355756829E+02  0.32165848424E+02  0.11282855714E+03  0.94631021747E+02 0.  0.
         24    2    1    2    0    0 -0.31775963594E+02  0.18032303019E+02 -0.90578066587E+03  0.90999447135E+03  0.79476080699E+02 0.  0.
        -13    1    4    4    0    0 -0.20395410820E+02  0.44330348689E+01 -0.52037422587E+02  0.56067084196E+02  0.00000000000E+00 0.  1.
         14    1    4    4    0    0 -0.11380552774E+02  0.13599268150E+02 -0.85374324329E+03  0.85392738715E+03  0.00000000000E+00 0. -1.
        -11    1    3    3    0    0  0.24536237036E+02 -0.21981002978E+02  0.14747591583E+02  0.36092698393E+02  0.00000000000E+00 0.  1.
         11    1    3    3    0    0 -0.14377621742E+02  0.73336759807E+02  0.17418256842E+02  0.76735858745E+02  0.00000000000E+00 0. -1.
         21    1    1    2  502  501  0.21617348300E+02 -0.69388059848E+02  0.50711749318E+02  0.88621070383E+02  0.00000000000E+00 0.  1.
<scales pt_clust_5="13000.00000" pt_clust_6="13000.00000" pt_clust_7="13000.00000" pt_clust_8="13000.00000" pt_clust_9="72.67746"></scales>
<clustering>
<clus scale="   72.677">  1  9  2 -1</clus>
<clus scale="   79.476">  5  6 -1 -1</clus>
<clus scale="   86.868">  2  5  1 -1</clus>
<clus scale="   94.631">  7  8 -1 -1</clus>
<clus scale="   86.868">  2  5  1 -1</clus>
</clustering>
</event>
<event>
 9    2  0.2869112E-005  0.1073641E+03  0.7546771E-02  0.1269933E+00
         -1   -1    0    0    0  501 -0.00000000000E+00  0.00000000000E+00  0.10272795136E+03  0.10272795136E+03  0.00000000000E+00 0.  1.
          2   -1    0    0  502    0  0.00000000000E+00 -0.00000000000E+00 -0.20244330849E+03  0.20244330849E+03  0.00000000000E+00 0. -1.
         23    2    1    2    0    0  0.51734550648E+02  0.15007365203E+02 -0.32603840445E+02  0.11209795885E+03  0.92742963218E+02 0.  0.
         24    2    1    2    0    0 -0.35809619347E+02 -0.45344576788E+02 -0.10261609488E+03  0.14373239590E+03  0.82404364099E+02 0.  0.
        -13    1    4    4    0    0 -0.58567020331E+02 -0.17613660197E+02 -0.45270093435E+02  0.76090198158E+02  0.00000000000E+00 0.  1.
         14    1    4    4    0    0  0.22757400985E+02 -0.27730916591E+02 -0.57346001440E+02  0.67642197745E+02  0.00000000000E+00 0. -1.
        -11    1    3    3    0    0  0.50902525240E+01  0.39600161040E+02 -0.42647047340E+02  0.58419637725E+02  0.00000000000E+00 0. -1.
         11    1    3    3    0    0  0.46644298124E+02 -0.24592795836E+02  0.10043206895E+02  0.53678321129E+02  0.00000000000E+00 0.  1.
         21    1    1    2  502  501 -0.15924931301E+02  0.30337211585E+02  0.35504578186E+02  0.49340905097E+02  0.00000000000E+00 0.  1.
<scales pt_clust_5="13000.00000" pt_clust_6="13000.00000" pt_clust_7="13000.00000" pt_clust_8="13000.00000" pt_clust_9="34.26295"></scales>
<clustering>
<clus scale="   34.263">  1  9  2 -1</clus>
<clus scale="   82.404">  5  6 -1 -1</clus>
<clus scale="   92.743">  7  8 -1 -1</clus>
<clus scale="   98.571">  2  5  1 -1</clus>
<clus scale="   98.571">  2  5  1 -1</clus>
</clustering>
</event>
<event>
 9    2  0.2869112E-005  0.1464248E+03  0.7546771E-02  0.1206645E+00
         -1   -1    0    0    0  501 -0.00000000000E+00  0.00000000000E+00  0.49101581130E+03  0.49101581130E+03  0.00000000000E+00 0.  1.
          2   -1    0    0  502    0  0.00000000000E+00 -0.00000000000E+00 -0.94536572323E+02  0.94536572323E+02  0.00000000000E+00 0. -1.
         24    2    1    2    0    0 -0.13849314129E+02  0.92423170030E+02  0.31481121002E+03  0.33843440859E+03  0.81840730115E+02 0.  0.
         23    2    1    2    0    0  0.42326699188E+02 -0.11236733519E+03 -0.82875462566E+01  0.15067764790E+03  0.90648235906E+02 0.  0.
        -11    1    3    3    0    0  0.25285598201E+02  0.52059600640E+02  0.92411885320E+02  0.10903907576E+03  0.00000000000E+00 0.  1.
         12    1    3    3    0    0 -0.39134912330E+02  0.40363569391E+02  0.22239932470E+03  0.22939533283E+03  0.00000000000E+00 0. -1.
        -11    1    4    4    0    0  0.22760171160E+02 -0.69427536834E+02 -0.49314692726E+02  0.88148438334E+02  0.00000000000E+00 0. -1.
         11    1    4    4    0    0  0.19566528028E+02 -0.42939798357E+02  0.41027146470E+02  0.62529209570E+02  0.00000000000E+00 0.  1.
         21    1    1    2  502  501 -0.28477385059E+02  0.19944165162E+02  0.89955575220E+02  0.96440327130E+02  0.00000000000E+00 0.  1.
<scales pt_clust_5="13000.00000" pt_clust_6="13000.00000" pt_clust_7="13000.00000" pt_clust_8="13000.00000" pt_clust_9="34.76681"></scales>
<clustering>
<clus scale="   34.767">  1  9  2 -1</clus>
<clus scale="   81.841">  5  6 -1 -1</clus>
<clus scale="   90.648">  7  8 -1 -1</clus>
<clus scale="  141.142">  1  5  2 -1</clus>
<clus scale="  146.425">  2  5  1 -1</clus>
</clustering>
</event>
<event>
 9    2  0.2869112E-005  0.1096401E+03  0.7546771E-02  0.1266670E+00
          2   -1    0    0  502    0  0.00000000000E+00  0.00000000000E+00  0.13586394783E+04  0.13586394783E+04  0.00000000000E+00 0. -1.
         -1   -1    0    0    0  501 -0.00000000000E+00 -0.00000000000E+00 -0.17257717002E+02  0.17257717002E+02  0.00000000000E+00 0.  1.
         23    2    1    2    0    0 -0.49909922487E+02 -0.16471175515E+02  0.35953496067E+03  0.37530557515E+03  0.93949916462E+02 0.  0.
         24    2    1    2    0    0  0.55470263775E+02 -0.28760941078E+02  0.90861230343E+03  0.91433529664E+03  0.80799596788E+02 0.  0.
        -13    1    4    4    0    0  0.59668540985E+01  0.23389111901E+02  0.11699696563E+03  0.11946105587E+03  0.00000000000E+00 0.  1.
         14    1    4    4    0    0  0.49503409677E+02 -0.52150052979E+02  0.79161533780E+03  0.79487424077E+03  0.00000000000E+00 0. -1.
        -13    1    3    3    0    0 -0.28903550372E+02  0.38876955145E+02  0.16396713449E+03  0.17097384027E+03  0.00000000000E+00 0.  1.
         13    1    3    3    0    0 -0.21006372115E+02 -0.55348130661E+02  0.19556782618E+03  0.20433173487E+03  0.00000000000E+00 0. -1.
         21    1    1    2  502  501 -0.55603412884E+01  0.45232116593E+02  0.73234497167E+02  0.86256323490E+02  0.00000000000E+00 0.  1.
<scales pt_clust_5="13000.00000" pt_clust_6="13000.00000" pt_clust_7="13000.00000" pt_clust_8="13000.00000" pt_clust_9="45.57260"></scales>
<clustering>
<clus scale="   45.573">  2  9  1 -1</clus>
<clus scale="   80.800">  5  6 -1 -1</clus>
<clus scale="   93.950">  7  8 -1 -1</clus>
<clus scale="   98.605">  1  5  2 -1</clus>
<clus scale="   98.605">  1  5  2 -1</clus>
</clustering>
</event>
<event>
 9    2  0.2869112E-005  0.9860719E+02  0.7546771E-02  0.1287928E+00
         -1   -1    0    0    0  501 -0.00000000000E+00  0.00000000000E+00  0.59783771607E+02  0.59783771607E+02  0.00000000000E+00 0.  1.
          2   -1    0    0  502    0  0.00000000000E+00 -0.00000000000E+00 -0.62812244464E+03  0.62812244464E+03  0.00000000000E+00 0. -1.
         23    2    1    2    0    0 -0.50332710062E+02  0.75540992490E+01 -0.70657124958E+02  0.12553604533E+03  0.90423576859E+02 0.  0.
         24    2    1    2    0    0  0.30527094592E+02 -0.23403774924E+02 -0.52052549230E+03  0.52823338122E+03  0.81265470584E+02 0.  0.
        -11    1    4    4    0    0 -0.25952272143E+02 -0.67310603660E+00 -0.99602186761E+02  0.10292992329E+03  0.00000000000E+00 0.  1.
         12    1    4    4    0    0  0.56479366736E+02 -0.22730668887E+02 -0.42092330554E+03  0.42530345793E+03  0.00000000000E+00 0. -1.
        -11    1    3    3    0    0 -0.18377484798E+02  0.29711521577E+02  0.97063671480E+01  0.36259068178E+02  0.00000000000E+00 0.  1.
         11    1    3    3    0    0 -0.31955225265E+02 -0.22157422328E+02 -0.80363492106E+02  0.89276977152E+02  0.00000000000E+00 0. -1.
         21    1    1    2  502  501  0.19805615470E+02  0.15849675675E+02  0.22843944228E+02  0.34136789700E+02  0.00000000000E+00 0.  1.
<scales pt_clust_5="13000.00000" pt_clust_6="13000.00000" pt_clust_7="13000.00000" pt_clust_8="13000.00000" pt_clust_9="25.36680"></scales>
<clustering>
<clus scale="   25.367">  1  9  2 -1</clus>
<clus scale="   81.265">  5  6 -1 -1</clus>
<clus scale="   90.283">  2  5  1 -1</clus>
<clus scale="   90.424">  7  8 -1 -1</clus>
<clus scale="   90.283">  2  5  1 -1</clus>
</clustering>
</event>
<event>
 9    2  0.2869112E-005  0.1002934E+03  0.7546771E-02  0.1284434E+00
         -1   -1    0    0    0  501 -0.00000000000E+00  0.00000000000E+00  0.20837914273E+03  0.20837914273E+03  0.00000000000E+00 0.  1.
          2   -1    0    0  502    0  0.00000000000E+00 -0.00000000000E+00 -0.13076964349E+03  0.13076964349E+03  0.00000000000E+00 0. -1.
         23    2    1    2    0    0  0.10415140198E+01  0.58793486254E+02  0.11651294364E+03  0.15924858291E+03  0.91252870346E+02 0.  0.
         24    2    1    2    0    0 -0.27622655431E+02 -0.30160416084E+02 -0.81284371367E+02  0.12225861453E+03  0.81653891557E+02 0.  0.
        -11    1    4    4    0    0 -0.44382703299E+02  0.68421882995E+01 -0.21022560624E+02  0.49584150170E+02  0.00000000000E+00 0.  1.
         12    1    4    4    0    0  0.16760047868E+02 -0.37002604384E+02 -0.60261810743E+02  0.72674464358E+02  0.00000000000E+00 0. -1.
        -11    1    3    3    0    0  0.35262454788E+02  0.52178836486E+02  0.38523387449E+02  0.73824948867E+02  0.00000000000E+00 0.  1.
         11    1    3    3    0    0 -0.34220940768E+02  0.66146497689E+01  0.77989556189E+02  0.85423634043E+02  0.00000000000E+00 0. -1.
         21    1    1    2  502  501  0.26581141412E+02 -0.28633070170E+02  0.42380926974E+02  0.57641588782E+02  0.00000000000E+00 0. -1.
<scales pt_clust_5="13000.00000" pt_clust_6="13000.00000" pt_clust_7="13000.00000" pt_clust_8="13000.00000" pt_clust_9="39.06929"></scales>
<clustering>
<clus scale="   39.069">  1  9  2 -1</clus>
<clus scale="   81.654">  5  6 -1 -1</clus>
<clus scale="   91.253">  7  8 -1 -1</clus>
<clus scale="   91.646">  2  5  1 -1</clus>
<clus scale="   91.646">  2  5  1 -1</clus>
</clustering>
</event>
<event>
 9    2  0.2869112E-005  0.9658772E+02  0.7546771E-02  0.1293151E+00
          2   -1    0    0  502    0  0.00000000000E+00  0.00000000000E+00  0.32113450659E+03  0.32113450659E+03  0.00000000000E+00 0. -1.
         -1   -1    0    0    0  501 -0.00000000000E+00 -0.00000000000E+00 -0.53213642825E+02  0.53213642825E+02  0.00000000000E+00 0.  1.
         24    2    1    2    0    0 -0.17948408485E+02 -0.10782776349E+02  0.10547609733E+03  0.13607321533E+03  0.83380448482E+02 0.  0.
         23    2    1    2    0    0 -0.20127324668E+02  0.39583924661E+02  0.16005153789E+03  0.19047331128E+03  0.93228703947E+02 0.  0.
        -11    1    3    3    0    0 -0.31660993124E+02  0.91474844122E+01  0.57487975038E+01  0.33453604132E+02  0.00000000000E+00 0.  1.
         12    1    3    3    0    0  0.13712584639E+02 -0.19930260762E+02  0.99727299831E+02  0.10261961120E+03  0.00000000000E+00 0. -1.
        -11    1    4    4    0    0  0.96425511178E+01  0.36857486498E+02  0.12758954623E+02  0.40177655806E+02  0.00000000000E+00 0.  1.
         11    1    4    4    0    0 -0.29769875786E+02  0.27264381636E+01  0.14729258327E+03  0.15029565548E+03  0.00000000000E+00 0. -1.
         21    1    1    2  502  501  0.38075733153E+02 -0.28801148312E+02  0.23932285366E+01  0.47801622797E+02  0.00000000000E+00 0.  1.
<scales pt_clust_5="13000.00000" pt_clust_6="13000.00000" pt_clust_7="13000.00000" pt_clust_8="13000.00000" pt_clust_9="47.74168"></scales>
<clustering>
<clus scale="   47.742">  2  9  1 -1</clus>
<clus scale="   83.380">  5  6 -1 -1</clus>
<clus scale="   87.120">  2  5  1 -1</clus>
<clus scale="   93.229">  7  8 -1 -1</clus>
<clus scale="   96.588">  1  5  2 -1</clus>
</clustering>
</event>
<event>
 9    2  0.2869112E-005  0.1961718E+03  0.7546771E-02  0.1153610E+00
          2   -1    0    0  502    0  0.00000000000E+00  0.00000000000E+00  0.12450675484E+03  0.12450675484E+03  0.00000000000E+00 0. -1.
         -1   -1    0    0    0  501 -0.00000000000E+00 -0.00000000000E+00 -0.55957004137E+03  0.55957004137E+03  0.00000000000E+00 0.  1.
         23    2    1    2    0    0 -0.12867263460E+03 -0.10121409442E+03 -0.30382596539E+03  0.35718090414E+03  0.92016526961E+02 0.  0.
         24    2    1    2    0    0  0.12407570698E+03  0.12542542095E+03 -0.29755256608E+01  0.19628805058E+03  0.85987369814E+02 0.  0.
        -11    1    4    4    0    0  0.49419787152E+02 -0.10031227911E+01  0.11835813515E+00  0.49430108498E+02  0.00000000000E+00 0.  1.
         12    1    4    4    0    0  0.74655919824E+02  0.12642854374E+03 -0.30938837959E+01  0.14685794209E+03  0.00000000000E+00 0. -1.
        -11    1    3    3    0    0 -0.85134025221E+02 -0.53943639697E+02 -0.26144561060E+03  0.28019908246E+03  0.00000000000E+00 0.  1.
         11    1    3    3    0    0 -0.43538609379E+02 -0.47270454719E+02 -0.42380354794E+02  0.76981821676E+02  0.00000000000E+00 0. -1.
         21    1    1    2  502  501  0.45969276243E+01 -0.24211326531E+02 -0.12826179548E+03  0.13060784148E+03  0.00000000000E+00 0. -1.
<scales pt_clust_5="13000.00000" pt_clust_6="13000.00000" pt_clust_7="13000.00000" pt_clust_8="13000.00000" pt_clust_9="24.64386"></scales>
<clustering>
<clus scale="   24.644">  2  9  1 -1</clus>
<clus scale="   85.987">  5  6 -1 -1</clus>
<clus scale="   92.017">  7  8 -1 -1</clus>
<clus scale="  193.417">  1  5  2 -1</clus>
<clus scale="  193.417">  1  5  2 -1</clus>
</clustering>
</event>
<event>
 9    2  0.2869112E-005  0.9275443E+02  0.7546771E-02  0.1307597E+00
          2   -1    0    0  502    0  0.00000000000E+00  0.00000000000E+00  0.18219523729E+03  0.18219523729E+03  0.00000000000E+00 0. -1.
         -1   -1    0    0    0  501 -0.00000000000E+00 -0.00000000000E+00 -0.17169657565E+03  0.17169657565E+03  0.00000000000E+00 0.  1.
         23    2    1    2    0    0  0.63720559783E+01  0.41669485629E+02 -0.37015963391E+02  0.10806754553E+03  0.92365922941E+02 0.  0.
         24    2    1    2    0    0  0.99700541720E+01  0.25081782108E+01  0.13025898907E+03  0.15061208160E+03  0.74905954051E+02 0.  0.
        -13    1    4    4    0    0 -0.56785792970E+00  0.35056342409E+02  0.95974009046E+02  0.10217768846E+03  0.00000000000E+00 0.  1.
         14    1    4    4    0    0  0.10537912102E+02 -0.32548164198E+02  0.34284980029E+02  0.48434393149E+02  0.00000000000E+00 0. -1.
        -13    1    3    3    0    0  0.15052871404E+02 -0.17203176111E+02  0.16374130539E+02  0.28118505592E+02  0.00000000000E+00 0. -1.
         13    1    3    3    0    0 -0.86808154254E+01  0.58872661741E+02 -0.53390093930E+02  0.79949039936E+02  0.00000000000E+00 0.  1.
         21    1    1    2  502  501 -0.16342110150E+02 -0.44177663840E+02 -0.82744364045E+02  0.95212185816E+02  0.00000000000E+00 0. -1.
<scales pt_clust_5="13000.00000" pt_clust_6="13000.00000" pt_clust_7="13000.00000" pt_clust_8="13000.00000" pt_clust_9="47.10340"></scales>
<clustering>
<clus scale="   47.103">  2  9  1 -1</clus>
<clus scale="   74.906">  5  6 -1 -1</clus>
<clus scale="   75.384">  1  5  2 -1</clus>
<clus scale="   92.366">  7  8 -1 -1</clus>
<clus scale="   75.384">  1  5  2 -1</clus>
</clustering>
</event>
<event>
 9    2  0.2869112E-005  0.1212849E+03  0.7546771E-02  0.1244156E+00
         -1   -1    0    0    0  501 -0.00000000000E+00  0.00000000000E+00  0.94425705513E+02  0.94425705513E+02  0.00000000000E+00 0.  1.
          2   -1    0    0  502    0  0.00000000000E+00 -0.00000000000E+00 -0.23998824976E+03  0.23998824976E+03  0.00000000000E+00 0. -1.
         24    2    1    2    0    0 -0.38634518088E+02 -0.47869066167E+02  0.84846330949E+01  0.10236167159E+03  0.81374746262E+02 0.  0.
         23    2    1    2    0    0  0.76490839299E+02  0.44804293181E+02 -0.14490290983E+03  0.19298680637E+03  0.91590288638E+02 0.  0.
        -11    1    3    3    0    0 -0.78274041733E+01 -0.45474755359E+02  0.37889748977E+02  0.59706404252E+02  0.00000000000E+00 0.  1.
         12    1    3    3    0    0 -0.30807113915E+02 -0.23943108073E+01 -0.29405115882E+02  0.42655267342E+02  0.00000000000E+00 0. -1.
        -13    1    4    4    0    0  0.54626019658E+02 -0.15344320704E+02 -0.37666100350E+02  0.68104223930E+02  0.00000000000E+00 0.  1.
         13    1    4    4    0    0  0.21864819641E+02  0.60148613885E+02 -0.10723680948E+03  0.12488258244E+03  0.00000000000E+00 0. -1.
         21    1    1    2  502  501 -0.37856321211E+02  0.30647729853E+01 -0.91442675170E+01  0.39065477311E+02  0.00000000000E+00 0. -1.
<scales pt_clust_5="13000.00000" pt_clust_6="13000.00000" pt_clust_7="13000.00000" pt_clust_8="13000.00000" pt_clust_9="37.98018"></scales>
<clustering>
<clus scale="   37.980">  1  9  2 -1</clus>
<clus scale="   81.375">  5  6 -1 -1</clus>
<clus scale="   91.590">  7  8 -1 -1</clus>
<clus scale="  113.768">  1  5  2 -1</clus>
<clus scale="  121.285">  2  5  1 -1</clus>
</clustering>
</event>
<event>
 9    2  0.2869112E-005  0.9403833E+02  0.7546771E-02  0.1298215E+00
         -1   -1    0    0    0  501 -0.00000000000E+00  0.00000000000E+00  0.45609387592E+03  0.45609387592E+03  0.00000000000E+00 0.  1.
          2   -1    0    0  502    0  0.00000000000E+00 -0.00000000000E+00 -0.11271126323E+04  0.11271126323E+04  0.00000000000E+00 0. -1.
         23    2    1    2    0    0  0.71038614489E+01 -0.15724073976E+02  0.32880140821E+03  0.34109083133E+03  0.89077931203E+02 0.  0.
         24    2    1    2    0    0  0.11464238213E+02  0.27970198461E+02 -0.11182833546E+04  0.11215824065E+04  0.80471564751E+02 0.  0.
        -11    1    4    4    0    0  0.24873140882E+02 -0.21810123231E+00 -0.10842102350E+03  0.11123775907E+03  0.00000000000E+00 0.  1.
         12    1    4    4    0    0 -0.13408902669E+02  0.28188299694E+02 -0.10098623311E+04  0.10103446474E+04  0.00000000000E+00 0. -1.
        -13    1    3    3    0    0  0.35685233872E+02  0.21102674418E+02  0.19624735850E+03  0.20057862424E+03  0.00000000000E+00 0. -1.
         13    1    3    3    0    0 -0.28581372423E+02 -0.36826748394E+02  0.13255404971E+03  0.14051220709E+03  0.00000000000E+00 0.  1.
         21    1    1    2  502  501 -0.18568099662E+02 -0.12246124485E+02  0.11846318998E+03  0.12053327038E+03  0.00000000000E+00 0.  1.
<scales pt_clust_5="13000.00000" pt_clust_6="13000.00000" pt_clust_7="13000.00000" pt_clust_8="13000.00000" pt_clust_9="22.24279"></scales>
<clustering>
<clus scale="   22.243">  1  9  2 -1</clus>
<clus scale="   80.472">  5  6 -1 -1</clus>
<clus scale="   85.930">  2  5  1 -1</clus>
<clus scale="   89.078">  7  8 -1 -1</clus>
<clus scale="   85.930">  2  5  1 -1</clus>
</clustering>
</event>
<event>
 9    2  0.2869112E-005  0.1915598E+03  0.7546771E-02  0.1158201E+00
          2   -1    0    0  502    0  0.00000000000E+00  0.00000000000E+00  0.29933881141E+03  0.29933881141E+03  0.00000000000E+00 0. -1.
         -1   -1    0    0    0  501 -0.00000000000E+00 -0.00000000000E+00 -0.19730915287E+03  0.19730915287E+03  0.00000000000E+00 0.  1.
         24    2    1    2    0    0  0.10344567662E+03  0.13461319366E+03  0.58276947436E+02  0.19706354915E+03  0.81339534549E+02 0.  0.
         23    2    1    2    0    0 -0.14097279336E+03 -0.95418878125E+02  0.10292753762E+03  0.21929656453E+03  0.92297423807E+02 0.  0.
        -11    1    3    3    0    0  0.11043217559E+03  0.88889029315E+02  0.48120869782E+02  0.14970685705E+03  0.00000000000E+00 0.  1.
         12    1    3    3    0    0 -0.69864989731E+01  0.45724164348E+02  0.10156077654E+02  0.47356692099E+02  0.00000000000E+00 0. -1.
        -13    1    4    4    0    0 -0.27450848557E+02 -0.10112882968E+02 -0.16644195452E+02  0.33657818269E+02  0.00000000000E+00 0.  1.
         13    1    4    4    0    0 -0.11352194481E+03 -0.85305995157E+02  0.11957173307E+03  0.18563874626E+03  0.00000000000E+00 0. -1.
         21    1    1    2  502  501  0.37527116742E+02 -0.39194315539E+02 -0.59174826514E+02  0.80287850604E+02  0.00000000000E+00 0. -1.
<scales pt_clust_5="13000.00000" pt_clust_6="13000.00000" pt_clust_7="13000.00000" pt_clust_8="13000.00000" pt_clust_9="54.26305"></scales>
<clustering>
<clus scale="   54.263">  2  9  1 -1</clus>
<clus scale="   81.340">  5  6 -1 -1</clus>
<clus scale="   92.297">  7  8 -1 -1</clus>
<clus scale="  186.527">  2  5  1 -1</clus>
<clus scale="  191.560">  1  5  2 -1</clus>
</clustering>
</event>
<event>
 9    2  0.2869112E-005  0.9796510E+02  0.7546771E-02  0.1290090E+00
         -1   -1    0    0    0  501 -0.00000000000E+00  0.00000000000E+00  0.20473532087E+02  0.20473532087E+02  0.00000000000E+00 0.  1.
          2   -1    0    0  502    0  0.00000000000E+00 -0.00000000000E+00 -0.81035793825E+03  0.81035793825E+03  0.00000000000E+00 0. -1.
         23    2    1    2    0    0  0.42904147807E+02  0.50218676588E+01 -0.22955264445E+03  0.25052888103E+03  0.90577693731E+02 0.  0.
         24    2    1    2    0    0 -0.27492919556E+02  0.28958159442E+02 -0.50915174279E+03  0.51696585009E+03  0.80148345886E+02 0.  0.
        -13    1    4    4    0    0  0.22708313476E+02  0.31961177992E+02 -0.23134052824E+03  0.23463934966E+03  0.00000000000E+00 0.  1.
         14    1    4    4    0    0 -0.50201233032E+02 -0.30030185501E+01 -0.27781121454E+03  0.28232650043E+03  0.00000000000E+00 0. -1.
        -13    1    3    3    0    0  0.50701170263E+02 -0.24748369142E+02 -0.20021058447E+03  0.20800809738E+03  0.00000000000E+00 0. -1.
         13    1    3    3    0    0 -0.77970224552E+01  0.29770236801E+02 -0.29342059981E+02  0.42520783651E+02  0.00000000000E+00 0.  1.
         21    1    1    2  502  501 -0.15411228252E+02 -0.33980027101E+02 -0.51180018927E+02  0.63336739223E+02  0.00000000000E+00 0. -1.
<scales pt_clust_5="13000.00000" pt_clust_6="13000.00000" pt_clust_7="13000.00000" pt_clust_8="13000.00000" pt_clust_9="37.31150"></scales>
<clustering>
<clus scale="   37.312">  1  9  2 -1</clus>
<clus scale="   80.148">  5  6 -1 -1</clus>
<clus scale="   88.412">  2  5  1 -1</clus>
<clus scale="   90.578">  7  8 -1 -1</clus>
<clus scale="   88.412">  2  5  1 -1</clus>
</clustering>
</event>
<event>
 9    2  0.2869112E-005  0.1351916E+03  0.7546771E-02  0.1222366E+00
         -1   -1    0    0    0  501 -0.00000000000E+00  0.00000000000E+00  0.18442188536E+03  0.18442188536E+03  0.00000000000E+00 0.  1.
          2   -1    0    0  502    0  0.00000000000E+00 -0.00000000000E+00 -0.26238225398E+03  0.26238225398E+03  0.00000000000E+00 0. -1.
         24    2    1    2    0    0 -0.13284870328E+03  0.24525225797E+02 -0.11913473068E+03  0.19729310985E+03  0.80506039990E+02 0.  0.
         23    2    1    2    0    0  0.52006274375E+02 -0.52225042048E+02 -0.47633002254E+02  0.12626523407E+03  0.90784904247E+02 0.  0.
        -13    1    3    3    0    0 -0.64680974161E+02  0.52654047734E+02 -0.59440777992E+02  0.10241720192E+03  0.00000000000E+00 0.  1.
         14    1    3    3    0    0 -0.68167729123E+02 -0.28128821937E+02 -0.59693952689E+02  0.94875907927E+02  0.00000000000E+00 0. -1.
        -13    1    4    4    0    0  0.75399516165E+02 -0.26256585526E+02 -0.21679503964E+02  0.82731470515E+02  0.00000000000E+00 0.  1.
         13    1    4    4    0    0 -0.23393241790E+02 -0.25968456521E+02 -0.25953498289E+02  0.43533763552E+02  0.00000000000E+00 0. -1.
         21    1    1    2  502  501  0.80842428908E+02  0.27699816251E+02  0.88807364312E+02  0.12324579542E+03  0.00000000000E+00 0.  1.
<scales pt_clust_5="13000.00000" pt_clust_6="13000.00000" pt_clust_7="13000.00000" pt_clust_8="13000.00000" pt_clust_9="85.45629"></scales>
<clustering>
<clus scale="   80.506">  5  6 -1 -1</clus>
<clus scale="   85.456">  1  9  2 -1</clus>
<clus scale="   90.785">  7  8 -1 -1</clus>
<clus scale="  128.515">  1  5  2 -1</clus>
<clus scale="  135.192">  2  5  1 -1</clus>
</clustering>
</event>
<event>
 9    2  0.2869112E-005  0.1775839E+03  0.7546771E-02  0.1171885E+00
         -1   -1    0    0    0  501 -0.00000000000E+00  0.00000000000E+00  0.37517075833E+03  0.37517075833E+03  0.00000000000E+00 0.  1.
          2   -1    0    0  502    0  0.00000000000E+00 -0.00000000000E+00 -0.11308539846E+03  0.11308539846E+03  0.00000000000E+00 0. -1.
         23    2    1    2    0    0 -0.14683191202E+03  0.23637982228E+02  0.17911876485E+03  0.25179987621E+03  0.95923308666E+02 0.  0.
         24    2    1    2    0    0  0.13900201835E+03 -0.67659050438E+02  0.76706388168E+02  0.19130817020E+03  0.82556876088E+02 0.  0.
        -11    1    4    4    0    0  0.14328898520E+02 -0.40848381177E+02  0.39158214727E+02  0.58371854161E+02  0.00000000000E+00 0.  1.
         12    1    4    4    0    0  0.12467311983E+03 -0.26810669261E+02  0.37548173441E+02  0.13293631604E+03  0.00000000000E+00 0. -1.
        -13    1    3    3    0    0 -0.16596005165E+02  0.36917135299E+02  0.18261909047E+02  0.44404950041E+02  0.00000000000E+00 0. -1.
         13    1    3    3    0    0 -0.13023590686E+03 -0.13279153071E+02  0.16085685580E+03  0.20739492617E+03  0.00000000000E+00 0.  1.
         21    1    1    2  502  501  0.78298936757E+01  0.44021068211E+02  0.62602068468E+01  0.45148110383E+02  0.00000000000E+00 0. -1.
<scales pt_clust_5="13000.00000" pt_clust_6="13000.00000" pt_clust_7="13000.00000" pt_clust_8="13000.00000" pt_clust_9="44.71199"></scales>
<clustering>
<clus scale="   44.712">  2  9  1 -1</clus>
<clus scale="   82.557">  5  6 -1 -1</clus>
<clus scale="   95.923">  7  8 -1 -1</clus>
<clus scale="  170.735">  2  5  1 -1</clus>
<clus scale="   44.712">  2  5  1 -1</clus>
</clustering>
</event>
<event>
 9    2  0.4834324E-005  0.9902521E+02  0.7546771E-02  0.1287051E+00
         -1   -1    0    0    0  501 -0.00000000000E+00  0.00000000000E+00  0.18291258116E+03  0.18291258116E+03  0.00000000000E+00 0.  1.
          2   -1    0    0  502    0  0.00000000000E+00 -0.00000000000E+00 -0.49622815181E+03  0.49622815181E+03  0.00000000000E+00 0. -1.
         24    2    1    2    0    0 -0.24783911346E+02  0.16346348334E+02 -0.76845896640E+01  0.86571512153E+02  0.80957571805E+02 0.  0.
         23    2    1    2    0    0  0.14559849565E+02 -0.40532981383E+02 -0.44226681188E+03  0.45343304672E+03  0.90258978317E+02 0.  0.
        -11    1    3    3    0    0 -0.54171399791E+02  0.10457379163E+02  0.15997509039E+01  0.55194714758E+02  0.00000000000E+00 0.  1.
         12    1    3    3    0    0  0.29387488445E+02  0.58889691707E+01 -0.92843405679E+01  0.31376797395E+02  0.00000000000E+00 0. -1.
        -11    1    4    4    0    0 -0.32517924080E+02 -0.31700583763E+01 -0.83458605278E+02  0.89625908372E+02  0.00000000000E+00 0.  1.
         11    1    4    4    0    0  0.47077773645E+02 -0.37362923007E+02 -0.35880820660E+03  0.36380713835E+03  0.00000000000E+00 0. -1.
         21    1    1    2  502  501  0.10224061781E+02  0.24186633049E+02  0.13663583089E+03  0.13913617409E+03  0.00000000000E+00 0.  1.
<scales pt_clust_5="13000.00000" pt_clust_6="13000.00000" pt_clust_7="13000.00000" pt_clust_8="13000.00000" pt_clust_9="26.25880"></scales>
<clustering>
<clus scale="   26.259">  1  9  2 -1</clus>
<clus scale="   80.958">  5  6 -1 -1</clus>
<clus scale="   90.259">  7  8 -1 -1</clus>
<clus scale="   90.628">  1  5  2 -1</clus>
<clus scale="   99.025">  2  5  1 -1</clus>
</clustering>
</event>
<event>
 9    2  0.2869112E-005  0.1078875E+03  0.7546771E-02  0.1270270E+00
          2   -1    0    0  502    0  0.00000000000E+00  0.00000000000E+00  0.32300308150E+03  0.32300308150E+03  0.00000000000E+00 0. -1.
         -1   -1    0    0    0  501 -0.00000000000E+00 -0.00000000000E+00 -0.92537347255E+02  0.92537347255E+02  0.00000000000E+00 0.  1.
         23    2    1    2    0    0  0.47260164953E+02  0.67122577629E+02  0.46691897175E+02  0.13315050371E+03  0.93861385875E+02 0.  0.
         24    2    1    2    0    0 -0.48882610271E+01 -0.48008587865E+02  0.20927693432E+03  0.22936982681E+03  0.80529265560E+02 0.  0.
        -13    1    4    4    0    0 -0.12021651991E+02  0.18285290167E+02  0.24091151882E+02  0.32546206416E+02  0.00000000000E+00 0.  1.
         14    1    4    4    0    0  0.71333909637E+01 -0.66293878032E+02  0.18518578243E+03  0.19682362040E+03  0.00000000000E+00 0. -1.
        -11    1    3    3    0    0  0.24700684365E+02  0.28730073215E+02  0.72412733109E+02  0.81726035212E+02  0.00000000000E+00 0. -1.
         11    1    3    3    0    0  0.22559480588E+02  0.38392504414E+02 -0.25720835934E+02  0.51424468502E+02  0.00000000000E+00 0.  1.
         21    1    1    2  502  501 -0.42371903925E+02 -0.19113989764E+02 -0.25503097246E+02  0.53020098228E+02  0.00000000000E+00 0. -1.
<scales pt_clust_5="13000.00000" pt_clust_6="13000.00000" pt_clust_7="13000.00000" pt_clust_8="13000.00000" pt_clust_9="46.48358"></scales>
<clustering>
<clus scale="   46.484">  2  9  1 -1</clus>
<clus scale="   80.529">  5  6 -1 -1</clus>
<clus scale="   93.861">  7  8 -1 -1</clus>
<clus scale="   96.513">  1  5  2 -1</clus>
<clus scale="   96.513">  1  5  2 -1</clus>
</clustering>
</event>
<event>
 9    2  0.2869112E-005  0.9534807E+02  0.7546771E-02  0.1294878E+00
          2   -1    0    0  502    0  0.00000000000E+00  0.00000000000E+00  0.13188678124E+04  0.13188678124E+04  0.00000000000E+00 0. -1.
         -1   -1    0    0    0  501 -0.00000000000E+00 -0.00000000000E+00 -0.23212437551E+03  0.23212437551E+03  0.00000000000E+00 0.  1.
         23    2    1    2    0    0  0.16078105540E+02  0.23632884110E+02 -0.19098421507E+03  0.21228309458E+03  0.88159645812E+02 0.  0.
         24    2    1    2    0    0 -0.36449094025E+02 -0.10180905923E+01  0.12987540648E+04  0.13017156331E+04  0.79824155055E+02 0.  0.
        -11    1    4    4    0    0 -0.22296401891E+02  0.18635969065E+02  0.15472067775E+03  0.15742590957E+03  0.00000000000E+00 0.  1.
         12    1    4    4    0    0 -0.14152692133E+02 -0.19654059658E+02  0.11440333871E+04  0.11442897236E+04  0.00000000000E+00 0. -1.
        -11    1    3    3    0    0  0.26142118829E+02 -0.56612049191E+01 -0.98257987286E+01  0.28495717900E+02  0.00000000000E+00 0. -1.
         11    1    3    3    0    0 -0.10064013289E+02  0.29294089029E+02 -0.18115841634E+03  0.18378737668E+03  0.00000000000E+00 0.  1.
         21    1    1    2  502  501  0.20370988485E+02 -0.22614793518E+02 -0.21026412860E+02  0.36993460171E+02  0.00000000000E+00 0.  1.
<scales pt_clust_5="13000.00000" pt_clust_6="13000.00000" pt_clust_7="13000.00000" pt_clust_8="13000.00000" pt_clust_9="30.43692"></scales>
<clustering>
<clus scale="   30.437">  2  9  1 -1</clus>
<clus scale="   79.824">  5  6 -1 -1</clus>
<clus scale="   87.699">  1  5  2 -1</clus>
<clus scale="   88.160">  7  8 -1 -1</clus>
<clus scale="   87.699">  1  5  2 -1</clus>
</clustering>
</event>
<event>
 9    2  0.2869112E-005  0.1128470E+03  0.7546771E-02  0.1260258E+00
          2   -1    0    0  502    0  0.00000000000E+00  0.00000000000E+00  0.15204852542E+03  0.15204852542E+03  0.00000000000E+00 0. -1.
         -1   -1    0    0    0  501 -0.00000000000E+00 -0.00000000000E+00 -0.14297391096E+03  0.14297391096E+03  0.00000000000E+00 0.  1.
         23    2    1    2    0    0  0.19401235940E+01 -0.52359878500E+02 -0.73465442922E+02  0.12935149886E+03  0.92678573566E+02 0.  0.
         24    2    1    2    0    0 -0.18774180068E+02  0.64746104816E+02  0.95132370384E+02  0.14127072427E+03  0.79766670458E+02 0.  0.
        -13    1    4    4    0    0 -0.20222607482E+02  0.26297079860E+02 -0.54152315887E+01  0.33612720742E+02  0.00000000000E+00 0.  1.
         14    1    4    4    0    0  0.14484274142E+01  0.38449024956E+02  0.10054760197E+03  0.10765800353E+03  0.00000000000E+00 0. -1.
        -11    1    3    3    0    0 -0.32487140534E+02  0.30043051380E+01 -0.21049373657E+01  0.32693591279E+02  0.00000000000E+00 0. -1.
         11    1    3    3    0    0  0.34427264128E+02 -0.55364183638E+02 -0.71360505557E+02  0.96657907584E+02  0.00000000000E+00 0.  1.
         21    1    1    2  502  501  0.16834056474E+02 -0.12386226316E+02 -0.12592312999E+02  0.24400213244E+02  0.00000000000E+00 0.  1.
<scales pt_clust_5="13000.00000" pt_clust_6="13000.00000" pt_clust_7="13000.00000" pt_clust_8="13000.00000" pt_clust_9="20.89986"></scales>
<clustering>
<clus scale="   20.900">  2  9  1 -1</clus>
<clus scale="   79.767">  5  6 -1 -1</clus>
<clus scale="   92.679">  7  8 -1 -1</clus>
<clus scale="  102.508">  1  5  2 -1</clus>
<clus scale="  102.508">  1  5  2 -1</clus>
</clustering>
</event>
<event>
 9    2  0.2869112E-005  0.9352698E+02  0.7546771E-02  0.1298762E+00
          2   -1    0    0  502    0  0.00000000000E+00  0.00000000000E+00  0.13873933368E+03  0.13873933368E+03  0.00000000000E+00 0. -1.
         -1   -1    0    0    0  501 -0.00000000000E+00 -0.00000000000E+00 -0.23476926837E+03  0.23476926837E+03  0.00000000000E+00 0.  1.
         23    2    1    2    0    0 -0.27464208516E+02  0.18665227353E+02 -0.97815097771E+02  0.13888167828E+03  0.92831318796E+02 0.  0.
         24    2    1    2    0    0 -0.14366973504E+02 -0.50353665003E+01  0.96636707316E+02  0.13006863218E+03  0.85717157159E+02 0.  0.
        -11    1    4    4    0    0 -0.31167671194E+02  0.93673107705E+01  0.17025157433E+01  0.32589397027E+02  0.00000000000E+00 0.  1.
         12    1    4    4    0    0  0.16800697690E+02 -0.14402677271E+02  0.94934191573E+02  0.97479235148E+02  0.00000000000E+00 0. -1.
        -11    1    3    3    0    0  0.31555553969E+02  0.17735511043E+02 -0.55472016480E+02  0.66237798504E+02  0.00000000000E+00 0. -1.
         11    1    3    3    0    0 -0.59019762485E+02  0.92971630999E+00 -0.42343081291E+02  0.72643879780E+02  0.00000000000E+00 0.  1.
         21    1    1    2  502  501  0.41831182020E+02 -0.13629860853E+02 -0.94851544237E+02  0.10455829159E+03  0.00000000000E+00 0.  1.
<scales pt_clust_5="13000.00000" pt_clust_6="13000.00000" pt_clust_7="13000.00000" pt_clust_8="13000.00000" pt_clust_9="43.99569"></scales>
<clustering>
<clus scale="   43.996">  2  9  1 -1</clus>
<clus scale="   85.717">  5  6 -1 -1</clus>
<clus scale="   86.470">  1  5  2 -1</clus>
<clus scale="   92.831">  7  8 -1 -1</clus>
<clus scale="   86.470">  1  5  2 -1</clus>
</clustering>
</event>
<event>
 9    2  0.2869112E-005  0.1257078E+03  0.7546771E-02  0.1249467E+00
         -1   -1    0    0    0  501 -0.00000000000E+00  0.00000000000E+00  0.51303803035E+03  0.51303803035E+03  0.00000000000E+00 0.  1.
          2   -1    0    0  502    0  0.00000000000E+00 -0.00000000000E+00 -0.13084534381E+03  0.13084534381E+03  0.00000000000E+00 0. -1.
         24    2    1    2    0    0  0.32714092863E+02  0.22021126488E+02  0.32082250705E+03  0.33370894715E+03  0.82942380543E+02 0.  0.
         23    2    1    2    0    0  0.51579069743E+02 -0.69200303784E+02 -0.72801330541E+02  0.14484685480E+03  0.90727587520E+02 0.  0.
        -11    1    3    3    0    0  0.20418234544E+02  0.44512073903E+02  0.28764054370E+03  0.29177955961E+03  0.00000000000E+00 0.  1.
         12    1    3    3    0    0  0.12295858319E+02 -0.22490947415E+02  0.33181963357E+02  0.41929387542E+02  0.00000000000E+00 0. -1.
        -11    1    4    4    0    0  0.27132882535E+00 -0.73305700177E+02 -0.36723885898E+02  0.81990506117E+02  0.00000000000E+00 0. -1.
         11    1    4    4    0    0  0.51307740918E+02  0.41053963932E+01 -0.36077444643E+02  0.62856348682E+02  0.00000000000E+00 0.  1.
         21    1    1    2  502  501 -0.84293162607E+02  0.47179177296E+02  0.13417151003E+03  0.16532757222E+03  0.00000000000E+00 0.  1.
<scales pt_clust_5="13000.00000" pt_clust_6="13000.00000" pt_clust_7="13000.00000" pt_clust_8="13000.00000" pt_clust_9="87.01127"></scales>
<clustering>
<clus scale="   82.942">  5  6 -1 -1</clus>
<clus scale="   90.728">  7  8 -1 -1</clus>
<clus scale="   91.840">  1  5  2 -1</clus>
<clus scale="   87.011">  1  9  2 -1</clus>
<clus scale="  125.708">  2  5  1 -1</clus>
</clustering>
</event>
<event>
 9    2  0.2869112E-005  0.8755147E+02  0.7546771E-02  0.1309555E+00
         -1   -1    0    0    0  501 -0.00000000000E+00  0.00000000000E+00  0.11424986613E+03  0.11424986613E+03  0.00000000000E+00 0.  1.
          2   -1    0    0  502    0  0.00000000000E+00 -0.00000000000E+00 -0.29189044868E+03  0.29189044868E+03  0.00000000000E+00 0. -1.
         24    2    1    2    0    0 -0.39544620908E+02  0.12249839163E+02 -0.52809242684E+02  0.10516308398E+03  0.80972973987E+02 0.  0.
         23    2    1    2    0    0 -0.42656888350E+02  0.19390843003E+02 -0.17461237924E+03  0.19980226963E+03  0.85063794004E+02 0.  0.
        -13    1    3    3    0    0 -0.17545495745E+02 -0.32352490626E+02 -0.38835959516E+02  0.53504764482E+02  0.00000000000E+00 0.  1.
         14    1    3    3    0    0 -0.21999125162E+02  0.44602329790E+02 -0.13973283167E+02  0.51658319495E+02  0.00000000000E+00 0. -1.
        -11    1    4    4    0    0  0.64312999914E+01  0.19545201455E+02 -0.23826659360E+01  0.20713609450E+02  0.00000000000E+00 0.  1.
         11    1    4    4    0    0 -0.49088188342E+02 -0.15435845209E+00 -0.17222971330E+03  0.17908866018E+03  0.00000000000E+00 0. -1.
         21    1    1    2  502  501  0.82201509258E+02 -0.31640682166E+02  0.49781039376E+02  0.10117496120E+03  0.00000000000E+00 0.  1.
<scales pt_clust_5="13000.00000" pt_clust_6="13000.00000" pt_clust_7="13000.00000" pt_clust_8="13000.00000" pt_clust_9="88.08076"></scales>
<clustering>
<clus scale="   80.973">  5  6 -1 -1</clus>
<clus scale="   85.064">  7  8 -1 -1</clus>
<clus scale="   88.081">  1  9  2 -1</clus>
<clus scale="   88.081">  1  5  2 -1</clus>
<clus scale="   87.025">  2  5  1 -1</clus>
</clustering>
</event>
<event>
 9    2  0.2869112E-005  0.2261600E+03  0.7546771E-02  0.1154481E+00
          2   -1    0    0  502    0  0.00000000000E+00  0.00000000000E+00  0.66450064772E+03  0.66450064772E+03  0.00000000000E+00 0. -1.
         -1   -1    0    0    0  501 -0.00000000000E+00 -0.00000000000E+00 -0.14886619038E+03  0.14886619038E+03  0.00000000000E+00 0.  1.
         23    2    1    2    0    0  0.39899773973E+02  0.71073589300E+02  0.94555453265E+02  0.15567398708E+03  0.93006502201E+02 0.  0.
         24    2    1    2    0    0  0.20003669460E+03 -0.17178236755E+01  0.32552942994E+03  0.39028033767E+03  0.79571993221E+02 0.  0.
        -11    1    4    4    0    0  0.69484127940E+02 -0.11430105166E+02  0.53658958611E+02  0.88532339735E+02  0.00000000000E+00 0.  1.
         12    1    4    4    0    0  0.13055256666E+03  0.97122814905E+01  0.27187047133E+03  0.30174799793E+03  0.00000000000E+00 0. -1.
        -13    1    3    3    0    0 -0.21144832399E+02  0.27092787415E+02  0.67452660052E+02  0.75703265552E+02  0.00000000000E+00 0.  1.
         13    1    3    3    0    0  0.61044606372E+02  0.43980801885E+02  0.27102793214E+02  0.79970721527E+02  0.00000000000E+00 0. -1.
         21    1    1    2  502  501 -0.23993646857E+03 -0.69355765625E+02  0.95549574128E+02  0.26741251335E+03  0.00000000000E+00 0.  1.
<scales pt_clust_5="13000.00000" pt_clust_6="13000.00000" pt_clust_7="13000.00000" pt_clust_8="13000.00000" pt_clust_9="211.69944"></scales>
<clustering>
<clus scale="   79.572">  5  6 -1 -1</clus>
<clus scale="   93.007">  7  8 -1 -1</clus>
<clus scale="  123.668">  2  7  1 -1</clus>
<clus scale="  211.699">  2  9  1 -1</clus>
<clus scale="  226.160">  1  5  2 -1</clus>
</clustering>
</event>
<event>
 9    2  0.2869112E-005  0.1569139E+03  0.7546771E-02  0.1194149E+00
          4   -1    0    0  502    0  0.00000000000E+00  0.00000000000E+00  0.59052221574E+02  0.59052221574E+02  0.00000000000E+00 0. -1.
         -3   -1    0    0    0  501 -0.00000000000E+00 -0.00000000000E+00 -0.48802693402E+03  0.48802693402E+03  0.00000000000E+00 0.  1.
         24    2    1    2    0    0  0.13541567163E+03 -0.20374153346E+02 -0.22216155968E+03  0.27301762244E+03  0.80189483810E+02 0.  0.
         23    2    1    2    0    0 -0.12044469438E+03  0.41559785808E+01 -0.15034622829E+03  0.21343420506E+03  0.91793109579E+02 0.  0.
        -13    1    3    3    0    0  0.77402661270E+02  0.19811511878E+02 -0.16056375046E+03  0.17934432228E+03  0.00000000000E+00 0.  1.
         14    1    3    3    0    0  0.58013010360E+02 -0.40185665224E+02 -0.61597809227E+02  0.93673300156E+02  0.00000000000E+00 0. -1.
        -13    1    4    4    0    0 -0.80713449660E+02 -0.14889887646E+02 -0.14809331021E+03  0.16931626690E+03  0.00000000000E+00 0.  1.
         13    1    4    4    0    0 -0.39731244723E+02  0.19045866227E+02 -0.22529180857E+01  0.44117938160E+02  0.00000000000E+00 0. -1.
         21    1    1    2  502  501 -0.14970977247E+02  0.16218174765E+02 -0.56466924469E+02  0.60627328090E+02  0.00000000000E+00 0.  1.
<scales pt_clust_5="13000.00000" pt_clust_6="13000.00000" pt_clust_7="13000.00000" pt_clust_8="13000.00000" pt_clust_9="22.07169"></scales>
<clustering>
<clus scale="   22.072">  2  9  1 -1</clus>
<clus scale="   80.189">  5  6 -1 -1</clus>
<clus scale="   91.793">  7  8 -1 -1</clus>
<clus scale="  150.421">  2  5  1 -1</clus>
<clus scale="  156.914">  1  5  2 -1</clus>
</clustering>
</event>
<event>
 9    2  0.2869112E-005  0.1024551E+03  0.7546771E-02  0.1279982E+00
         -1   -1    0    0    0  501 -0.00000000000E+00  0.00000000000E+00  0.26801800221E+03  0.26801800221E+03  0.00000000000E+00 0.  1.
          2   -1    0    0  502    0  0.00000000000E+00 -0.00000000000E+00 -0.19873559168E+03  0.19873559168E+03  0.00000000000E+00 0. -1.
         23    2    1    2    0    0  0.10740438775E+03 -0.19985793441E+02  0.96335725451E+02  0.17167217328E+03  0.90860489937E+02 0.  0.
         24    2    1    2    0    0 -0.34281377326E+02  0.23875193704E+02 -0.13615654680E+03  0.16368272468E+03  0.80673362490E+02 0.  0.
        -11    1    4    4    0    0 -0.24673896100E+02 -0.26514143948E+02 -0.35535058651E+02  0.50739938621E+02  0.00000000000E+00 0.  1.
         12    1    4    4    0    0 -0.96074812259E+01  0.50389337652E+02 -0.10062148815E+03  0.11294278606E+03  0.00000000000E+00 0. -1.
        -11    1    3    3    0    0  0.51828307527E+02  0.19224839866E+02  0.19249328322E+01  0.55312505778E+02  0.00000000000E+00 0. -1.
         11    1    3    3    0    0  0.55576080223E+02 -0.39210633307E+02  0.94410792619E+02  0.11635966750E+03  0.00000000000E+00 0.  1.
         21    1    1    2  502  501 -0.73123010425E+02 -0.38894002634E+01  0.10910323188E+03  0.13139869594E+03  0.00000000000E+00 0. -1.
<scales pt_clust_5="13000.00000" pt_clust_6="13000.00000" pt_clust_7="13000.00000" pt_clust_8="13000.00000" pt_clust_9="73.22638"></scales>
<clustering>
<clus scale="   73.226">  1  9  2 -1</clus>
<clus scale="   80.673">  5  6 -1 -1</clus>
<clus scale="   90.860">  7  8 -1 -1</clus>
<clus scale="   93.539">  2  5  1 -1</clus>
<clus scale="   93.539">  2  5  1 -1</clus>
</clustering>
</event>
<event>
 9    2  0.2869112E-005  0.1198799E+03  0.7546771E-02  0.1246414E+00
         -1   -1    0    0    0  501 -0.00000000000E+00  0.00000000000E+00  0.39031618292E+02  0.39031618292E+02  0.00000000000E+00 0.  1.
          2   -1    0    0  502    0  0.00000000000E+00 -0.00000000000E+00 -0.15135719912E+04  0.15135719912E+04  0.00000000000E+00 0. -1.
         23    2    1    2    0    0  0.43193010968E+02  0.18710118865E+02 -0.13554634604E+03  0.16963904178E+03  0.90492473856E+02 0.  0.
         24    2    1    2    0    0 -0.82546210247E+02  0.18977308507E+02 -0.13201404941E+04  0.13253063318E+04  0.80572537417E+02 0.  0.
        -13    1    4    4    0    0 -0.47030394692E+02 -0.66848395890E+01 -0.26282916828E+03  0.26708747032E+03  0.00000000000E+00 0.  1.
         14    1    4    4    0    0 -0.35515815555E+02  0.25662148096E+02 -0.10573113258E+04  0.10582188615E+04  0.00000000000E+00 0. -1.
        -13    1    3    3    0    0  0.45029465917E+02  0.43116826353E+02 -0.13053074472E+03  0.14465472282E+03  0.00000000000E+00 0.  1.
         13    1    3    3    0    0 -0.18364549488E+01 -0.24406707487E+02 -0.50156013186E+01  0.24984318957E+02  0.00000000000E+00 0. -1.
         21    1    1    2  502  501  0.39353199279E+02 -0.37687427372E+02 -0.18853532763E+02  0.57658235952E+02  0.00000000000E+00 0.  1.
<scales pt_clust_5="13000.00000" pt_clust_6="13000.00000" pt_clust_7="13000.00000" pt_clust_8="13000.00000" pt_clust_9="54.48868"></scales>
<clustering>
<clus scale="   54.489">  1  9  2 -1</clus>
<clus scale="   80.573">  5  6 -1 -1</clus>
<clus scale="   90.492">  7  8 -1 -1</clus>
<clus scale="  112.580">  2  5  1 -1</clus>
<clus scale="  112.580">  2  5  1 -1</clus>
</clustering>
</event>
<event>
 9    2  0.2869112E-005  0.8991039E+02  0.7546771E-02  0.1308098E+00
          2   -1    0    0  502    0  0.00000000000E+00  0.00000000000E+00  0.46201575324E+02  0.46201575324E+02  0.00000000000E+00 0. -1.
         -1   -1    0    0    0  501 -0.00000000000E+00 -0.00000000000E+00 -0.35774052752E+03  0.35774052752E+03  0.00000000000E+00 0.  1.
         24    2    1    2    0    0  0.18393420093E+02  0.22585837729E+02 -0.21684982457E+03  0.23336371817E+03  0.81156272536E+02 0.  0.
         23    2    1    2    0    0  0.38444511839E+01 -0.91295613000E+01 -0.20530878197E+02  0.91996960328E+02  0.89127970108E+02 0.  0.
        -11    1    3    3    0    0 -0.16885882192E+02  0.36255104193E+02 -0.60670159722E+02  0.72666593963E+02  0.00000000000E+00 0.  1.
         12    1    3    3    0    0  0.35279302285E+02 -0.13669266464E+02 -0.15617966485E+03  0.16069712421E+03  0.00000000000E+00 0. -1.
        -11    1    4    4    0    0 -0.35651268782E+02  0.16747724993E+02 -0.21286353607E+02  0.44772850123E+02  0.00000000000E+00 0.  1.
         11    1    4    4    0    0  0.39495719966E+02 -0.25877286293E+02  0.75547541009E+00  0.47224110205E+02  0.00000000000E+00 0. -1.
         21    1    1    2  502  501 -0.22237871277E+02 -0.13456276429E+02 -0.74158249428E+02  0.78581424348E+02  0.00000000000E+00 0. -1.
<scales pt_clust_5="13000.00000" pt_clust_6="13000.00000" pt_clust_7="13000.00000" pt_clust_8="13000.00000" pt_clust_9="25.99220"></scales>
<clustering>
<clus scale="   25.992">  2  9  1 -1</clus>
<clus scale="   81.156">  5  6 -1 -1</clus>
<clus scale="   82.015">  2  5  1 -1</clus>
<clus scale="   89.128">  7  8 -1 -1</clus>
<clus scale="   89.910">  1  5  2 -1</clus>
</clustering>
</event>
<event>
 9    2  0.2869112E-005  0.8635085E+02  0.7546771E-02  0.1313632E+00
          2   -1    0    0  502    0  0.00000000000E+00  0.00000000000E+00  0.11130916135E+03  0.11130916135E+03  0.00000000000E+00 0. -1.
         -1   -1    0    0    0  501 -0.00000000000E+00 -0.00000000000E+00 -0.23177386151E+03  0.23177386151E+03  0.00000000000E+00 0.  1.
         23    2    1    2    0    0 -0.49451697537E+02  0.44082046061E+02 -0.72503891863E+02  0.12589968283E+03  0.78773210088E+02 0.  0.
         24    2    1    2    0    0  0.23360554078E+02  0.98815138915E+01  0.52471299670E+02  0.10022427932E+03  0.81537163756E+02 0.  0.
        -11    1    4    4    0    0 -0.44882163910E+01  0.40678671721E+02  0.39104555628E+02  0.56604458219E+02  0.00000000000E+00 0.  1.
         12    1    4    4    0    0  0.27848770469E+02 -0.30797157829E+02  0.13366744042E+02  0.43619821106E+02  0.00000000000E+00 0. -1.
        -13    1    3    3    0    0 -0.55840438564E+02 -0.24834716462E+01 -0.37885383126E+02  0.67524991411E+02  0.00000000000E+00 0.  1.
         13    1    3    3    0    0  0.63887410271E+01  0.46565517707E+02 -0.34618508737E+02  0.58374691420E+02  0.00000000000E+00 0. -1.
         21    1    1    2  502  501  0.26091143459E+02 -0.53963559952E+02 -0.10043210797E+03  0.11695906071E+03  0.00000000000E+00 0.  1.
<scales pt_clust_5="13000.00000" pt_clust_6="13000.00000" pt_clust_7="13000.00000" pt_clust_8="13000.00000" pt_clust_9="59.94008"></scales>
<clustering>
<clus scale="   59.940">  2  9  1 -1</clus>
<clus scale="   78.773">  7  8 -1 -1</clus>
<clus scale="   81.537">  5  6 -1 -1</clus>
<clus scale="   83.746">  2  7  1 -1</clus>
<clus scale="   86.351">  1  5  2 -1</clus>
</clustering>
</event>
<event>
 9    2  0.2869112E-005  0.9482862E+02  0.7546771E-02  0.1298248E+00
          2   -1    0    0  502    0  0.00000000000E+00  0.00000000000E+00  0.85902612688E+03  0.85902612688E+03  0.00000000000E+00 0. -1.
         -1   -1    0    0    0  501 -0.00000000000E+00 -0.00000000000E+00 -0.71176861130E+02  0.71176861130E+02  0.00000000000E+00 0.  1.
         23    2    1    2    0    0 -0.18015533838E+02  0.35450754874E+01 -0.16975054293E+02  0.95465534307E+02  0.92132452223E+02 0.  0.
         24    2    1    2    0    0 -0.15324162845E+02 -0.18062126353E+02  0.79158571323E+03  0.79603938074E+03  0.80682612238E+02 0.  0.
        -11    1    4    4    0    0 -0.25413595124E+02  0.32040718414E-01  0.75661915668E+02  0.79815896451E+02  0.00000000000E+00 0.  1.
         12    1    4    4    0    0  0.10089432279E+02 -0.18094167071E+02  0.71592379756E+03  0.71622348429E+03  0.00000000000E+00 0. -1.
        -11    1    3    3    0    0 -0.40694810137E+02  0.24608666988E+02  0.16060486693E+02  0.50195550558E+02  0.00000000000E+00 0.  1.
         11    1    3    3    0    0  0.22679276299E+02 -0.21063591500E+02 -0.33035540987E+02  0.45269983749E+02  0.00000000000E+00 0. -1.
         21    1    1    2  502  501  0.33339696683E+02  0.14517050866E+02  0.13238606808E+02  0.38698072962E+02  0.00000000000E+00 0.  1.
<scales pt_clust_5="13000.00000" pt_clust_6="13000.00000" pt_clust_7="13000.00000" pt_clust_8="13000.00000" pt_clust_9="36.36317"></scales>
<clustering>
<clus scale="   36.363">  2  9  1 -1</clus>
<clus scale="   80.683">  5  6 -1 -1</clus>
<clus scale="   83.748">  1  5  2 -1</clus>
<clus scale="   92.132">  7  8 -1 -1</clus>
<clus scale="   83.748">  1  5  2 -1</clus>
</clustering>
</event>
<event>
 9    2  0.2869112E-005  0.1290852E+03  0.7546771E-02  0.1231670E+00
          2   -1    0    0  502    0  0.00000000000E+00  0.00000000000E+00  0.10245585369E+04  0.10245585369E+04  0.00000000000E+00 0. -1.
         -1   -1    0    0    0  501 -0.00000000000E+00 -0.00000000000E+00 -0.28452613022E+02  0.28452613022E+02  0.00000000000E+00 0.  1.
         23    2    1    2    0    0 -0.10116606118E+03 -0.18688090992E+02  0.24271715977E+03  0.27917189694E+03  0.91877699765E+02 0.  0.
         24    2    1    2    0    0  0.79556119535E+02  0.37789609850E+02  0.71921124379E+03  0.72911833510E+03  0.81188069476E+02 0.  0.
        -13    1    4    4    0    0  0.16382664698E+02  0.51485249153E+02  0.27858509978E+03  0.28377593344E+03  0.00000000000E+00 0.  1.
         14    1    4    4    0    0  0.63173454837E+02 -0.13695639304E+02  0.44062614401E+03  0.44534240166E+03  0.00000000000E+00 0. -1.
        -13    1    3    3    0    0 -0.46982580533E+02  0.15501814422E+02  0.31978090328E+02  0.58908975419E+02  0.00000000000E+00 0.  1.
         13    1    3    3    0    0 -0.54183480649E+02 -0.34189905415E+02  0.21073906944E+03  0.22026292152E+03  0.00000000000E+00 0. -1.
         21    1    1    2  502  501  0.21609941647E+02 -0.19101518857E+02  0.34177520323E+02  0.44720917880E+02  0.00000000000E+00 0. -1.
<scales pt_clust_5="13000.00000" pt_clust_6="13000.00000" pt_clust_7="13000.00000" pt_clust_8="13000.00000" pt_clust_9="28.84194"></scales>
<clustering>
<clus scale="   28.842">  2  9  1 -1</clus>
<clus scale="   81.188">  5  6 -1 -1</clus>
<clus scale="   91.878">  7  8 -1 -1</clus>
<clus scale="  121.709">  1  5  2 -1</clus>
<clus scale="  121.709">  1  5  2 -1</clus>
</clustering>
</event>
<event>
 9    2  0.2869112E-005  0.9953192E+02  0.7546771E-02  0.1289216E+00
          2   -1    0    0  502    0  0.00000000000E+00  0.00000000000E+00  0.33295999379E+03  0.33295999379E+03  0.00000000000E+00 0. -1.
         -1   -1    0    0    0  501 -0.00000000000E+00 -0.00000000000E+00 -0.46205510311E+02  0.46205510311E+02  0.00000000000E+00 0.  1.
         24    2    1    2    0    0 -0.27616703410E+02 -0.15238246981E+01  0.46804373322E+02  0.96931584546E+02  0.80250098889E+02 0.  0.
         23    2    1    2    0    0  0.21792026782E+02  0.25812642198E+02  0.23645521293E+03  0.25701313805E+03  0.94886777143E+02 0.  0.
        -11    1    3    3    0    0  0.21341575748E+02 -0.15338510843E+02  0.36582787092E+02  0.45044789729E+02  0.00000000000E+00 0.  1.
         12    1    3    3    0    0 -0.48958279158E+02  0.13814686145E+02  0.10221586230E+02  0.51886794818E+02  0.00000000000E+00 0. -1.
        -13    1    4    4    0    0 -0.14809134271E+02  0.38495518641E+02  0.42485834637E+02  0.59213694008E+02  0.00000000000E+00 0. -1.
         13    1    4    4    0    0  0.36601161053E+02 -0.12682876442E+02  0.19396937830E+03  0.19779944404E+03  0.00000000000E+00 0.  1.
         21    1    1    2  502  501  0.58246766280E+01 -0.24288817500E+02  0.34948972257E+01  0.25220781510E+02  0.00000000000E+00 0.  1.
<scales pt_clust_5="13000.00000" pt_clust_6="13000.00000" pt_clust_7="13000.00000" pt_clust_8="13000.00000" pt_clust_9="24.97746"></scales>
<clustering>
<clus scale="   24.977">  2  9  1 -1</clus>
<clus scale="   80.250">  5  6 -1 -1</clus>
<clus scale="   85.692">  2  5  1 -1</clus>
<clus scale="   94.887">  7  8 -1 -1</clus>
<clus scale="   99.532">  1  5  2 -1</clus>
</clustering>
</event>
<event>
 9    2  0.2869112E-005  0.1290761E+03  0.7546771E-02  0.1242853E+00
          2   -1    0    0  502    0  0.00000000000E+00  0.00000000000E+00  0.58880481139E+03  0.58880481139E+03  0.00000000000E+00 0. -1.
         -1   -1    0    0    0  501 -0.00000000000E+00 -0.00000000000E+00 -0.62265671345E+02  0.62265671345E+02  0.00000000000E+00 0.  1.
         24    2    1    2    0    0  0.11592632385E+02 -0.29830185480E+02  0.13671009455E+03  0.16701864716E+03  0.90450812368E+02 0.  0.
         23    2    1    2    0    0 -0.36405522424E+02  0.17512436092E+02  0.42189437418E+03  0.44167741209E+03  0.12430617803E+03 0.  0.
        -11    1    3    3    0    0  0.30136288271E+02  0.16237584001E+02  0.18748653146E+02  0.39030334353E+02  0.00000000000E+00 0.  1.
         12    1    3    3    0    0 -0.18543655886E+02 -0.46067769481E+02  0.11796144140E+03  0.12798831281E+03  0.00000000000E+00 0. -1.
        -11    1    4    4    0    0 -0.71277310749E+02  0.21336780360E+02  0.37914660249E+03  0.38637787127E+03  0.00000000000E+00 0. -1.
         11    1    4    4    0    0  0.34871788325E+02 -0.38243442673E+01  0.42747771693E+02  0.55299540819E+02  0.00000000000E+00 0.  1.
         21    1    1    2  502  501  0.24812890039E+02  0.12317749388E+02 -0.32065328685E+02  0.42374423486E+02  0.00000000000E+00 0.  1.
<scales pt_clust_5="13000.00000" pt_clust_6="13000.00000" pt_clust_7="13000.00000" pt_clust_8="13000.00000" pt_clust_9="27.70210"></scales>
<clustering>
<clus scale="   27.702">  2  9  1 -1</clus>
<clus scale="   90.451">  5  6 -1 -1</clus>
<clus scale="   96.902">  2  5  1 -1</clus>
<clus scale="  124.306">  7  8 -1 -1</clus>
<clus scale="  129.076">  1  5  2 -1</clus>
</clustering>
</event>
<event>
 9    2  0.2869112E-005  0.4507101E+03  0.7546771E-02  0.1027654E+00
          2   -1    0    0  502    0  0.00000000000E+00  0.00000000000E+00  0.13134580576E+04  0.13134580576E+04  0.00000000000E+00 0. -1.
         -1   -1    0    0    0  501 -0.00000000000E+00 -0.00000000000E+00 -0.48180735693E+03  0.48180735693E+03  0.00000000000E+00 0.  1.
         23    2    1    2    0    0 -0.38503143926E+03 -0.24477412482E+03 -0.13068498055E+03  0.48320395772E+03  0.90796030815E+02 0.  0.
         24    2    1    2    0    0  0.37894553121E+03  0.22240721220E+03  0.10922573984E+04  0.11800880895E+04  0.80727881692E+02 0.  0.
        -13    1    4    4    0    0  0.18392241764E+03  0.91980962756E+02  0.61120796843E+03  0.64487451019E+03  0.00000000000E+00 0.  1.
         14    1    4    4    0    0  0.19502311357E+03  0.13042624945E+03  0.48104943001E+03  0.53521357931E+03  0.00000000000E+00 0. -1.
        -13    1    3    3    0    0 -0.26162248925E+03 -0.17612196345E+03 -0.13222148954E+03  0.34197630794E+03  0.00000000000E+00 0.  1.
         13    1    3    3    0    0 -0.12340895000E+03 -0.68652161375E+02  0.15365089966E+01  0.14122764978E+03  0.00000000000E+00 0. -1.
         21    1    1    2  502  501  0.60859080489E+01  0.22366912621E+02 -0.12992171725E+03  0.13197336728E+03  0.00000000000E+00 0. -1.
<scales pt_clust_5="13000.00000" pt_clust_6="13000.00000" pt_clust_7="13000.00000" pt_clust_8="13000.00000" pt_clust_9="23.18010"></scales>
<clustering>
<clus scale="   23.180">  2  9  1 -1</clus>
<clus scale="   80.728">  5  6 -1 -1</clus>
<clus scale="   90.796">  7  8 -1 -1</clus>
<clus scale="  448.790">  1  5  2 -1</clus>
<clus scale="  448.790">  1  5  2 -1</clus>
</clustering>
</event>
<event>
 9    2  0.2869112E-005  0.9365296E+02  0.7546771E-02  0.1302021E+00
          2   -1    0    0  502    0  0.00000000000E+00  0.00000000000E+00  0.86109374900E+02  0.86109374900E+02  0.00000000000E+00 0. -1.
         -1   -1    0    0    0  501 -0.00000000000E+00 -0.00000000000E+00 -0.36479435658E+03  0.36479435658E+03  0.00000000000E+00 0.  1.
         23    2    1    2    0    0 -0.13834834286E+01  0.17193585759E+02 -0.18787910005E+03  0.20927776168E+03  0.90559880075E+02 0.  0.
         24    2    1    2    0    0  0.26374675040E+02  0.40735630895E+01  0.50685487307E+02  0.96379080810E+02  0.77509297472E+02 0.  0.
        -13    1    4    4    0    0 -0.21995085251E+02  0.21157987274E+02  0.21817000748E+02  0.37515673022E+02  0.00000000000E+00 0.  1.
         14    1    4    4    0    0  0.48369760291E+02 -0.17084424184E+02  0.28868486559E+02  0.58863407788E+02  0.00000000000E+00 0. -1.
        -11    1    3    3    0    0 -0.19225472346E+02 -0.33249817136E+02 -0.86556710613E+02  0.94695476548E+02  0.00000000000E+00 0.  1.
         11    1    3    3    0    0  0.17841988918E+02  0.50443402894E+02 -0.10132238944E+03  0.11458228513E+03  0.00000000000E+00 0. -1.
         21    1    1    2  502  501 -0.24991191611E+02 -0.21267148848E+02 -0.14149136894E+03  0.14524688900E+03  0.00000000000E+00 0. -1.
<scales pt_clust_5="13000.00000" pt_clust_6="13000.00000" pt_clust_7="13000.00000" pt_clust_8="13000.00000" pt_clust_9="32.81541"></scales>
<clustering>
<clus scale="   32.815">  2  9  1 -1</clus>
<clus scale="   77.509">  5  6 -1 -1</clus>
<clus scale="   81.102">  1  5  2 -1</clus>
<clus scale="   90.560">  7  8 -1 -1</clus>
<clus scale="   81.102">  1  5  2 -1</clus>
</clustering>
</event>
<event>
 9    2  0.2869112E-005  0.1051135E+03  0.7546771E-02  0.1279424E+00
         -1   -1    0    0    0  501 -0.00000000000E+00  0.00000000000E+00  0.10447811642E+03  0.10447811642E+03  0.00000000000E+00 0.  1.
          2   -1    0    0  502    0  0.00000000000E+00 -0.00000000000E+00 -0.15813198818E+03  0.15813198818E+03  0.00000000000E+00 0. -1.
         23    2    1    2    0    0  0.24439222822E+02  0.51300553835E+02  0.23358583293E+02  0.11613825871E+03  0.98556832781E+02 0.  0.
         24    2    1    2    0    0 -0.11543667649E+02 -0.29150932815E+02 -0.84042677627E+02  0.11989506873E+03  0.79552641038E+02 0.  0.
        -11    1    4    4    0    0 -0.13803708288E+02  0.22229145547E+02 -0.54815646692E+02  0.60740698024E+02  0.00000000000E+00 0.  1.
         12    1    4    4    0    0  0.22600406387E+01 -0.51380078362E+02 -0.29227030935E+02  0.59154370705E+02  0.00000000000E+00 0. -1.
        -11    1    3    3    0    0  0.74231705314E+01  0.77519056784E+02  0.13043913176E+01  0.77884588091E+02  0.00000000000E+00 0.  1.
         11    1    3    3    0    0  0.17016052290E+02 -0.26218502949E+02  0.22054191975E+02  0.38253670623E+02  0.00000000000E+00 0. -1.
         21    1    1    2  502  501 -0.12895555173E+02 -0.22149621019E+02  0.70302225833E+01  0.26576777158E+02  0.00000000000E+00 0. -1.
<scales pt_clust_5="13000.00000" pt_clust_6="13000.00000" pt_clust_7="13000.00000" pt_clust_8="13000.00000" pt_clust_9="25.63008"></scales>
<clustering>
<clus scale="   25.630">  1  9  2 -1</clus>
<clus scale="   79.553">  5  6 -1 -1</clus>
<clus scale="   87.544">  2  5  1 -1</clus>
<clus scale="   98.557">  7  8 -1 -1</clus>
<clus scale="   87.544">  2  5  1 -1</clus>
</clustering>
</event>
<event>
 9    2  0.2869112E-005  0.9349961E+02  0.7546771E-02  0.1300751E+00
          2   -1    0    0  502    0  0.00000000000E+00  0.00000000000E+00  0.83844520821E+03  0.83844520821E+03  0.00000000000E+00 0. -1.
         -1   -1    0    0    0  501 -0.00000000000E+00 -0.00000000000E+00 -0.31570893466E+02  0.31570893466E+02  0.00000000000E+00 0.  1.
         23    2    1    2    0    0 -0.49896856686E+02 -0.36545761596E+02  0.13937090645E+03  0.17766101532E+03  0.91180577998E+02 0.  0.
         24    2    1    2    0    0  0.93978827465E+00  0.16891425109E+02  0.60480242965E+03  0.61041303235E+03  0.80820094743E+02 0.  0.
        -11    1    4    4    0    0 -0.27875236531E+02  0.25091886859E+01  0.82490004153E+02  0.87108700051E+02  0.00000000000E+00 0.  1.
         12    1    4    4    0    0  0.28815024806E+02  0.14382236423E+02  0.52231242550E+03  0.52330433230E+03  0.00000000000E+00 0. -1.
        -13    1    3    3    0    0 -0.58031764624E+02 -0.17420757832E+02  0.32437606647E+02  0.68726754861E+02  0.00000000000E+00 0.  1.
         13    1    3    3    0    0  0.81349079379E+01 -0.19125003764E+02  0.10693329980E+03  0.10893426046E+03  0.00000000000E+00 0. -1.
         21    1    1    2  502  501  0.48957068412E+02  0.19654336487E+02  0.62700978652E+02  0.81942054002E+02  0.00000000000E+00 0. -1.
<scales pt_clust_5="13000.00000" pt_clust_6="13000.00000" pt_clust_7="13000.00000" pt_clust_8="13000.00000" pt_clust_9="52.75498"></scales>
<clustering>
<clus scale="   52.755">  2  9  1 -1</clus>
<clus scale="   80.820">  5  6 -1 -1</clus>
<clus scale="   83.428">  1  5  2 -1</clus>
<clus scale="   91.181">  7  8 -1 -1</clus>
<clus scale="   83.428">  1  5  2 -1</clus>
</clustering>
</event>
<event>
 9    2  0.2869112E-005  0.9833234E+02  0.7546771E-02  0.1289154E+00
         -1   -1    0    0    0  501 -0.00000000000E+00  0.00000000000E+00  0.51426109221E+02  0.51426109221E+02  0.00000000000E+00 0.  1.
          2   -1    0    0  502    0  0.00000000000E+00 -0.00000000000E+00 -0.77023949502E+03  0.77023949502E+03  0.00000000000E+00 0. -1.
         23    2    1    2    0    0 -0.13722167353E+02 -0.46546779883E+02 -0.10137271322E+03  0.14460833626E+03  0.90995842405E+02 0.  0.
         24    2    1    2    0    0  0.32187082180E+02  0.18807217134E+02 -0.63374415945E+03  0.63995955775E+03  0.80788961118E+02 0.  0.
        -11    1    4    4    0    0  0.14049141300E+02 -0.21337823757E+02 -0.70339883685E+02  0.74835688884E+02  0.00000000000E+00 0.  1.
         12    1    4    4    0    0  0.18137940880E+02  0.40145040891E+02 -0.56340427577E+03  0.56512386886E+03  0.00000000000E+00 0. -1.
        -13    1    3    3    0    0 -0.49965926761E+02 -0.10227851238E+02 -0.59609886273E+02  0.78450884760E+02  0.00000000000E+00 0. -1.
         13    1    3    3    0    0  0.36243759409E+02 -0.36318928646E+02 -0.41762826948E+02  0.66157451498E+02  0.00000000000E+00 0.  1.
         21    1    1    2  502  501 -0.18464914827E+02  0.27739562749E+02  0.16303486868E+02  0.37097710241E+02  0.00000000000E+00 0.  1.
<scales pt_clust_5="13000.00000" pt_clust_6="13000.00000" pt_clust_7="13000.00000" pt_clust_8="13000.00000" pt_clust_9="33.32321"></scales>
<clustering>
<clus scale="   33.323">  1  9  2 -1</clus>
<clus scale="   80.789">  5  6 -1 -1</clus>
<clus scale="   88.971">  2  5  1 -1</clus>
<clus scale="   90.996">  7  8 -1 -1</clus>
<clus scale="   88.971">  2  5  1 -1</clus>
</clustering>
</event>
<event>
 9    2  0.2869112E-005  0.1062330E+03  0.7546771E-02  0.1270035E+00
          2   -1    0    0  502    0  0.00000000000E+00  0.00000000000E+00  0.33352560719E+03  0.33352560719E+03  0.00000000000E+00 0. -1.
         -1   -1    0    0    0  501 -0.00000000000E+00 -0.00000000000E+00 -0.29270519155E+03  0.29270519155E+03  0.00000000000E+00 0.  1.
         23    2    1    2    0    0 -0.60744326087E+02  0.41609427445E+02 -0.11336085768E+03  0.16211659588E+03  0.89497983228E+02 0.  0.
         24    2    1    2    0    0  0.37290558438E+02 -0.42274661563E+02  0.29992353504E+03  0.31649534024E+03  0.83889455621E+02 0.  0.
        -13    1    4    4    0    0 -0.19432618172E+02 -0.23398457019E+02  0.42756462466E+02  0.52471225662E+02  0.00000000000E+00 0.  1.
         14    1    4    4    0    0  0.56723176610E+02 -0.18876204544E+02  0.25716707257E+03  0.26402411458E+03  0.00000000000E+00 0. -1.
        -13    1    3    3    0    0 -0.35503954991E+02  0.47064697249E+02 -0.12149455461E+03  0.13504274637E+03  0.00000000000E+00 0.  1.
         13    1    3    3    0    0 -0.25240371096E+02 -0.54552698041E+01  0.81336969279E+01  0.27073849512E+02  0.00000000000E+00 0. -1.
         21    1    1    2  502  501  0.23453767649E+02  0.66523411768E+00 -0.14574226171E+03  0.14761886262E+03  0.00000000000E+00 0.  1.
<scales pt_clust_5="13000.00000" pt_clust_6="13000.00000" pt_clust_7="13000.00000" pt_clust_8="13000.00000" pt_clust_9="23.46320"></scales>
<clustering>
<clus scale="   23.463">  2  9  1 -1</clus>
<clus scale="   83.889">  5  6 -1 -1</clus>
<clus scale="   89.498">  7  8 -1 -1</clus>
<clus scale="  101.553">  1  5  2 -1</clus>
<clus scale="  101.553">  1  5  2 -1</clus>
</clustering>
</event>
<event>
 9    2  0.2869112E-005  0.1289658E+03  0.7546771E-02  0.1232665E+00
         -1   -1    0    0    0  501 -0.00000000000E+00  0.00000000000E+00  0.11015529352E+03  0.11015529352E+03  0.00000000000E+00 0.  1.
          2   -1    0    0  502    0  0.00000000000E+00 -0.00000000000E+00 -0.58843455847E+03  0.58843455847E+03  0.00000000000E+00 0. -1.
         24    2    1    2    0    0  0.64551018009E+02 -0.18513403942E+02 -0.16764482506E+03  0.19706768631E+03  0.78875253183E+02 0.  0.
         23    2    1    2    0    0 -0.82824977836E+02  0.82730006068E+02 -0.37818121289E+03  0.40654703136E+03  0.92494475868E+02 0.  0.
        -13    1    3    3    0    0  0.32772014811E+02  0.28171091671E+02 -0.46936724277E+02  0.63801813819E+02  0.00000000000E+00 0.  1.
         14    1    3    3    0    0  0.31779003197E+02 -0.46684495612E+02 -0.12070810078E+03  0.13326587249E+03  0.00000000000E+00 0. -1.
        -13    1    4    4    0    0 -0.77497771849E+02  0.42095009307E+02 -0.33738183792E+03  0.34871822294E+03  0.00000000000E+00 0. -1.
         13    1    4    4    0    0 -0.53272059868E+01  0.40634996761E+02 -0.40799374966E+02  0.57828808418E+02  0.00000000000E+00 0.  1.
         21    1    1    2  502  501  0.18273959828E+02 -0.64216602127E+02  0.67546773007E+02  0.94975134325E+02  0.00000000000E+00 0. -1.
<scales pt_clust_5="13000.00000" pt_clust_6="13000.00000" pt_clust_7="13000.00000" pt_clust_8="13000.00000" pt_clust_9="66.76608"></scales>
<clustering>
<clus scale="   66.766">  1  9  2 -1</clus>
<clus scale="   78.875">  5  6 -1 -1</clus>
<clus scale="   92.494">  7  8 -1 -1</clus>
<clus scale="  119.575">  1  5  2 -1</clus>
<clus scale="  128.966">  2  5  1 -1</clus>
</clustering>
</event>
<event>
 9    2  0.2869112E-005  0.1217329E+03  0.7546771E-02  0.1243982E+00
          2   -1    0    0  502    0  0.00000000000E+00  0.00000000000E+00  0.73845259662E+03  0.73845259662E+03  0.00000000000E+00 0. -1.
         -1   -1    0    0    0  501 -0.00000000000E+00 -0.00000000000E+00 -0.49169099529E+03  0.49169099529E+03  0.00000000000E+00 0.  1.
         23    2    1    2    0    0  0.16315064430E+02 -0.93513950587E+02  0.39217720104E+03  0.41379948290E+03  0.91738839893E+02 0.  0.
         24    2    1    2    0    0  0.43430154355E+02  0.65407043326E+02  0.32376482871E+03  0.34254060141E+03  0.79662661790E+02 0.  0.
        -13    1    4    4    0    0  0.21874983327E+02  0.75558303334E+02  0.29438979350E+03  0.30471777535E+03  0.00000000000E+00 0.  1.
         14    1    4    4    0    0  0.21555171027E+02 -0.10151260008E+02  0.29375035213E+02  0.37822826065E+02  0.00000000000E+00 0. -1.
        -13    1    3    3    0    0 -0.25955540235E+02 -0.83609529053E+02  0.23656710903E+03  0.25224638846E+03  0.00000000000E+00 0.  1.
         13    1    3    3    0    0  0.42270604665E+02 -0.99044215340E+01  0.15561009201E+03  0.16155309443E+03  0.00000000000E+00 0. -1.
         21    1    1    2  502  501 -0.59745218785E+02  0.28106907261E+02 -0.46918042842E+03  0.47380350760E+03  0.00000000000E+00 0.  1.
<scales pt_clust_5="13000.00000" pt_clust_6="13000.00000" pt_clust_7="13000.00000" pt_clust_8="13000.00000" pt_clust_9="66.02643"></scales>
<clustering>
<clus scale="   66.026">  2  9  1 -1</clus>
<clus scale="   79.663">  5  6 -1 -1</clus>
<clus scale="   91.739">  7  8 -1 -1</clus>
<clus scale="  112.912">  1  5  2 -1</clus>
<clus scale="  112.912">  1  5  2 -1</clus>
</clustering>
</event>
<event>
 9    2  0.2869112E-005  0.1242957E+03  0.7546771E-02  0.1239579E+00
          2   -1    0    0  502    0  0.00000000000E+00  0.00000000000E+00  0.26401655558E+03  0.26401655558E+03  0.00000000000E+00 0. -1.
         -1   -1    0    0    0  501 -0.00000000000E+00 -0.00000000000E+00 -0.78485708284E+02  0.78485708284E+02  0.00000000000E+00 0.  1.
         24    2    1    2    0    0 -0.15077931145E+02 -0.88824890527E+02  0.66518070514E+02  0.13778678549E+03  0.80270414020E+02 0.  0.
         23    2    1    2    0    0  0.50854350204E+02  0.64197976356E+02  0.89827546262E+02  0.15238752463E+03  0.91898990703E+02 0.  0.
        -13    1    3    3    0    0 -0.12958204403E+02 -0.87643232540E+02  0.19513364216E+02  0.90719472300E+02  0.00000000000E+00 0.  1.
         14    1    3    3    0    0 -0.21197267419E+01 -0.11816579873E+01  0.47004706298E+02  0.47067313193E+02  0.00000000000E+00 0. -1.
        -13    1    4    4    0    0  0.20856218436E+01  0.64983094159E+02  0.79199276773E+02  0.10246793541E+03  0.00000000000E+00 0. -1.
         13    1    4    4    0    0  0.48768728360E+02 -0.78511780330E+00  0.10628269489E+02  0.49919589222E+02  0.00000000000E+00 0.  1.
         21    1    1    2  502  501 -0.35776419059E+02  0.24626914171E+02  0.29185230519E+02  0.52327953741E+02  0.00000000000E+00 0. -1.
<scales pt_clust_5="13000.00000" pt_clust_6="13000.00000" pt_clust_7="13000.00000" pt_clust_8="13000.00000" pt_clust_9="43.43313"></scales>
<clustering>
<clus scale="   43.433">  1  9  2 -1</clus>
<clus scale="   80.270">  5  6 -1 -1</clus>
<clus scale="   91.899">  7  8 -1 -1</clus>
<clus scale="  115.963">  2  5  1 -1</clus>
<clus scale="   43.433">  1  5  2 -1</clus>
</clustering>
</event>
<event>
 9    2  0.2869112E-005  0.1183448E+03  0.7546771E-02  0.1266645E+00
         -1   -1    0    0    0  501 -0.00000000000E+00  0.00000000000E+00  0.73755345640E+03  0.73755345640E+03  0.00000000000E+00 0.  1.
          2   -1    0    0  502    0  0.00000000000E+00 -0.00000000000E+00 -0.44776492492E+03  0.44776492492E+03  0.00000000000E+00 0. -1.
         24    2    1    2    0    0 -0.88875389869E+01  0.42887641590E+01  0.10383709693E+03  0.13013827676E+03  0.77823174775E+02 0.  0.
         23    2    1    2    0    0 -0.58567645362E+02 -0.52980805049E+02 -0.42368467376E+03  0.43989374740E+03  0.88094673152E+02 0.  0.
        -13    1    3    3    0    0  0.17356085253E+01 -0.25172999861E+02  0.93975170718E+02  0.97303776753E+02  0.00000000000E+00 0.  1.
         14    1    3    3    0    0 -0.10623147512E+02  0.29461764020E+02  0.98619262147E+01  0.32834500010E+02  0.00000000000E+00 0. -1.
        -11    1    4    4    0    0 -0.31268447085E+02  0.18679689579E+02 -0.82255396838E+02  0.89958862237E+02  0.00000000000E+00 0.  1.
         11    1    4    4    0    0 -0.27299198277E+02 -0.71660494628E+02 -0.34142927692E+03  0.34993488517E+03  0.00000000000E+00 0. -1.
         21    1    1    2  502  501  0.67455184349E+02  0.48692040890E+02  0.60963610831E+03  0.61528635715E+03  0.00000000000E+00 0.  1.
<scales pt_clust_5="13000.00000" pt_clust_6="13000.00000" pt_clust_7="13000.00000" pt_clust_8="13000.00000" pt_clust_9="79.02413"></scales>
<clustering>
<clus scale="   77.823">  5  6 -1 -1</clus>
<clus scale="   78.446">  1  5  2 -1</clus>
<clus scale="   79.024">  1  9  2 -1</clus>
<clus scale="   88.095">  7  8 -1 -1</clus>
<clus scale="  118.345">  2  5  1 -1</clus>
</clustering>
</event>
<event>
 9    2  0.2869112E-005  0.1080049E+03  0.7546771E-02  0.1267668E+00
          2   -1    0    0  502    0  0.00000000000E+00  0.00000000000E+00  0.89168073419E+03  0.89168073419E+03  0.00000000000E+00 0. -1.
         -1   -1    0    0    0  501 -0.00000000000E+00 -0.00000000000E+00 -0.98784096730E+02  0.98784096730E+02  0.00000000000E+00 0.  1.
         23    2    1    2    0    0 -0.83870011815E+02 -0.16813940445E+01 -0.10003266631E+02  0.12352217505E+03  0.90114684803E+02 0.  0.
         24    2    1    2    0    0  0.58201690614E+02  0.51816644831E+01  0.82608371100E+03  0.83217768054E+03  0.81799192972E+02 0.  0.
        -13    1    4    4    0    0 -0.10603210345E+02  0.20810049731E+02  0.10081754280E+03  0.10348750251E+03  0.00000000000E+00 0.  1.
         14    1    4    4    0    0  0.68804900960E+02 -0.15628385247E+02  0.72526616820E+03  0.72869017803E+03  0.00000000000E+00 0. -1.
        -13    1    3    3    0    0 -0.43715322636E+02 -0.17513996984E+02 -0.47102369486E+02  0.66606326537E+02  0.00000000000E+00 0.  1.
         13    1    3    3    0    0 -0.40154689179E+02  0.15832602939E+02  0.37099102855E+02  0.56915848510E+02  0.00000000000E+00 0. -1.
         21    1    1    2  502  501  0.25668321200E+02 -0.35002704386E+01 -0.23183806916E+02  0.34764975327E+02  0.00000000000E+00 0.  1.
<scales pt_clust_5="13000.00000" pt_clust_6="13000.00000" pt_clust_7="13000.00000" pt_clust_8="13000.00000" pt_clust_9="25.90588"></scales>
<clustering>
<clus scale="   25.906">  2  9  1 -1</clus>
<clus scale="   81.799">  5  6 -1 -1</clus>
<clus scale="   90.115">  7  8 -1 -1</clus>
<clus scale="  101.171">  1  5  2 -1</clus>
<clus scale="  101.171">  1  5  2 -1</clus>
</clustering>
</event>
<event>
 9    2  0.2869112E-005  0.1126688E+03  0.7546771E-02  0.1258220E+00
          2   -1    0    0  502    0  0.00000000000E+00  0.00000000000E+00  0.58953026757E+03  0.58953026757E+03  0.00000000000E+00 0. -1.
         -1   -1    0    0    0  501 -0.00000000000E+00 -0.00000000000E+00 -0.74907574996E+02  0.74907574996E+02  0.00000000000E+00 0.  1.
         23    2    1    2    0    0  0.71599519538E+02  0.26517033711E+02  0.11066919871E+00  0.11474149144E+03  0.85650180013E+02 0.  0.
         24    2    1    2    0    0 -0.22990448593E+02 -0.72982762283E+02  0.41774469372E+03  0.43185823420E+03  0.78331736879E+02 0.  0.
        -11    1    4    4    0    0 -0.38829767529E+02 -0.12577268318E+02  0.99530446369E+02  0.10757438486E+03  0.00000000000E+00 0.  1.
         12    1    4    4    0    0  0.15839318936E+02 -0.60405493965E+02  0.31821424735E+03  0.32428384934E+03  0.00000000000E+00 0. -1.
        -13    1    3    3    0    0 -0.11793984253E+01  0.39908979522E+02  0.65539042390E+01  0.40460737609E+02  0.00000000000E+00 0.  1.
         13    1    3    3    0    0  0.72778917964E+02 -0.13391945811E+02 -0.64432350403E+01  0.74280753835E+02  0.00000000000E+00 0. -1.
         21    1    1    2  502  501 -0.48609070945E+02  0.46465728572E+02  0.96767329659E+02  0.11783811692E+03  0.00000000000E+00 0.  1.
<scales pt_clust_5="13000.00000" pt_clust_6="13000.00000" pt_clust_7="13000.00000" pt_clust_8="13000.00000" pt_clust_9="67.24512"></scales>
<clustering>
<clus scale="   67.245">  1  9  2 -1</clus>
<clus scale="   78.332">  5  6 -1 -1</clus>
<clus scale="   85.650">  7  8 -1 -1</clus>
<clus scale="  107.211">  1  5  2 -1</clus>
<clus scale="   67.245">  1  5  2 -1</clus>
</clustering>
</event>
<event>
 9    2  0.2869112E-005  0.1081257E+03  0.7546771E-02  0.1269213E+00
         -1   -1    0    0    0  501 -0.00000000000E+00  0.00000000000E+00  0.30416087517E+02  0.30416087517E+02  0.00000000000E+00 0.  1.
          2   -1    0    0  502    0  0.00000000000E+00 -0.00000000000E+00 -0.16918387284E+04  0.16918387284E+04  0.00000000000E+00 0. -1.
         23    2    1    2    0    0 -0.35334480389E+01  0.34250633896E+02 -0.66717256185E+02  0.11886417653E+03  0.92151554580E+02 0.  0.
         24    2    1    2    0    0  0.14164191671E+02 -0.56160184426E+02 -0.15439219756E+04  0.15470701657E+04  0.79852616082E+02 0.  0.
        -13    1    4    4    0    0 -0.39755306785E+01 -0.30768203533E+02 -0.17086816772E+03  0.17366179180E+03  0.00000000000E+00 0.  1.
         14    1    4    4    0    0  0.18139722349E+02 -0.25391980893E+02 -0.13730538079E+04  0.13734083739E+04  0.00000000000E+00 0. -1.
        -11    1    3    3    0    0  0.24722043380E+02 -0.62367260790E+01  0.10202909253E+02  0.27462256613E+02  0.00000000000E+00 0.  1.
         11    1    3    3    0    0 -0.28255491418E+02  0.40487359975E+02 -0.76920165438E+02  0.91401919915E+02  0.00000000000E+00 0. -1.
         21    1    1    2  502  501 -0.10630743632E+02  0.21909550530E+02 -0.50783409141E+02  0.56320473707E+02  0.00000000000E+00 0.  1.
<scales pt_clust_5="13000.00000" pt_clust_6="13000.00000" pt_clust_7="13000.00000" pt_clust_8="13000.00000" pt_clust_9="24.35244"></scales>
<clustering>
<clus scale="   24.352">  1  9  2 -1</clus>
<clus scale="   79.853">  5  6 -1 -1</clus>
<clus scale="   92.152">  7  8 -1 -1</clus>
<clus scale="   97.855">  2  5  1 -1</clus>
<clus scale="   97.855">  2  5  1 -1</clus>
</clustering>
</event>
<event>
 9    2  0.2869112E-005  0.1110734E+03  0.7546771E-02  0.1263250E+00
          4   -1    0    0  502    0  0.00000000000E+00  0.00000000000E+00  0.20443193517E+04  0.20443193517E+04  0.00000000000E+00 0. -1.
         -3   -1    0    0    0  501 -0.00000000000E+00 -0.00000000000E+00 -0.20793135362E+02  0.20793135362E+02  0.00000000000E+00 0.  1.
         23    2    1    2    0    0 -0.35442020375E+02  0.32149303741E+02  0.22991570866E+03  0.25215950584E+03  0.91833919422E+02 0.  0.
         24    2    1    2    0    0  0.12115169811E+03 -0.75118732334E+02  0.12891500456E+04  0.12994621065E+04  0.79833377658E+02 0.  0.
        -11    1    4    4    0    0  0.20186123210E+02  0.89013678479E+01  0.73590977272E+02  0.76826726181E+02  0.00000000000E+00 0.  1.
         12    1    4    4    0    0  0.10096557490E+03 -0.84020100182E+02  0.12155590683E+04  0.12226353803E+04  0.00000000000E+00 0. -1.
        -11    1    3    3    0    0 -0.55877383791E+02 -0.46618046151E+00  0.81377121421E+02  0.98715425514E+02  0.00000000000E+00 0.  1.
         11    1    3    3    0    0  0.20435363416E+02  0.32615484203E+02  0.14853858724E+03  0.15344408032E+03  0.00000000000E+00 0. -1.
         21    1    1    2  502  501 -0.85709677738E+02  0.42969428593E+02  0.50446046207E+03  0.51349087474E+03  0.00000000000E+00 0.  1.
<scales pt_clust_5="13000.00000" pt_clust_6="13000.00000" pt_clust_7="13000.00000" pt_clust_8="13000.00000" pt_clust_9="95.87763"></scales>
<clustering>
<clus scale="   79.833">  5  6 -1 -1</clus>
<clus scale="   91.834">  7  8 -1 -1</clus>
<clus scale="   95.878">  1  9  2 -1</clus>
<clus scale="  101.377">  1  5  2 -1</clus>
<clus scale="   95.878">  1  5  2 -1</clus>
</clustering>
</event>
<event>
 9    2  0.2869112E-005  0.1028880E+03  0.7546771E-02  0.1282981E+00
         -1   -1    0    0    0  501 -0.00000000000E+00  0.00000000000E+00  0.21090995481E+02  0.21090995481E+02  0.00000000000E+00 0.  1.
          2   -1    0    0  502    0  0.00000000000E+00 -0.00000000000E+00 -0.15388150903E+04  0.15388150903E+04  0.00000000000E+00 0. -1.
         23    2    1    2    0    0 -0.27737869832E+00 -0.46534366789E+02 -0.30217281925E+03  0.32131002098E+03  0.98824048964E+02 0.  0.
         24    2    1    2    0    0  0.63490190612E+01  0.25135688806E+02 -0.12131506623E+04  0.12162235106E+04  0.82419569452E+02 0.  0.
        -13    1    4    4    0    0  0.19023424924E+02 -0.15702726848E+02 -0.13563767399E+03  0.13786241304E+03  0.00000000000E+00 0.  1.
         14    1    4    4    0    0 -0.12674405863E+02  0.40838415655E+02 -0.10775129883E+04  0.10783610976E+04  0.00000000000E+00 0. -1.
        -11    1    3    3    0    0 -0.42030230721E+02 -0.49253817679E+02 -0.14766820519E+03  0.16124012427E+03  0.00000000000E+00 0. -1.
         11    1    3    3    0    0  0.41752852023E+02  0.27194508908E+01 -0.15450461406E+03  0.16006989670E+03  0.00000000000E+00 0.  1.
         21    1    1    2  502  501 -0.60716403629E+01  0.21398677982E+02 -0.24006132410E+01  0.22372554169E+02  0.00000000000E+00 0. -1.
<scales pt_clust_5="13000.00000" pt_clust_6="13000.00000" pt_clust_7="13000.00000" pt_clust_8="13000.00000" pt_clust_9="22.24339"></scales>
<clustering>
<clus scale="   22.243">  1  9  2 -1</clus>
<clus scale="   82.420">  5  6 -1 -1</clus>
<clus scale="   87.251">  2  5  1 -1</clus>
<clus scale="   98.824">  7  8 -1 -1</clus>
<clus scale="   87.251">  2  5  1 -1</clus>
</clustering>
</event>
<event>
 9    2  0.3600585E-005  0.9350456E+02  0.7546771E-02  0.1299588E+00
         -1   -1    0    0    0  501 -0.00000000000E+00  0.00000000000E+00  0.82697597145E+02  0.82697597145E+02  0.00000000000E+00 0.  1.
          2   -1    0    0  502    0  0.00000000000E+00 -0.00000000000E+00 -0.29156363874E+03  0.29156363874E+03  0.00000000000E+00 0. -1.
         24    2    1    2    0    0  0.10212553106E+02  0.26080649137E+02  0.26194343534E+02  0.89645171231E+02  0.81028492467E+02 0.  0.
         23    2    1    2    0    0  0.24147629095E+02 -0.16607266542E+02 -0.23001345973E+03  0.24861830702E+03  0.89699284472E+02 0.  0.
        -13    1    3    3    0    0  0.28821492111E+02  0.46787649218E+02  0.60562436053E+01  0.55285084910E+02  0.00000000000E+00 0.  1.
         14    1    3    3    0    0 -0.18608939005E+02 -0.20707000081E+02  0.20138099929E+02  0.34360086321E+02  0.00000000000E+00 0. -1.
        -13    1    4    4    0    0  0.54328922940E+02  0.65285233272E+01 -0.11244600919E+03  0.12505342245E+03  0.00000000000E+00 0.  1.
         13    1    4    4    0    0 -0.30181293845E+02 -0.23135789869E+02 -0.11756745054E+03  0.12356488457E+03  0.00000000000E+00 0. -1.
         21    1    1    2  502  501 -0.34360182201E+02 -0.94733825944E+01 -0.50469253983E+01  0.35997757634E+02  0.00000000000E+00 0. -1.
<scales pt_clust_5="13000.00000" pt_clust_6="13000.00000" pt_clust_7="13000.00000" pt_clust_8="13000.00000" pt_clust_9="35.64221"></scales>
<clustering>
<clus scale="   35.642">  1  9  2 -1</clus>
<clus scale="   81.028">  5  6 -1 -1</clus>
<clus scale="   85.222">  1  5  2 -1</clus>
<clus scale="   89.699">  7  8 -1 -1</clus>
<clus scale="   93.505">  2  5  1 -1</clus>
</clustering>
</event>
<event>
 9    2  0.2869112E-005  0.7869164E+02  0.7546771E-02  0.1337946E+00
          2   -1    0    0  502    0  0.00000000000E+00  0.00000000000E+00  0.85958034293E+03  0.85958034293E+03  0.00000000000E+00 0. -1.
         -1   -1    0    0    0  501 -0.00000000000E+00 -0.00000000000E+00 -0.17698863368E+02  0.17698863368E+02  0.00000000000E+00 0.  1.
         23    2    1    2    0    0  0.13331553807E+02 -0.58630631456E+01  0.91537976522E+02  0.11678530467E+03  0.71045762754E+02 0.  0.
         24    2    1    2    0    0  0.19852033315E+02  0.16183179942E+02  0.62741109102E+03  0.63274401634E+03  0.77873708926E+02 0.  0.
        -11    1    4    4    0    0 -0.17388612264E+02  0.26542741628E+02  0.12935186225E+03  0.13318703104E+03  0.00000000000E+00 0.  1.
         12    1    4    4    0    0  0.37240645579E+02 -0.10359561686E+02  0.49805922877E+03  0.49955698530E+03  0.00000000000E+00 0. -1.
        -13    1    3    3    0    0  0.42538408851E+02 -0.72367474427E+01  0.58019068083E+02  0.72305594544E+02  0.00000000000E+00 0.  1.
         13    1    3    3    0    0 -0.29206855045E+02  0.13736842971E+01  0.33518908440E+02  0.44479710129E+02  0.00000000000E+00 0. -1.
         21    1    1    2  502  501 -0.33183587121E+02 -0.10320116796E+02  0.12293241202E+03  0.12774988528E+03  0.00000000000E+00 0.  1.
<scales pt_clust_5="13000.00000" pt_clust_6="13000.00000" pt_clust_7="13000.00000" pt_clust_8="13000.00000" pt_clust_9="34.75133"></scales>
<clustering>
<clus scale="   34.751">  1  9  2 -1</clus>
<clus scale="   71.046">  7  8 -1 -1</clus>
<clus scale="   71.941">  2  7  1 -1</clus>
<clus scale="   77.874">  5  6 -1 -1</clus>
<clus scale="   34.751">  1  5  2 -1</clus>
</clustering>
</event>
<event>
 9    2  0.2869112E-005  0.9777259E+02  0.7546771E-02  0.1288818E+00
         -1   -1    0    0    0  501 -0.00000000000E+00  0.00000000000E+00  0.26976326830E+02  0.26976326830E+02  0.00000000000E+00 0.  1.
          2   -1    0    0  502    0  0.00000000000E+00 -0.00000000000E+00 -0.82734261045E+03  0.82734261045E+03  0.00000000000E+00 0. -1.
         23    2    1    2    0    0  0.30306914113E+02  0.41381656017E+02 -0.11345959606E+03  0.15326489173E+03  0.89364962948E+02 0.  0.
         24    2    1    2    0    0 -0.96843261599E+01 -0.37089380123E+02 -0.66317327453E+03  0.66932094516E+03  0.81989799873E+02 0.  0.
        -11    1    4    4    0    0 -0.91490754749E+01  0.22717680646E+02 -0.98917947460E+02  0.10190465606E+03  0.00000000000E+00 0.  1.
         12    1    4    4    0    0 -0.53525068497E+00 -0.59807060768E+02 -0.56425532707E+03  0.56741628910E+03  0.00000000000E+00 0. -1.
        -11    1    3    3    0    0  0.37884872934E+01  0.34648745991E+02  0.17030681667E+01  0.34896829024E+02  0.00000000000E+00 0.  1.
         11    1    3    3    0    0  0.26518426820E+02  0.67329100256E+01 -0.11516266422E+03  0.11836806271E+03  0.00000000000E+00 0. -1.
         21    1    1    2  502  501 -0.20622587953E+02 -0.42922758942E+01 -0.23733413036E+02  0.31733100394E+02  0.00000000000E+00 0. -1.
<scales pt_clust_5="13000.00000" pt_clust_6="13000.00000" pt_clust_7="13000.00000" pt_clust_8="13000.00000" pt_clust_9="21.06454"></scales>
<clustering>
<clus scale="   21.065">  1  9  2 -1</clus>
<clus scale="   81.990">  5  6 -1 -1</clus>
<clus scale="   89.365">  7  8 -1 -1</clus>
<clus scale="   91.081">  2  5  1 -1</clus>
<clus scale="   91.081">  2  5  1 -1</clus>
</clustering>
</event>
<event>
 9    2  0.2869112E-005  0.9485303E+02  0.7546771E-02  0.1294775E+00
          2   -1    0    0  502    0  0.00000000000E+00  0.00000000000E+00  0.61349100817E+03  0.61349100817E+03  0.00000000000E+00 0. -1.
         -1   -1    0    0    0  501 -0.00000000000E+00 -0.00000000000E+00 -0.13467038685E+03  0.13467038685E+03  0.00000000000E+00 0.  1.
         23    2    1    2    0    0  0.52902515277E+02  0.10470716692E+02 -0.93397247706E+02  0.13961299440E+03  0.88659067759E+02 0.  0.
         24    2    1    2    0    0 -0.26717538579E+02 -0.19817380182E+02  0.57382554588E+03  0.58069884500E+03  0.82636771803E+02 0.  0.
        -13    1    4    4    0    0 -0.20904771092E+02 -0.41296875214E+02  0.16788386226E+03  0.17414773201E+03  0.00000000000E+00 0.  1.
         14    1    4    4    0    0 -0.58127674863E+01  0.21479495032E+02  0.40594168362E+03  0.40655111299E+03  0.00000000000E+00 0. -1.
        -13    1    3    3    0    0  0.18154242426E+02 -0.15480292561E+02  0.11218299769E+02  0.26364108663E+02  0.00000000000E+00 0. -1.
         13    1    3    3    0    0  0.34748272850E+02  0.25951009253E+02 -0.10461554748E+03  0.11324888574E+03  0.00000000000E+00 0.  1.
         21    1    1    2  502  501 -0.26184976698E+02  0.93466634900E+01 -0.16076768499E+01  0.27849555614E+02  0.00000000000E+00 0. -1.
<scales pt_clust_5="13000.00000" pt_clust_6="13000.00000" pt_clust_7="13000.00000" pt_clust_8="13000.00000" pt_clust_9="27.80311"></scales>
<clustering>
<clus scale="   27.803">  2  9  1 -1</clus>
<clus scale="   82.637">  5  6 -1 -1</clus>
<clus scale="   88.659">  7  8 -1 -1</clus>
<clus scale="   89.250">  1  5  2 -1</clus>
<clus scale="   89.250">  1  5  2 -1</clus>
</clustering>
</event>
<event>
 9    2  0.2869112E-005  0.9780928E+02  0.7546771E-02  0.1288067E+00
         -1   -1    0    0    0  501 -0.00000000000E+00  0.00000000000E+00  0.18119616690E+03  0.18119616690E+03  0.00000000000E+00 0.  1.
          2   -1    0    0  502    0  0.00000000000E+00 -0.00000000000E+00 -0.32189591597E+03  0.32189591597E+03  0.00000000000E+00 0. -1.
         23    2    1    2    0    0  0.29699423201E+00  0.23800657109E+02  0.61781823527E+02  0.11138268776E+03  0.89568688338E+02 0.  0.
         24    2    1    2    0    0 -0.31782362543E+02 -0.26372272553E+02 -0.28686496308E+03  0.30160668587E+03  0.83483355181E+02 0.  0.
        -11    1    4    4    0    0 -0.23105392513E+02 -0.94276612520E+01 -0.15083023330E+02  0.29158833183E+02  0.00000000000E+00 0.  1.
         12    1    4    4    0    0 -0.86769700306E+01 -0.16944611301E+02 -0.27178193975E+03  0.27244785269E+03  0.00000000000E+00 0. -1.
        -13    1    3    3    0    0 -0.12857777908E+02  0.52848275785E+02  0.57601344920E+02  0.79222330455E+02  0.00000000000E+00 0.  1.
         13    1    3    3    0    0  0.13154772140E+02 -0.29047618676E+02  0.41804786067E+01  0.32160357308E+02  0.00000000000E+00 0. -1.
         21    1    1    2  502  501  0.31485368311E+02  0.25716154441E+01  0.84383390482E+02  0.90102709243E+02  0.00000000000E+00 0.  1.
<scales pt_clust_5="13000.00000" pt_clust_6="13000.00000" pt_clust_7="13000.00000" pt_clust_8="13000.00000" pt_clust_9="31.59021"></scales>
<clustering>
<clus scale="   31.590">  1  9  2 -1</clus>
<clus scale="   83.483">  5  6 -1 -1</clus>
<clus scale="   89.569">  7  8 -1 -1</clus>
<clus scale="   92.269">  2  5  1 -1</clus>
<clus scale="   92.269">  2  5  1 -1</clus>
</clustering>
</event>
<event>
 9    2  0.2869112E-005  0.1559773E+03  0.7546771E-02  0.1198370E+00
          2   -1    0    0  502    0  0.00000000000E+00  0.00000000000E+00  0.11352412969E+04  0.11352412969E+04  0.00000000000E+00 0. -1.
         -1   -1    0    0    0  501 -0.00000000000E+00 -0.00000000000E+00 -0.43237408569E+02  0.43237408569E+02  0.00000000000E+00 0.  1.
         24    2    1    2    0    0  0.98116570989E+01  0.86934747684E+02  0.60719199436E+02  0.12156623214E+03  0.58631123541E+02 0.  0.
         23    2    1    2    0    0  0.49382377448E+01 -0.13621325075E+03  0.91786959299E+03  0.93237768204E+03  0.90912685318E+02 0.  0.
        -13    1    3    3    0    0  0.94994523711E+01  0.35503974246E+02 -0.60891491876E+01  0.37253852425E+02  0.00000000000E+00 0.  1.
         14    1    3    3    0    0  0.31220472783E+00  0.51430773437E+02  0.66808348624E+02  0.84312379720E+02  0.00000000000E+00 0. -1.
        -13    1    4    4    0    0 -0.30570468117E+02 -0.12141142853E+03  0.71957373330E+03  0.73038458784E+03  0.00000000000E+00 0.  1.
         13    1    4    4    0    0  0.35508705861E+02 -0.14801822223E+02  0.19829585969E+03  0.20199309420E+03  0.00000000000E+00 0. -1.
         21    1    1    2  502  501 -0.14749894844E+02  0.49278503069E+02  0.11341509593E+03  0.12453479132E+03  0.00000000000E+00 0.  1.
<scales pt_clust_5="13000.00000" pt_clust_6="13000.00000" pt_clust_7="13000.00000" pt_clust_8="13000.00000" pt_clust_9="51.43861"></scales>
<clustering>
<clus scale="   51.439">  2  9  1 -1</clus>
<clus scale="   58.631">  5  6 -1 -1</clus>
<clus scale="   90.913">  7  8 -1 -1</clus>
<clus scale="  139.647">  2  5  1 -1</clus>
<clus scale="  155.977">  1  5  2 -1</clus>
</clustering>
</event>
<event>
 9    2  0.2869112E-005  0.9000399E+02  0.7546771E-02  0.1307896E+00
          2   -1    0    0  502    0  0.00000000000E+00  0.00000000000E+00  0.15436620842E+03  0.15436620842E+03  0.00000000000E+00 0. -1.
         -1   -1    0    0    0  501 -0.00000000000E+00 -0.00000000000E+00 -0.20416944894E+03  0.20416944894E+03  0.00000000000E+00 0.  1.
         24    2    1    2    0    0 -0.22213174070E+02  0.11959525496E+02 -0.68087849175E+02  0.10934497987E+03  0.81755208185E+02 0.  0.
         23    2    1    2    0    0 -0.10982927954E+02 -0.22938089260E+01  0.11510911055E+03  0.14637826854E+03  0.89725157584E+02 0.  0.
        -13    1    3    3    0    0 -0.40652524893E+01  0.34176590305E+02  0.11110876160E+01  0.34435448572E+02  0.00000000000E+00 0.  1.
         14    1    3    3    0    0 -0.18147921581E+02 -0.22217064809E+02 -0.69198936791E+02  0.74909531299E+02  0.00000000000E+00 0. -1.
        -11    1    4    4    0    0  0.29891858333E+02 -0.59758080521E+01  0.96713445503E+02  0.10140376727E+03  0.00000000000E+00 0. -1.
         11    1    4    4    0    0 -0.40874786287E+02  0.36819991261E+01  0.18395665048E+02  0.44974501266E+02  0.00000000000E+00 0.  1.
         21    1    1    2  502  501  0.33196102025E+02 -0.96657165705E+01 -0.96824501896E+02  0.10281240895E+03  0.00000000000E+00 0.  1.
<scales pt_clust_5="13000.00000" pt_clust_6="13000.00000" pt_clust_7="13000.00000" pt_clust_8="13000.00000" pt_clust_9="34.57466"></scales>
<clustering>
<clus scale="   34.575">  2  9  1 -1</clus>
<clus scale="   81.755">  5  6 -1 -1</clus>
<clus scale="   82.061">  2  5  1 -1</clus>
<clus scale="   89.725">  7  8 -1 -1</clus>
<clus scale="   90.004">  1  5  2 -1</clus>
</clustering>
</event>
<event>
 9    2  0.2869112E-005  0.1049327E+03  0.7546771E-02  0.1276936E+00
         -1   -1    0    0    0  501 -0.00000000000E+00  0.00000000000E+00  0.16390506112E+03  0.16390506112E+03  0.00000000000E+00 0.  1.
          2   -1    0    0  502    0  0.00000000000E+00 -0.00000000000E+00 -0.36139516938E+03  0.36139516938E+03  0.00000000000E+00 0. -1.
         23    2    1    2    0    0  0.42119863844E+00 -0.28948117372E+02  0.92383388747E+02  0.13393773642E+03  0.92555150116E+02 0.  0.
         24    2    1    2    0    0 -0.93656352342E+00  0.50588401356E+02 -0.33159305671E+03  0.34436154565E+03  0.77915693939E+02 0.  0.
        -13    1    4    4    0    0  0.32289742000E+02  0.25937095165E+02 -0.87743840959E+02  0.97027532022E+02  0.00000000000E+00 0.  1.
         14    1    4    4    0    0 -0.33226305523E+02  0.24651306191E+02 -0.24384921575E+03  0.24733401363E+03  0.00000000000E+00 0. -1.
        -11    1    3    3    0    0 -0.27361478922E+02  0.12399289087E+02  0.12350956025E+01  0.30065235070E+02  0.00000000000E+00 0. -1.
         11    1    3    3    0    0  0.27782677561E+02 -0.41347406459E+02  0.91148293145E+02  0.10387250135E+03  0.00000000000E+00 0.  1.
         21    1    1    2  502  501  0.51536488498E+00 -0.21640283983E+02  0.41719559702E+02  0.47000948433E+02  0.00000000000E+00 0. -1.
<scales pt_clust_5="13000.00000" pt_clust_6="13000.00000" pt_clust_7="13000.00000" pt_clust_8="13000.00000" pt_clust_9="21.64642"></scales>
<clustering>
<clus scale="   21.646">  1  9  2 -1</clus>
<clus scale="   77.916">  5  6 -1 -1</clus>
<clus scale="   92.278">  2  5  1 -1</clus>
<clus scale="   92.555">  7  8 -1 -1</clus>
<clus scale="   92.278">  2  5  1 -1</clus>
</clustering>
</event>
<event>
 9    2  0.2869112E-005  0.1711265E+03  0.7546771E-02  0.1178559E+00
          2   -1    0    0  502    0  0.00000000000E+00  0.00000000000E+00  0.25039499485E+03  0.25039499485E+03  0.00000000000E+00 0. -1.
         -1   -1    0    0    0  501 -0.00000000000E+00 -0.00000000000E+00 -0.21101183775E+03  0.21101183775E+03  0.00000000000E+00 0.  1.
         23    2    1    2    0    0 -0.80266297882E+02 -0.44872375996E+02 -0.74389150716E+02  0.15132283929E+03  0.94385630500E+02 0.  0.
         24    2    1    2    0    0  0.16105649916E+03  0.36670999688E+02  0.13263428711E+03  0.22671677278E+03  0.80775508688E+02 0.  0.
        -11    1    4    4    0    0  0.59417883494E+02 -0.17619918460E+02  0.76756168850E+02  0.98653210094E+02  0.00000000000E+00 0.  1.
         12    1    4    4    0    0  0.10163861566E+03  0.54290918148E+02  0.55878118256E+02  0.12806356268E+03  0.00000000000E+00 0. -1.
        -11    1    3    3    0    0 -0.19080545953E+02  0.92860062243E+01 -0.65827985141E+02  0.69163724403E+02  0.00000000000E+00 0.  1.
         11    1    3    3    0    0 -0.61185751929E+02 -0.54158382220E+02 -0.85611655741E+01  0.82159114892E+02  0.00000000000E+00 0. -1.
         21    1    1    2  502  501 -0.80790201274E+02  0.82013763081E+01 -0.18861979296E+02  0.83367220526E+02  0.00000000000E+00 0.  1.
<scales pt_clust_5="13000.00000" pt_clust_6="13000.00000" pt_clust_7="13000.00000" pt_clust_8="13000.00000" pt_clust_9="81.20541"></scales>
<clustering>
<clus scale="   80.776">  5  6 -1 -1</clus>
<clus scale="   81.205">  2  9  1 -1</clus>
<clus scale="   94.386">  7  8 -1 -1</clus>
<clus scale="  164.013">  1  5  2 -1</clus>
<clus scale="  164.013">  1  5  2 -1</clus>
</clustering>
</event>
<event>
 9    2  0.2869112E-005  0.9845260E+02  0.7546771E-02  0.1291154E+00
         -1   -1    0    0    0  501 -0.00000000000E+00  0.00000000000E+00  0.38420198721E+02  0.38420198721E+02  0.00000000000E+00 0.  1.
          2   -1    0    0  502    0  0.00000000000E+00 -0.00000000000E+00 -0.51897828185E+03  0.51897828185E+03  0.00000000000E+00 0. -1.
         23    2    1    2    0    0 -0.11320279910E+02  0.15161132891E+02 -0.14919267665E+03  0.17701087745E+03  0.93361594256E+02 0.  0.
         24    2    1    2    0    0  0.38951506178E+02 -0.27487555339E+00 -0.33706454559E+03  0.34848830047E+03  0.79462521234E+02 0.  0.
        -11    1    4    4    0    0 -0.24086263896E+02  0.19102657387E+01 -0.12177979115E+03  0.12415359340E+03  0.00000000000E+00 0.  1.
         12    1    4    4    0    0  0.63037770075E+02 -0.21851412921E+01 -0.21528475444E+03  0.22433470706E+03  0.00000000000E+00 0. -1.
        -13    1    3    3    0    0 -0.37615791484E+02 -0.11726976715E+02 -0.23646093261E+02  0.45952230396E+02  0.00000000000E+00 0.  1.
         13    1    3    3    0    0  0.26295511574E+02  0.26888109606E+02 -0.12554658339E+03  0.13105864706E+03  0.00000000000E+00 0. -1.
         21    1    1    2  502  501 -0.27631226268E+02 -0.14886257338E+02  0.56991391153E+01  0.31899302645E+02  0.00000000000E+00 0. -1.
<scales pt_clust_5="13000.00000" pt_clust_6="13000.00000" pt_clust_7="13000.00000" pt_clust_8="13000.00000" pt_clust_9="31.38607"></scales>
<clustering>
<clus scale="   31.386">  1  9  2 -1</clus>
<clus scale="   79.463">  5  6 -1 -1</clus>
<clus scale="   85.386">  2  5  1 -1</clus>
<clus scale="   93.362">  7  8 -1 -1</clus>
<clus scale="   85.386">  2  5  1 -1</clus>
</clustering>
</event>
<event>
 9    2  0.2869112E-005  0.1221367E+03  0.7546771E-02  0.1242487E+00
         -1   -1    0    0    0  501 -0.00000000000E+00  0.00000000000E+00  0.14488103289E+02  0.14488103289E+02  0.00000000000E+00 0.  1.
          2   -1    0    0  502    0  0.00000000000E+00 -0.00000000000E+00 -0.16113255785E+04  0.16113255785E+04  0.00000000000E+00 0. -1.
         23    2    1    2    0    0  0.35871260849E+02 -0.48026083406E+02 -0.38174295116E+03  0.39682094554E+03  0.90254806065E+02 0.  0.
         24    2    1    2    0    0 -0.44112479258E+02  0.80989749360E+02 -0.11400507514E+04  0.11466150162E+04  0.80653760976E+02 0.  0.
        -11    1    4    4    0    0 -0.11300593177E+00  0.36815140562E+02 -0.14457957138E+03  0.14919322976E+03  0.00000000000E+00 0.  1.
         12    1    4    4    0    0 -0.43999473326E+02  0.44174608798E+02 -0.99547118007E+03  0.99742178644E+03  0.00000000000E+00 0. -1.
        -13    1    3    3    0    0  0.26976832760E+02 -0.68099039979E+02 -0.35370491503E+03  0.36120962843E+03  0.00000000000E+00 0.  1.
         13    1    3    3    0    0  0.88944280886E+01  0.20072956573E+02 -0.28038036130E+02  0.35611317114E+02  0.00000000000E+00 0. -1.
         21    1    1    2  502  501  0.82412184088E+01 -0.32963665953E+02 -0.75043772569E+02  0.82377720017E+02  0.00000000000E+00 0.  1.
<scales pt_clust_5="13000.00000" pt_clust_6="13000.00000" pt_clust_7="13000.00000" pt_clust_8="13000.00000" pt_clust_9="33.97824"></scales>
<clustering>
<clus scale="   33.978">  1  9  2 -1</clus>
<clus scale="   80.654">  5  6 -1 -1</clus>
<clus scale="   90.255">  7  8 -1 -1</clus>
<clus scale="  115.224">  2  5  1 -1</clus>
<clus scale="  115.224">  2  5  1 -1</clus>
</clustering>
</event>
<event>
 9    2  0.2869112E-005  0.1119616E+03  0.7546771E-02  0.1262242E+00
         -1   -1    0    0    0  501 -0.00000000000E+00  0.00000000000E+00  0.58104755287E+02  0.58104755287E+02  0.00000000000E+00 0.  1.
          2   -1    0    0  502    0  0.00000000000E+00 -0.00000000000E+00 -0.24246410381E+03  0.24246410381E+03  0.00000000000E+00 0. -1.
         24    2    1    2    0    0  0.62496749169E+02  0.23008353626E+02 -0.87946329537E+02  0.13615594003E+03  0.79803854131E+02 0.  0.
         23    2    1    2    0    0 -0.46328366903E+02 -0.35189892568E+02 -0.92679672033E+02  0.14382786731E+03  0.93339636208E+02 0.  0.
        -11    1    3    3    0    0  0.33264972134E+02 -0.20477205272E+01  0.66855425312E+01  0.33991881522E+02  0.00000000000E+00 0.  1.
         12    1    3    3    0    0  0.29231777035E+02  0.25056074153E+02 -0.94631872068E+02  0.10216405851E+03  0.00000000000E+00 0. -1.
        -13    1    4    4    0    0 -0.31329870250E+02 -0.63151442130E+02 -0.36689757956E+02  0.79472031255E+02  0.00000000000E+00 0. -1.
         13    1    4    4    0    0 -0.14998496653E+02  0.27961549562E+02 -0.55989914076E+02  0.64355836053E+02  0.00000000000E+00 0.  1.
         21    1    1    2  502  501 -0.16168382266E+02  0.12181538942E+02 -0.37333469488E+01  0.20585051750E+02  0.00000000000E+00 0.  1.
<scales pt_clust_5="13000.00000" pt_clust_6="13000.00000" pt_clust_7="13000.00000" pt_clust_8="13000.00000" pt_clust_9="20.24368"></scales>
<clustering>
<clus scale="   20.244">  1  9  2 -1</clus>
<clus scale="   79.804">  5  6 -1 -1</clus>
<clus scale="   93.340">  7  8 -1 -1</clus>
<clus scale="  100.954">  1  5  2 -1</clus>
<clus scale="  111.962">  2  5  1 -1</clus>
</clustering>
</event>
<event>
 9    2  0.2869112E-005  0.2050249E+03  0.7546771E-02  0.1146411E+00
          2   -1    0    0  502    0  0.00000000000E+00  0.00000000000E+00  0.93126245997E+03  0.93126245997E+03  0.00000000000E+00 0. -1.
         -1   -1    0    0    0  501 -0.00000000000E+00 -0.00000000000E+00 -0.63042526136E+02  0.63042526136E+02  0.00000000000E+00 0.  1.
         23    2    1    2    0    0 -0.45425300547E+02 -0.18918728678E+03  0.20326398354E+03  0.29533527899E+03  0.89729552561E+02 0.  0.
         24    2    1    2    0    0  0.27794078942E+02  0.15829274429E+03  0.56832457457E+03  0.59599905350E+03  0.79955900322E+02 0.  0.
        -11    1    4    4    0    0  0.23999175209E+02  0.53778756436E+01  0.52548283191E+02  0.58018997091E+02  0.00000000000E+00 0.  1.
         12    1    4    4    0    0  0.37949037333E+01  0.15291486865E+03  0.51577629137E+03  0.53798005641E+03  0.00000000000E+00 0. -1.
        -11    1    3    3    0    0 -0.63696049457E+02 -0.17584097361E+03  0.15839451349E+03  0.24508377470E+03  0.00000000000E+00 0.  1.
         11    1    3    3    0    0  0.18270748911E+02 -0.13346313171E+02  0.44869470053E+02  0.50251504295E+02  0.00000000000E+00 0. -1.
         21    1    1    2  502  501  0.17631221605E+02  0.30894542492E+02  0.96631375721E+02  0.10297065361E+03  0.00000000000E+00 0.  1.
<scales pt_clust_5="13000.00000" pt_clust_6="13000.00000" pt_clust_7="13000.00000" pt_clust_8="13000.00000" pt_clust_9="35.57152"></scales>
<clustering>
<clus scale="   35.572">  1  9  2 -1</clus>
<clus scale="   79.956">  5  6 -1 -1</clus>
<clus scale="   89.730">  7  8 -1 -1</clus>
<clus scale="  200.940">  1  5  2 -1</clus>
<clus scale="   35.572">  1  5  2 -1</clus>
</clustering>
</event>
<event>
 9    2  0.2869112E-005  0.9649361E+02  0.7546771E-02  0.1295363E+00
         -1   -1    0    0    0  501 -0.00000000000E+00  0.00000000000E+00  0.36739511544E+03  0.36739511544E+03  0.00000000000E+00 0.  1.
          2   -1    0    0  502    0  0.00000000000E+00 -0.00000000000E+00 -0.62940300419E+02  0.62940300419E+02  0.00000000000E+00 0. -1.
         23    2    1    2    0    0 -0.91564860466E+01  0.25994562661E+02  0.29289146870E+03  0.30854321701E+03  0.93026586520E+02 0.  0.
         24    2    1    2    0    0  0.26363371131E+02 -0.36123675857E+01 -0.12014430803E+02  0.85009714911E+02  0.79838765928E+02 0.  0.
        -11    1    4    4    0    0 -0.26146693250E+02 -0.12251862844E+01  0.10001480627E+02  0.28021068218E+02  0.00000000000E+00 0.  1.
         12    1    4    4    0    0  0.52510064381E+02 -0.23871813013E+01 -0.22015911430E+02  0.56988646693E+02  0.00000000000E+00 0. -1.
        -11    1    3    3    0    0  0.29419281223E+02  0.34705312017E+02  0.22843581371E+03  0.23292246301E+03  0.00000000000E+00 0.  1.
         11    1    3    3    0    0 -0.38575767269E+02 -0.87107493561E+01  0.64455654989E+02  0.75620753995E+02  0.00000000000E+00 0. -1.
         21    1    1    2  502  501 -0.17206885084E+02 -0.22382195076E+02  0.23577777124E+02  0.36782483940E+02  0.00000000000E+00 0.  1.
<scales pt_clust_5="13000.00000" pt_clust_6="13000.00000" pt_clust_7="13000.00000" pt_clust_8="13000.00000" pt_clust_9="28.23189"></scales>
<clustering>
<clus scale="   28.232">  2  9  1 -1</clus>
<clus scale="   79.839">  5  6 -1 -1</clus>
<clus scale="   83.853">  2  5  1 -1</clus>
<clus scale="   93.027">  7  8 -1 -1</clus>
<clus scale="   28.232">  2  5  1 -1</clus>
</clustering>
</event>
<event>
 9    2  0.2869112E-005  0.1806197E+03  0.7546771E-02  0.1168937E+00
         -1   -1    0    0    0  501 -0.00000000000E+00  0.00000000000E+00  0.51943986553E+02  0.51943986553E+02  0.00000000000E+00 0.  1.
          2   -1    0    0  502    0  0.00000000000E+00 -0.00000000000E+00 -0.11755481891E+04  0.11755481891E+04  0.00000000000E+00 0. -1.
         23    2    1    2    0    0 -0.29148936003E+02 -0.18639358567E+03 -0.27330080255E+03  0.34532105066E+03  0.94662928896E+02 0.  0.
         24    2    1    2    0    0  0.43440549524E+01  0.14552613052E+03 -0.77738194976E+03  0.79497611986E+03  0.80421451451E+02 0.  0.
        -13    1    4    4    0    0 -0.18322602708E+02  0.91845358045E+01 -0.42185664750E+02  0.46900999758E+02  0.00000000000E+00 0.  1.
         14    1    4    4    0    0  0.22666657660E+02  0.13634159472E+03 -0.73519628501E+03  0.74807512010E+03  0.00000000000E+00 0. -1.
        -13    1    3    3    0    0 -0.29072180569E+02 -0.16575882481E+03 -0.16718369790E+03  0.23721629061E+03  0.00000000000E+00 0.  1.
         13    1    3    3    0    0 -0.76755434317E-01 -0.20634760858E+02 -0.10611710465E+03  0.10810476006E+03  0.00000000000E+00 0. -1.
         21    1    1    2  502  501  0.24804881051E+02  0.40867455150E+02 -0.72921450205E+02  0.87195005100E+02  0.00000000000E+00 0. -1.
<scales pt_clust_5="13000.00000" pt_clust_6="13000.00000" pt_clust_7="13000.00000" pt_clust_8="13000.00000" pt_clust_9="47.80618"></scales>
<clustering>
<clus scale="   47.806">  1  9  2 -1</clus>
<clus scale="   80.421">  5  6 -1 -1</clus>
<clus scale="   94.663">  7  8 -1 -1</clus>
<clus scale="  173.580">  2  5  1 -1</clus>
<clus scale="  173.580">  2  5  1 -1</clus>
</clustering>
</event>
<event>
 9    2  0.2869112E-005  0.1232939E+03  0.7546771E-02  0.1242029E+00
          2   -1    0    0  502    0  0.00000000000E+00  0.00000000000E+00  0.21288393418E+03  0.21288393418E+03  0.00000000000E+00 0. -1.
         -1   -1    0    0    0  501 -0.00000000000E+00 -0.00000000000E+00 -0.16997021611E+03  0.16997021611E+03  0.00000000000E+00 0.  1.
         23    2    1    2    0    0  0.75466939186E+02  0.69730403755E+02 -0.52781709556E+02  0.14857032092E+03  0.93432560051E+02 0.  0.
         24    2    1    2    0    0  0.26768449083E+02 -0.73239818376E+02  0.44271483533E+02  0.11979010626E+03  0.79429745317E+02 0.  0.
        -11    1    4    4    0    0  0.16443975392E+02 -0.73436591837E+02  0.63170459917E+02  0.98253978817E+02  0.00000000000E+00 0.  1.
         12    1    4    4    0    0  0.10324473691E+02  0.19677346084E+00 -0.18898976384E+02  0.21536127441E+02  0.00000000000E+00 0. -1.
        -11    1    3    3    0    0  0.61364825190E+02  0.52683268698E+02 -0.79820877822E+02  0.11363336265E+03  0.00000000000E+00 0.  1.
         11    1    3    3    0    0  0.14102113996E+02  0.17047135057E+02  0.27039168266E+02  0.34936958272E+02  0.00000000000E+00 0. -1.
         21    1    1    2  502  501 -0.10223538827E+03  0.35094146206E+01  0.51423944097E+02  0.11449372311E+03  0.00000000000E+00 0. -1.
<scales pt_clust_5="13000.00000" pt_clust_6="13000.00000" pt_clust_7="13000.00000" pt_clust_8="13000.00000" pt_clust_9="102.29560"></scales>
<clustering>
<clus scale="   79.430">  5  6 -1 -1</clus>
<clus scale="   93.433">  7  8 -1 -1</clus>
<clus scale="  102.296">  1  9  2 -1</clus>
<clus scale="  113.052">  1  5  2 -1</clus>
<clus scale="  102.296">  1  5  2 -1</clus>
</clustering>
</event>
<event>
 9    2  0.2869112E-005  0.9710613E+02  0.7546771E-02  0.1291549E+00
         -1   -1    0    0    0  501 -0.00000000000E+00  0.00000000000E+00  0.26692705548E+03  0.26692705548E+03  0.00000000000E+00 0.  1.
          2   -1    0    0  502    0  0.00000000000E+00 -0.00000000000E+00 -0.26606374184E+03  0.26606374184E+03  0.00000000000E+00 0. -1.
         23    2    1    2    0    0  0.25696764735E+01 -0.86183748462E+01  0.16547784832E+03  0.18864175296E+03  0.90121656955E+02 0.  0.
         24    2    1    2    0    0  0.26802437256E+02  0.26344939484E+02 -0.24301357253E+03  0.25877240447E+03  0.80592396696E+02 0.  0.
        -13    1    4    4    0    0  0.16260500860E+02 -0.14241928943E+02 -0.13556295059E+02  0.25514889064E+02  0.00000000000E+00 0.  1.
         14    1    4    4    0    0  0.10541936396E+02  0.40586868426E+02 -0.22945727747E+03  0.23325751541E+03  0.00000000000E+00 0. -1.
        -13    1    3    3    0    0  0.11635791857E+02  0.23920539200E+02  0.14844962537E+03  0.15081404153E+03  0.00000000000E+00 0.  1.
         13    1    3    3    0    0 -0.90661153833E+01 -0.32538914046E+02  0.17028222945E+02  0.37827711431E+02  0.00000000000E+00 0. -1.
         21    1    1    2  502  501 -0.29372113729E+02 -0.17726564637E+02  0.78399037846E+02  0.85576639884E+02  0.00000000000E+00 0. -1.
<scales pt_clust_5="13000.00000" pt_clust_6="13000.00000" pt_clust_7="13000.00000" pt_clust_8="13000.00000" pt_clust_9="34.30674"></scales>
<clustering>
<clus scale="   34.307">  1  9  2 -1</clus>
<clus scale="   80.592">  5  6 -1 -1</clus>
<clus scale="   88.334">  2  5  1 -1</clus>
<clus scale="   90.122">  7  8 -1 -1</clus>
<clus scale="   88.334">  2  5  1 -1</clus>
</clustering>
</event>
<event>
 9    2  0.2869112E-005  0.3595140E+03  0.7546771E-02  0.1059052E+00
         -1   -1    0    0    0  501 -0.00000000000E+00  0.00000000000E+00  0.85720413470E+03  0.85720413470E+03  0.00000000000E+00 0.  1.
          2   -1    0    0  502    0  0.00000000000E+00 -0.00000000000E+00 -0.43621787770E+03  0.43621787770E+03  0.00000000000E+00 0. -1.
         24    2    1    2    0    0 -0.22502908602E+03 -0.27739623790E+03  0.40266050009E+03  0.54787503219E+03  0.10219985425E+03 0.  0.
         23    2    1    2    0    0  0.17719996968E+03  0.29358135180E+03 -0.27426229246E+03  0.44863394762E+03  0.91993339509E+02 0.  0.
        -13    1    3    3    0    0 -0.58413285724E+02 -0.45213575942E+02  0.14661129255E+03  0.16416836023E+03  0.00000000000E+00 0.  1.
         14    1    3    3    0    0 -0.16661580030E+03 -0.23218266196E+03  0.25604920754E+03  0.38370667196E+03  0.00000000000E+00 0. -1.
        -11    1    4    4    0    0  0.54723615277E+02  0.13846071994E+03 -0.70384955314E+02  0.16468177486E+03  0.00000000000E+00 0.  1.
         11    1    4    4    0    0  0.12247635441E+03  0.15512063186E+03 -0.20387733715E+03  0.28395217277E+03  0.00000000000E+00 0. -1.
         21    1    1    2  502  501  0.47829116342E+02 -0.16185113895E+02  0.29258804937E+03  0.29691303258E+03  0.00000000000E+00 0.  1.
<scales pt_clust_5="13000.00000" pt_clust_6="13000.00000" pt_clust_7="13000.00000" pt_clust_8="13000.00000" pt_clust_9="50.49339"></scales>
<clustering>
<clus scale="   50.493">  1  9  2 -1</clus>
<clus scale="   91.993">  7  8 -1 -1</clus>
<clus scale="  102.200">  5  6 -1 -1</clus>
<clus scale="  356.747">  2  7  1 -1</clus>
<clus scale="  356.747">  2  5  1 -1</clus>
</clustering>
</event>
<event>
 9    2  0.2869112E-005  0.9610494E+02  0.7546771E-02  0.1294667E+00
         -3   -1    0    0    0  501 -0.00000000000E+00  0.00000000000E+00  0.36393919838E+03  0.36393919838E+03  0.00000000000E+00 0.  1.
          4   -1    0    0  502    0  0.00000000000E+00 -0.00000000000E+00 -0.17975104839E+03  0.17975104839E+03  0.00000000000E+00 0. -1.
         23    2    1    2    0    0  0.18698509217E+02 -0.37039944226E+01  0.28187932167E+03  0.29719715710E+03  0.92232555998E+02 0.  0.
         24    2    1    2    0    0  0.96720723660E+01 -0.26741987722E+02 -0.15392511769E+03  0.17653521367E+03  0.81627549987E+02 0.  0.
        -11    1    4    4    0    0  0.26040765981E+02  0.16905923858E+02 -0.26389928860E+02  0.40747516484E+02  0.00000000000E+00 0.  1.
         12    1    4    4    0    0 -0.16368693615E+02 -0.43647911580E+02 -0.12753518883E+03  0.13578769719E+03  0.00000000000E+00 0. -1.
        -13    1    3    3    0    0 -0.28197195468E+02  0.19876983246E+02  0.17197649414E+03  0.17540265344E+03  0.00000000000E+00 0.  1.
         13    1    3    3    0    0  0.46895704685E+02 -0.23580977669E+02  0.10990282752E+03  0.12179450367E+03  0.00000000000E+00 0. -1.
         21    1    1    2  502  501 -0.28370581583E+02  0.30445982145E+02  0.56233946018E+02  0.69957875989E+02  0.00000000000E+00 0.  1.
<scales pt_clust_5="13000.00000" pt_clust_6="13000.00000" pt_clust_7="13000.00000" pt_clust_8="13000.00000" pt_clust_9="41.61547"></scales>
<clustering>
<clus scale="   41.615">  1  9  2 -1</clus>
<clus scale="   81.628">  5  6 -1 -1</clus>
<clus scale="   85.979">  2  5  1 -1</clus>
<clus scale="   92.233">  7  8 -1 -1</clus>
<clus scale="   85.979">  2  5  1 -1</clus>
</clustering>
</event>
<event>
 9    2  0.2869112E-005  0.1051962E+03  0.7546771E-02  0.1273026E+00
         -1   -1    0    0    0  501 -0.00000000000E+00  0.00000000000E+00  0.24195786543E+02  0.24195786543E+02  0.00000000000E+00 0.  1.
          2   -1    0    0  502    0  0.00000000000E+00 -0.00000000000E+00 -0.62410668438E+03  0.62410668438E+03  0.00000000000E+00 0. -1.
         24    2    1    2    0    0  0.10249006826E+01 -0.43476869476E+02 -0.17186461434E+03  0.19541123729E+03  0.82199862495E+02 0.  0.
         23    2    1    2    0    0  0.30915591295E+02  0.57910552504E+02 -0.35157013080E+03  0.36876556475E+03  0.89872570910E+02 0.  0.
        -11    1    3    3    0    0 -0.15212112398E+02 -0.15171138897E+02 -0.10524655314E+01  0.21509986116E+02  0.00000000000E+00 0.  1.
         12    1    3    3    0    0  0.16237013080E+02 -0.28305730579E+02 -0.17081214881E+03  0.17390125117E+03  0.00000000000E+00 0. -1.
        -13    1    4    4    0    0 -0.21146762514E+02  0.51761069165E+02 -0.22334416497E+03  0.23023685602E+03  0.00000000000E+00 0. -1.
         13    1    4    4    0    0  0.52062353809E+02  0.61494833395E+01 -0.12822596583E+03  0.13852870873E+03  0.00000000000E+00 0.  1.
         21    1    1    2  502  501 -0.31940491978E+02 -0.14433683028E+02 -0.76476152699E+02  0.84125668884E+02  0.00000000000E+00 0.  1.
<scales pt_clust_5="13000.00000" pt_clust_6="13000.00000" pt_clust_7="13000.00000" pt_clust_8="13000.00000" pt_clust_9="35.05034"></scales>
<clustering>
<clus scale="   35.050">  1  9  2 -1</clus>
<clus scale="   82.200">  5  6 -1 -1</clus>
<clus scale="   89.873">  7  8 -1 -1</clus>
<clus scale="   98.722">  1  5  2 -1</clus>
<clus scale="  105.196">  2  5  1 -1</clus>
</clustering>
</event>
<event>
 9    2  0.2869112E-005  0.9860939E+02  0.7546771E-02  0.1286446E+00
          2   -1    0    0  502    0  0.00000000000E+00  0.00000000000E+00  0.45553909102E+03  0.45553909102E+03  0.00000000000E+00 0. -1.
         -1   -1    0    0    0  501 -0.00000000000E+00 -0.00000000000E+00 -0.43583289635E+02  0.43583289635E+02  0.00000000000E+00 0.  1.
         23    2    1    2    0    0  0.59425509309E+01  0.26451786960E+02  0.10026280186E+03  0.13689410206E+03  0.89175976572E+02 0.  0.
         24    2    1    2    0    0 -0.14021596931E+02 -0.45643851053E+02  0.32417033735E+03  0.33795297701E+03  0.82739595921E+02 0.  0.
        -11    1    4    4    0    0 -0.25081669262E+02  0.13551396434E+02  0.53044888253E+02  0.60220350780E+02  0.00000000000E+00 0.  1.
         12    1    4    4    0    0  0.11060072332E+02 -0.59195247486E+02  0.27112544909E+03  0.27773262623E+03  0.00000000000E+00 0. -1.
        -13    1    3    3    0    0 -0.24380626936E+02  0.47919833113E+02  0.44018109760E+02  0.69486109132E+02  0.00000000000E+00 0.  1.
         13    1    3    3    0    0  0.30323177867E+02 -0.21468046153E+02  0.56244692096E+02  0.67407992928E+02  0.00000000000E+00 0. -1.
         21    1    1    2  502  501  0.80790459996E+01  0.19192064092E+02 -0.12477337815E+02  0.24275301591E+02  0.00000000000E+00 0.  1.
<scales pt_clust_5="13000.00000" pt_clust_6="13000.00000" pt_clust_7="13000.00000" pt_clust_8="13000.00000" pt_clust_9="20.82322"></scales>
<clustering>
<clus scale="   20.823">  2  9  1 -1</clus>
<clus scale="   82.740">  5  6 -1 -1</clus>
<clus scale="   89.176">  7  8 -1 -1</clus>
<clus scale="   92.829">  1  5  2 -1</clus>
<clus scale="   92.829">  1  5  2 -1</clus>
</clustering>
</event>
<event>
 9    2  0.2869112E-005  0.1031790E+03  0.7546771E-02  0.1279700E+00
          2   -1    0    0  502    0  0.00000000000E+00  0.00000000000E+00  0.56525266031E+03  0.56525266031E+03  0.00000000000E+00 0. -1.
         -1   -1    0    0    0  501 -0.00000000000E+00 -0.00000000000E+00 -0.53194016783E+02  0.53194016783E+02  0.00000000000E+00 0.  1.
         23    2    1    2    0    0  0.42174693431E+02  0.43843305296E+02  0.54635629743E+02  0.12359750348E+03  0.92684144508E+02 0.  0.
         24    2    1    2    0    0  0.10408097659E+02 -0.45384232020E+02  0.42046418812E+03  0.43055858979E+03  0.80140556158E+02 0.  0.
        -11    1    4    4    0    0  0.38700988829E+02 -0.18636671519E+00  0.15196140301E+03  0.15681221022E+03  0.00000000000E+00 0.  1.
         12    1    4    4    0    0 -0.28292891170E+02 -0.45197865305E+02  0.26850278511E+03  0.27374637957E+03  0.00000000000E+00 0. -1.
        -13    1    3    3    0    0  0.20049664050E+01  0.36669568934E+02 -0.17530423192E+02  0.40693892827E+02  0.00000000000E+00 0.  1.
         13    1    3    3    0    0  0.40169727026E+02  0.71737363614E+01  0.72166052935E+02  0.82903610650E+02  0.00000000000E+00 0. -1.
         21    1    1    2  502  501 -0.52582791090E+02  0.15409267247E+01  0.36958825672E+02  0.64290583829E+02  0.00000000000E+00 0. -1.
<scales pt_clust_5="13000.00000" pt_clust_6="13000.00000" pt_clust_7="13000.00000" pt_clust_8="13000.00000" pt_clust_9="52.60536"></scales>
<clustering>
<clus scale="   52.605">  2  9  1 -1</clus>
<clus scale="   80.141">  5  6 -1 -1</clus>
<clus scale="   92.076">  1  5  2 -1</clus>
<clus scale="   92.684">  7  8 -1 -1</clus>
<clus scale="   92.076">  1  5  2 -1</clus>
</clustering>
</event>
<event>
 9    2  0.2869112E-005  0.1074199E+03  0.7546771E-02  0.1271906E+00
          2   -1    0    0  502    0  0.00000000000E+00  0.00000000000E+00  0.60740480957E+03  0.60740480957E+03  0.00000000000E+00 0. -1.
         -1   -1    0    0    0  501 -0.00000000000E+00 -0.00000000000E+00 -0.22656553697E+02  0.22656553697E+02  0.00000000000E+00 0.  1.
         23    2    1    2    0    0  0.30817590054E+02  0.41110827739E+02  0.18361283414E+03  0.21132093870E+03  0.91121030816E+02 0.  0.
         24    2    1    2    0    0 -0.49820973918E+02 -0.34031287408E+02  0.36110068133E+03  0.37386249092E+03  0.75757521706E+02 0.  0.
        -13    1    4    4    0    0 -0.20760409100E+02  0.98521546173E+01  0.26194046338E+02  0.34845194793E+02  0.00000000000E+00 0.  1.
         14    1    4    4    0    0 -0.29060564817E+02 -0.43883442026E+02  0.33490663499E+03  0.33901729612E+03  0.00000000000E+00 0. -1.
        -13    1    3    3    0    0  0.54242184046E+02  0.25862059515E+02  0.16984765975E+03  0.18016461411E+03  0.00000000000E+00 0. -1.
         13    1    3    3    0    0 -0.23424593992E+02  0.15248768224E+02  0.13765174384E+02  0.31156324589E+02  0.00000000000E+00 0.  1.
         21    1    1    2  502  501  0.19003383864E+02 -0.70795403304E+01  0.40034740411E+02  0.44877933657E+02  0.00000000000E+00 0. -1.
<scales pt_clust_5="13000.00000" pt_clust_6="13000.00000" pt_clust_7="13000.00000" pt_clust_8="13000.00000" pt_clust_9="20.27926"></scales>
<clustering>
<clus scale="   20.279">  2  9  1 -1</clus>
<clus scale="   75.758">  5  6 -1 -1</clus>
<clus scale="   91.121">  7  8 -1 -1</clus>
<clus scale="   94.737">  1  5  2 -1</clus>
<clus scale="   94.737">  1  5  2 -1</clus>
</clustering>
</event>
<event>
 9    2  0.2869112E-005  0.1521465E+03  0.7546771E-02  0.1200254E+00
          2   -1    0    0  502    0  0.00000000000E+00  0.00000000000E+00  0.13195682165E+04  0.13195682165E+04  0.00000000000E+00 0. -1.
         -1   -1    0    0    0  501 -0.00000000000E+00 -0.00000000000E+00 -0.70715338144E+02  0.70715338144E+02  0.00000000000E+00 0.  1.
         23    2    1    2    0    0  0.95722689102E+02  0.11107916163E+03  0.11457151965E+03  0.20840974190E+03  0.93843348434E+02 0.  0.
         24    2    1    2    0    0 -0.39907411609E+02 -0.11103315866E+03  0.11129926852E+04  0.11221364297E+04  0.80724752117E+02 0.  0.
        -13    1    4    4    0    0 -0.33771676744E+02 -0.31467819860E+02  0.18321621464E+03  0.18894160776E+03  0.00000000000E+00 0.  1.
         14    1    4    4    0    0 -0.61357348649E+01 -0.79565338798E+02  0.92977647061E+03  0.93319482193E+03  0.00000000000E+00 0. -1.
        -13    1    3    3    0    0  0.19550290407E+02 -0.10332018942E+02 -0.39039499301E+01  0.22454516149E+02  0.00000000000E+00 0. -1.
         13    1    3    3    0    0  0.76172398695E+02  0.12141118057E+03  0.11847546958E+03  0.18595522575E+03  0.00000000000E+00 0.  1.
         21    1    1    2  502  501 -0.55815277493E+02 -0.46002967655E-01  0.21288673467E+02  0.59737383069E+02  0.00000000000E+00 0. -1.
<scales pt_clust_5="13000.00000" pt_clust_6="13000.00000" pt_clust_7="13000.00000" pt_clust_8="13000.00000" pt_clust_9="55.81530"></scales>
<clustering>
<clus scale="   55.815">  2  9  1 -1</clus>
<clus scale="   80.725">  5  6 -1 -1</clus>
<clus scale="   93.843">  7  8 -1 -1</clus>
<clus scale="  144.425">  1  5  2 -1</clus>
<clus scale="  144.425">  1  5  2 -1</clus>
</clustering>
</event>
<event>
 9    2  0.2869112E-005  0.1053048E+03  0.7546771E-02  0.1279794E+00
          2   -1    0    0  502    0  0.00000000000E+00  0.00000000000E+00  0.81040464863E+03  0.81040464863E+03  0.00000000000E+00 0. -1.
         -1   -1    0    0    0  501 -0.00000000000E+00 -0.00000000000E+00 -0.30986839960E+02  0.30986839960E+02  0.00000000000E+00 0.  1.
         23    2    1    2    0    0 -0.79264556148E+02  0.47556237902E+02  0.23661752185E+03  0.26972427481E+03  0.90657967925E+02 0.  0.
         24    2    1    2    0    0  0.35306537166E+02 -0.29403889459E+02  0.50305814360E+03  0.50968936988E+03  0.67857333059E+02 0.  0.
        -13    1    4    4    0    0  0.23446242912E+02  0.11510709224E+02  0.73102723713E+02  0.77628802308E+02  0.00000000000E+00 0.  1.
         14    1    4    4    0    0  0.11860294255E+02 -0.40914598682E+02  0.42995541988E+03  0.43206056758E+03  0.00000000000E+00 0. -1.
        -11    1    3    3    0    0 -0.37322312137E+02 -0.54038746609E+01  0.17253675398E+03  0.17660998930E+03  0.00000000000E+00 0. -1.
         11    1    3    3    0    0 -0.41942244011E+02  0.52960112563E+02  0.64080767867E+02  0.93114285509E+02  0.00000000000E+00 0.  1.
         21    1    1    2  502  501  0.43958018982E+02 -0.18152348443E+02  0.39742143222E+02  0.61977843902E+02  0.00000000000E+00 0.  1.
<scales pt_clust_5="13000.00000" pt_clust_6="13000.00000" pt_clust_7="13000.00000" pt_clust_8="13000.00000" pt_clust_9="47.55854"></scales>
<clustering>
<clus scale="   47.559">  2  9  1 -1</clus>
<clus scale="   67.857">  5  6 -1 -1</clus>
<clus scale="   86.457">  1  5  2 -1</clus>
<clus scale="   90.658">  7  8 -1 -1</clus>
<clus scale="   86.457">  1  5  2 -1</clus>
</clustering>
</event>
<event>
 9    2  0.2869112E-005  0.9963812E+02  0.7546771E-02  0.1285817E+00
          2   -1    0    0  502    0  0.00000000000E+00  0.00000000000E+00  0.69486916166E+03  0.69486916166E+03  0.00000000000E+00 0. -1.
         -1   -1    0    0    0  501 -0.00000000000E+00 -0.00000000000E+00 -0.62649262303E+02  0.62649262303E+02  0.00000000000E+00 0.  1.
         23    2    1    2    0    0 -0.11074389421E+01 -0.25278989609E+02 -0.17347452663E+02  0.94745573622E+02  0.89641150541E+02 0.  0.
         24    2    1    2    0    0  0.13378102119E+02  0.42594386977E+02  0.61788516967E+03  0.62463949435E+03  0.79994747223E+02 0.  0.
        -11    1    4    4    0    0 -0.27100829982E+01 -0.22075116756E+02  0.97491551956E+02  0.99996290093E+02  0.00000000000E+00 0.  1.
         12    1    4    4    0    0  0.16088185117E+02  0.64669503733E+02  0.52039361772E+03  0.52464320426E+03  0.00000000000E+00 0. -1.
        -11    1    3    3    0    0 -0.35309860871E+02 -0.10823992627E+02  0.20068610046E+02  0.42032061576E+02  0.00000000000E+00 0.  1.
         11    1    3    3    0    0  0.34202421929E+02 -0.14454996982E+02 -0.37416062709E+02  0.52713512046E+02  0.00000000000E+00 0. -1.
         21    1    1    2  502  501 -0.12270663177E+02 -0.17315397368E+02  0.31682182351E+02  0.38133355993E+02  0.00000000000E+00 0.  1.
<scales pt_clust_5="13000.00000" pt_clust_6="13000.00000" pt_clust_7="13000.00000" pt_clust_8="13000.00000" pt_clust_9="21.22244"></scales>
<clustering>
<clus scale="   21.222">  2  9  1 -1</clus>
<clus scale="   79.995">  5  6 -1 -1</clus>
<clus scale="   89.641">  7  8 -1 -1</clus>
<clus scale="   91.057">  1  5  2 -1</clus>
<clus scale="   91.057">  1  5  2 -1</clus>
</clustering>
</event>
<event>
 9    2  0.2869112E-005  0.1012178E+03  0.7546771E-02  0.1293732E+00
          2   -1    0    0  502    0  0.00000000000E+00  0.00000000000E+00  0.42316383906E+03  0.42316383906E+03  0.00000000000E+00 0. -1.
         -1   -1    0    0    0  501 -0.00000000000E+00 -0.00000000000E+00 -0.46141160680E+02  0.46141160680E+02  0.00000000000E+00 0.  1.
         23    2    1    2    0    0  0.94136605186E+00 -0.47746012298E+02  0.15462719664E+03  0.19086116597E+03  0.10118224584E+03 0.  0.
         24    2    1    2    0    0 -0.26771191036E+01 -0.24834504937E+02  0.17438781093E+03  0.19140544697E+03  0.74839942049E+02 0.  0.
        -11    1    4    4    0    0  0.19020473397E+02 -0.45232480706E+02  0.10522278999E+03  0.11610164190E+03  0.00000000000E+00 0.  1.
         12    1    4    4    0    0 -0.21697592500E+02  0.20397975769E+02  0.69165020938E+02  0.75303805064E+02  0.00000000000E+00 0. -1.
        -11    1    3    3    0    0  0.25552919057E+02 -0.60108425012E+02  0.48862171318E+02  0.81568904711E+02  0.00000000000E+00 0.  1.
         11    1    3    3    0    0 -0.24611553005E+02  0.12362412714E+02  0.10576502532E+03  0.10929226126E+03  0.00000000000E+00 0. -1.
         21    1    1    2  502  501  0.17357530517E+01  0.72580517236E+02  0.48007670809E+02  0.87038386803E+02  0.00000000000E+00 0. -1.
<scales pt_clust_5="13000.00000" pt_clust_6="13000.00000" pt_clust_7="13000.00000" pt_clust_8="13000.00000" pt_clust_9="72.60127"></scales>
<clustering>
<clus scale="   72.601">  2  9  1 -1</clus>
<clus scale="   74.840">  5  6 -1 -1</clus>
<clus scale="   74.888">  1  5  2 -1</clus>
<clus scale="  101.182">  7  8 -1 -1</clus>
<clus scale="   74.888">  1  5  2 -1</clus>
</clustering>
</event>
<event>
 9    2  0.2869112E-005  0.1091294E+03  0.7546771E-02  0.1265153E+00
          2   -1    0    0  502    0  0.00000000000E+00  0.00000000000E+00  0.39586491759E+02  0.39586491759E+02  0.00000000000E+00 0. -1.
         -1   -1    0    0    0  501 -0.00000000000E+00 -0.00000000000E+00 -0.58637886419E+03  0.58637886419E+03  0.00000000000E+00 0.  1.
         24    2    1    2    0    0  0.59842116588E+02 -0.48363134933E+02 -0.21127253011E+03  0.23955439286E+03  0.82644742251E+02 0.  0.
         23    2    1    2    0    0  0.10713213007E+02  0.65709256331E+02 -0.15064734689E+03  0.18777365031E+03  0.90176722739E+02 0.  0.
        -13    1    3    3    0    0  0.26016049770E+02 -0.27755163819E+02 -0.19157903345E+03  0.19531950753E+03  0.00000000000E+00 0.  1.
         14    1    3    3    0    0  0.33826066818E+02 -0.20607971114E+02 -0.19693496666E+02  0.44234885336E+02  0.00000000000E+00 0. -1.
        -11    1    4    4    0    0 -0.11751738979E+02  0.57902967968E+02 -0.15286699527E+03  0.16388769116E+03  0.00000000000E+00 0.  1.
         11    1    4    4    0    0  0.22464951986E+02  0.78062883631E+01  0.22196483801E+01  0.23885959153E+02  0.00000000000E+00 0. -1.
         21    1    1    2  502  501 -0.70555329596E+02 -0.17346121398E+02 -0.18487249543E+03  0.19863731278E+03  0.00000000000E+00 0.  1.
<scales pt_clust_5="13000.00000" pt_clust_6="13000.00000" pt_clust_7="13000.00000" pt_clust_8="13000.00000" pt_clust_9="72.65633"></scales>
<clustering>
<clus scale="   72.656">  2  9  1 -1</clus>
<clus scale="   82.645">  5  6 -1 -1</clus>
<clus scale="   90.177">  7  8 -1 -1</clus>
<clus scale="  102.993">  2  5  1 -1</clus>
<clus scale="  109.129">  1  5  2 -1</clus>
</clustering>
</event>
<event>
 9    2  0.2869112E-005  0.9271778E+02  0.7546771E-02  0.1305379E+00
          2   -1    0    0  502    0  0.00000000000E+00  0.00000000000E+00  0.21016768585E+03  0.21016768585E+03  0.00000000000E+00 0. -1.
         -1   -1    0    0    0  501 -0.00000000000E+00 -0.00000000000E+00 -0.52975059731E+02  0.52975059731E+02  0.00000000000E+00 0.  1.
         23    2    1    2    0    0 -0.92692972207E+01  0.38603306870E+02  0.51106726824E+02  0.10964838034E+03  0.88514036248E+02 0.  0.
         24    2    1    2    0    0 -0.15286701207E+02 -0.14768526716E+02  0.76572869663E+02  0.10830462390E+03  0.73584608279E+02 0.  0.
        -11    1    4    4    0    0  0.22482996807E+02  0.13338785196E+02  0.43562678557E+02  0.50804677924E+02  0.00000000000E+00 0.  1.
         12    1    4    4    0    0 -0.37769698014E+02 -0.28107311911E+02  0.33010191106E+02  0.57499945980E+02  0.00000000000E+00 0. -1.
        -13    1    3    3    0    0  0.28168488339E+02 -0.53879153868E+01 -0.50097940612E+01  0.29113423091E+02  0.00000000000E+00 0.  1.
         13    1    3    3    0    0 -0.37437785560E+02  0.43991222257E+02  0.56116520885E+02  0.80534957252E+02  0.00000000000E+00 0. -1.
         21    1    1    2  502  501  0.24555998428E+02 -0.23834780155E+02  0.29513029635E+02  0.45189741336E+02  0.00000000000E+00 0.  1.
<scales pt_clust_5="13000.00000" pt_clust_6="13000.00000" pt_clust_7="13000.00000" pt_clust_8="13000.00000" pt_clust_9="34.22125"></scales>
<clustering>
<clus scale="   34.221">  1  9  2 -1</clus>
<clus scale="   73.585">  5  6 -1 -1</clus>
<clus scale="   78.591">  1  5  2 -1</clus>
<clus scale="   88.514">  7  8 -1 -1</clus>
<clus scale="   34.221">  1  5  2 -1</clus>
</clustering>
</event>
<event>
 9    2  0.2869112E-005  0.2766428E+03  0.7546771E-02  0.1097907E+00
         -1   -1    0    0    0  501 -0.00000000000E+00  0.00000000000E+00  0.87550845922E+02  0.87550845922E+02  0.00000000000E+00 0.  1.
          2   -1    0    0  502    0  0.00000000000E+00 -0.00000000000E+00 -0.22477684190E+04  0.22477684190E+04  0.00000000000E+00 0. -1.
         23    2    1    2    0    0 -0.22622146435E+03 -0.10283250133E+03 -0.16033214287E+03  0.30620914206E+03  0.79416423916E+02 0.  0.
         24    2    1    2    0    0  0.24790749233E+03  0.91175464802E+02 -0.19733948429E+04  0.19929449251E+04  0.88154288561E+02 0.  0.
        -13    1    4    4    0    0  0.80321310145E+02  0.62245634248E+02 -0.53819157113E+03  0.54770082990E+03  0.00000000000E+00 0.  1.
         14    1    4    4    0    0  0.16758618219E+03  0.28929830554E+02 -0.14352032717E+04  0.14452440952E+04  0.00000000000E+00 0. -1.
        -13    1    3    3    0    0 -0.19240760487E+03 -0.66860051309E+02 -0.96178992551E+02  0.22525841045E+03  0.00000000000E+00 0.  1.
         13    1    3    3    0    0 -0.33813859480E+02 -0.35972450016E+02 -0.64153150314E+02  0.80950731610E+02  0.00000000000E+00 0. -1.
         21    1    1    2  502  501 -0.21686027987E+02  0.11657036523E+02 -0.26490587408E+02  0.36165197795E+02  0.00000000000E+00 0.  1.
<scales pt_clust_5="13000.00000" pt_clust_6="13000.00000" pt_clust_7="13000.00000" pt_clust_8="13000.00000" pt_clust_9="24.62053"></scales>
<clustering>
<clus scale="   24.621">  1  9  2 -1</clus>
<clus scale="   79.416">  7  8 -1 -1</clus>
<clus scale="   88.154">  5  6 -1 -1</clus>
<clus scale="  273.984">  1  7  2 -1</clus>
<clus scale="  276.643">  2  5  1 -1</clus>
</clustering>
</event>
<event>
 9    2  0.2869112E-005  0.9806242E+02  0.7546771E-02  0.1290577E+00
          2   -1    0    0  502    0  0.00000000000E+00  0.00000000000E+00  0.34224278999E+03  0.34224278999E+03  0.00000000000E+00 0. -1.
         -1   -1    0    0    0  501 -0.00000000000E+00 -0.00000000000E+00 -0.95862091256E+02  0.95862091256E+02  0.00000000000E+00 0.  1.
         23    2    1    2    0    0  0.13586663279E+00 -0.22105147947E+02 -0.40090516285E+02  0.10271935585E+03  0.91953034452E+02 0.  0.
         24    2    1    2    0    0 -0.37082584890E+02  0.21961556740E+01  0.27903659862E+03  0.29276274411E+03  0.80427978763E+02 0.  0.
        -11    1    4    4    0    0 -0.52236212668E+02 -0.42453983778E+01  0.99371925058E+02  0.11234511476E+03  0.00000000000E+00 0.  1.
         12    1    4    4    0    0  0.15153627778E+02  0.64415540518E+01  0.17966467356E+03  0.18041762935E+03  0.00000000000E+00 0. -1.
        -13    1    3    3    0    0  0.36578763291E+02 -0.23835208482E+02 -0.48523302751E+02  0.65273532133E+02  0.00000000000E+00 0.  1.
         13    1    3    3    0    0 -0.36442896658E+02  0.17300605349E+01  0.84327864667E+01  0.37445823717E+02  0.00000000000E+00 0. -1.
         21    1    1    2  502  501  0.36946718258E+02  0.19908992273E+02  0.74346163965E+01  0.42622781283E+02  0.00000000000E+00 0. -1.
<scales pt_clust_5="13000.00000" pt_clust_6="13000.00000" pt_clust_7="13000.00000" pt_clust_8="13000.00000" pt_clust_9="41.96937"></scales>
<clustering>
<clus scale="   41.969">  2  9  1 -1</clus>
<clus scale="   80.428">  5  6 -1 -1</clus>
<clus scale="   87.347">  1  5  2 -1</clus>
<clus scale="   91.953">  7  8 -1 -1</clus>
<clus scale="   87.347">  1  5  2 -1</clus>
</clustering>
</event>
<event>
 9    2  0.2869112E-005  0.9352215E+02  0.7546771E-02  0.1300874E+00
         -1   -1    0    0    0  501 -0.00000000000E+00  0.00000000000E+00  0.54431807912E+03  0.54431807912E+03  0.00000000000E+00 0.  1.
          2   -1    0    0  502    0  0.00000000000E+00 -0.00000000000E+00 -0.50504614583E+02  0.50504614583E+02  0.00000000000E+00 0. -1.
         23    2    1    2    0    0 -0.11278074908E+02  0.43915027037E+02  0.19813091399E+03  0.22233005692E+03  0.90105885272E+02 0.  0.
         24    2    1    2    0    0  0.24107344047E+02 -0.53711076570E+01  0.97007807363E+01  0.83640085235E+02  0.79319265483E+02 0.  0.
        -13    1    4    4    0    0 -0.21572692642E+02  0.18676217887E+02  0.14104519608E+02  0.31829540615E+02  0.00000000000E+00 0.  1.
         14    1    4    4    0    0  0.45680036689E+02 -0.24047325544E+02 -0.44037388719E+01  0.51810544620E+02  0.00000000000E+00 0. -1.
        -11    1    3    3    0    0  0.21233883211E+01 -0.27652732367E+02  0.46968089199E+02  0.54545245332E+02  0.00000000000E+00 0.  1.
         11    1    3    3    0    0 -0.13401463229E+02  0.71567759404E+02  0.15116282479E+03  0.16778481159E+03  0.00000000000E+00 0. -1.
         21    1    1    2  502  501 -0.12829269139E+02 -0.38543919380E+02  0.28598176982E+03  0.28885255155E+03  0.00000000000E+00 0.  1.
<scales pt_clust_5="13000.00000" pt_clust_6="13000.00000" pt_clust_7="13000.00000" pt_clust_8="13000.00000" pt_clust_9="40.62295"></scales>
<clustering>
<clus scale="   40.623">  1  9  2 -1</clus>
<clus scale="   79.319">  5  6 -1 -1</clus>
<clus scale="   83.180">  2  5  1 -1</clus>
<clus scale="   90.106">  7  8 -1 -1</clus>
<clus scale="   83.180">  2  5  1 -1</clus>
</clustering>
</event>
<event>
 9    2  0.2869112E-005  0.1028165E+03  0.7546771E-02  0.1282184E+00
          4   -1    0    0  502    0  0.00000000000E+00  0.00000000000E+00  0.22103155852E+03  0.22103155852E+03  0.00000000000E+00 0. -1.
         -3   -1    0    0    0  501 -0.00000000000E+00 -0.00000000000E+00 -0.10831548962E+03  0.10831548962E+03  0.00000000000E+00 0.  1.
         23    2    1    2    0    0  0.14920676786E+02  0.54034966851E+02  0.58906022916E+02  0.12595166889E+03  0.96184713558E+02 0.  0.
         24    2    1    2    0    0 -0.15757718755E+02 -0.23532278848E+02  0.10997054287E+03  0.13948046686E+03  0.80988928188E+02 0.  0.
        -11    1    4    4    0    0  0.22746426074E+02 -0.38140422322E+02  0.52203328082E+02  0.68536699490E+02  0.00000000000E+00 0.  1.
         12    1    4    4    0    0 -0.38504144829E+02  0.14608143475E+02  0.57767214785E+02  0.70943767371E+02  0.00000000000E+00 0. -1.
        -11    1    3    3    0    0 -0.39540149826E+02  0.36164543946E+02  0.33967307377E+02  0.63443483964E+02  0.00000000000E+00 0. -1.
         11    1    3    3    0    0  0.54460826612E+02  0.17870422905E+02  0.24938715539E+02  0.62508184926E+02  0.00000000000E+00 0.  1.
         21    1    1    2  502  501  0.83704196924E+00 -0.30502688003E+02 -0.56160496891E+02  0.63914912389E+02  0.00000000000E+00 0. -1.
<scales pt_clust_5="13000.00000" pt_clust_6="13000.00000" pt_clust_7="13000.00000" pt_clust_8="13000.00000" pt_clust_9="30.51417"></scales>
<clustering>
<clus scale="   30.514">  2  9  1 -1</clus>
<clus scale="   80.989">  5  6 -1 -1</clus>
<clus scale="   88.763">  1  5  2 -1</clus>
<clus scale="   96.185">  7  8 -1 -1</clus>
<clus scale="   88.763">  1  5  2 -1</clus>
</clustering>
</event>
<event>
 9    2  0.2869112E-005  0.1003261E+03  0.7546771E-02  0.1285789E+00
         -1   -1    0    0    0  501 -0.00000000000E+00  0.00000000000E+00  0.12265838213E+03  0.12265838213E+03  0.00000000000E+00 0.  1.
          2   -1    0    0  502    0  0.00000000000E+00 -0.00000000000E+00 -0.34895045040E+03  0.34895045040E+03  0.00000000000E+00 0. -1.
         23    2    1    2    0    0  0.10284865502E+02 -0.48712229753E+02 -0.12866069541E+01  0.10523086039E+03  0.92699616155E+02 0.  0.
         24    2    1    2    0    0  0.87526111482E+01  0.36390109141E+02 -0.28696275320E+03  0.30040095955E+03  0.80574602289E+02 0.  0.
        -11    1    4    4    0    0  0.37458486734E+02 -0.24997686727E+01 -0.88437304124E+02  0.96075719266E+02  0.00000000000E+00 0.  1.
         12    1    4    4    0    0 -0.28705875585E+02  0.38889877814E+02 -0.19852544907E+03  0.20432524029E+03  0.00000000000E+00 0. -1.
        -11    1    3    3    0    0  0.26459357314E+02 -0.24660653599E+02  0.40548464702E+02  0.54336207221E+02  0.00000000000E+00 0.  1.
         11    1    3    3    0    0 -0.16174491812E+02 -0.24051576154E+02 -0.41835071656E+02  0.50894653171E+02  0.00000000000E+00 0. -1.
         21    1    1    2  502  501 -0.19037476650E+02  0.12322120612E+02  0.61957291878E+02  0.65977012591E+02  0.00000000000E+00 0.  1.
<scales pt_clust_5="13000.00000" pt_clust_6="13000.00000" pt_clust_7="13000.00000" pt_clust_8="13000.00000" pt_clust_9="22.67731"></scales>
<clustering>
<clus scale="   22.677">  1  9  2 -1</clus>
<clus scale="   80.575">  5  6 -1 -1</clus>
<clus scale="   89.243">  2  5  1 -1</clus>
<clus scale="   92.700">  7  8 -1 -1</clus>
<clus scale="   89.243">  2  5  1 -1</clus>
</clustering>
</event>
<event>
 9    2  0.2869112E-005  0.9288610E+02  0.7546771E-02  0.1302850E+00
          4   -1    0    0  502    0  0.00000000000E+00  0.00000000000E+00  0.20077804277E+03  0.20077804277E+03  0.00000000000E+00 0. -1.
         -3   -1    0    0    0  501 -0.00000000000E+00 -0.00000000000E+00 -0.94231679473E+02  0.94231679473E+02  0.00000000000E+00 0.  1.
         24    2    1    2    0    0  0.32918496190E+02 -0.60746695025E+01  0.22895460137E+02  0.89846397025E+02  0.80172588598E+02 0.  0.
         23    2    1    2    0    0 -0.83871912343E+01  0.38263777448E+01  0.12614483260E+03  0.15604536742E+03  0.91392843035E+02 0.  0.
        -13    1    3    3    0    0  0.12400862436E+02 -0.18119549669E+02 -0.26861680660E+02  0.34693650100E+02  0.00000000000E+00 0.  1.
         14    1    3    3    0    0  0.20517633753E+02  0.12044880167E+02  0.49757140797E+02  0.55152746925E+02  0.00000000000E+00 0. -1.
        -11    1    4    4    0    0  0.16577668459E+02 -0.14613709914E+02 -0.38190811268E+01  0.22426880961E+02  0.00000000000E+00 0.  1.
         11    1    4    4    0    0 -0.24964859693E+02  0.18440087659E+02  0.12996391373E+03  0.13361848646E+03  0.00000000000E+00 0. -1.
         21    1    1    2  502  501 -0.24531304955E+02  0.22482917577E+01 -0.42493929442E+02  0.49117957796E+02  0.00000000000E+00 0.  1.
<scales pt_clust_5="13000.00000" pt_clust_6="13000.00000" pt_clust_7="13000.00000" pt_clust_8="13000.00000" pt_clust_9="24.63412"></scales>
<clustering>
<clus scale="   24.634">  2  9  1 -1</clus>
<clus scale="   80.173">  5  6 -1 -1</clus>
<clus scale="   81.871">  2  5  1 -1</clus>
<clus scale="   91.393">  7  8 -1 -1</clus>
<clus scale="   92.886">  1  5  2 -1</clus>
</clustering>
</event>
<event>
 9    2  0.2869112E-005  0.3245124E+03  0.7546771E-02  0.1098111E+00
          2   -1    0    0  502    0  0.00000000000E+00  0.00000000000E+00  0.20596480106E+04  0.20596480106E+04  0.00000000000E+00 0. -1.
         -1   -1    0    0    0  501 -0.00000000000E+00 -0.00000000000E+00 -0.11753509875E+03  0.11753509875E+03  0.00000000000E+00 0.  1.
         23    2    1    2    0    0 -0.99413495597E+02  0.19677440508E+03  0.58974818420E+03  0.63623851231E+03  0.91615032458E+02 0.  0.
         24    2    1    2    0    0 -0.56795952873E+02  0.13750109519E+03  0.10511779893E+04  0.10646516691E+04  0.79847854560E+02 0.  0.
        -11    1    4    4    0    0 -0.73470162651E+00  0.43812752102E+02  0.13363578736E+03  0.14063648423E+03  0.00000000000E+00 0.  1.
         12    1    4    4    0    0 -0.56061251247E+02  0.93688343092E+02  0.91754220190E+03  0.92401518483E+03  0.00000000000E+00 0. -1.
        -13    1    3    3    0    0 -0.10214807029E+03  0.15136117206E+03  0.53355253844E+03  0.56393505295E+03  0.00000000000E+00 0. -1.
         13    1    3    3    0    0  0.27345746943E+01  0.45413233023E+02  0.56195645762E+02  0.72303459357E+02  0.00000000000E+00 0.  1.
         21    1    1    2  502  501  0.15620944847E+03 -0.33427550028E+03  0.30118673840E+03  0.47629292800E+03  0.00000000000E+00 0.  1.
<scales pt_clust_5="13000.00000" pt_clust_6="13000.00000" pt_clust_7="13000.00000" pt_clust_8="13000.00000" pt_clust_9="311.31169"></scales>
<clustering>
<clus scale="   79.848">  5  6 -1 -1</clus>
<clus scale="   91.615">  7  8 -1 -1</clus>
<clus scale="  168.843">  1  5  2 -1</clus>
<clus scale="  311.312">  2  9  1 -1</clus>
<clus scale="  168.843">  1  5  2 -1</clus>
</clustering>
</event>
<event>
 9    2  0.2869112E-005  0.1623814E+03  0.7546771E-02  0.1187211E+00
         -1   -1    0    0    0  501 -0.00000000000E+00  0.00000000000E+00  0.98325810243E+02  0.98325810243E+02  0.00000000000E+00 0.  1.
          2   -1    0    0  502    0  0.00000000000E+00 -0.00000000000E+00 -0.13852408350E+04  0.13852408350E+04  0.00000000000E+00 0. -1.
         23    2    1    2    0    0 -0.15145324686E+02 -0.55883744628E+02  0.90681562297E+01  0.10670284213E+03  0.89167770448E+02 0.  0.
         24    2    1    2    0    0  0.18134569583E+02  0.14166800607E+03 -0.12788107418E+04  0.12893265667E+04  0.81285888409E+02 0.  0.
        -13    1    4    4    0    0 -0.63603223059E+01  0.26559597863E+02 -0.75739792667E+02  0.80513241966E+02  0.00000000000E+00 0.  1.
         14    1    4    4    0    0  0.24494891889E+02  0.11510840821E+03 -0.12030709491E+04  0.12088133247E+04  0.00000000000E+00 0. -1.
        -11    1    3    3    0    0 -0.76375502377E+01  0.23148393547E+02 -0.77005679522E+01  0.25563236184E+02  0.00000000000E+00 0. -1.
         11    1    3    3    0    0 -0.75077744481E+01 -0.79032138174E+02  0.16768724182E+02  0.81139605941E+02  0.00000000000E+00 0.  1.
         21    1    1    2  502  501 -0.29892448974E+01 -0.85784261446E+02 -0.17172439200E+02  0.87537236448E+02  0.00000000000E+00 0. -1.
<scales pt_clust_5="13000.00000" pt_clust_6="13000.00000" pt_clust_7="13000.00000" pt_clust_8="13000.00000" pt_clust_9="85.83633"></scales>
<clustering>
<clus scale="   81.286">  5  6 -1 -1</clus>
<clus scale="   85.836">  1  9  2 -1</clus>
<clus scale="   89.168">  7  8 -1 -1</clus>
<clus scale="  158.190">  2  5  1 -1</clus>
<clus scale="  158.190">  2  5  1 -1</clus>
</clustering>
</event>
<event>
 9    2  0.2869112E-005  0.9826081E+02  0.7546771E-02  0.1288052E+00
          2   -1    0    0  502    0  0.00000000000E+00  0.00000000000E+00  0.26124662962E+03  0.26124662962E+03  0.00000000000E+00 0. -1.
         -1   -1    0    0    0  501 -0.00000000000E+00 -0.00000000000E+00 -0.24757994404E+03  0.24757994404E+03  0.00000000000E+00 0.  1.
         23    2    1    2    0    0 -0.31814589977E+02  0.40931655752E+02 -0.11704410482E+03  0.15623262296E+03  0.89564174904E+02 0.  0.
         24    2    1    2    0    0  0.39707074348E+01 -0.39965529721E+02  0.23113677342E+03  0.24837498285E+03  0.81565397049E+02 0.  0.
        -13    1    4    4    0    0  0.10946503002E+02 -0.28669186099E+02  0.19580524935E+02  0.36402542718E+02  0.00000000000E+00 0.  1.
         14    1    4    4    0    0 -0.69757955676E+01 -0.11296343622E+02  0.21155624849E+03  0.21197244014E+03  0.00000000000E+00 0. -1.
        -11    1    3    3    0    0 -0.35468556349E+02 -0.17808991847E+02 -0.71643047559E+02  0.81901800613E+02  0.00000000000E+00 0. -1.
         11    1    3    3    0    0  0.36539663726E+01  0.58740647599E+02 -0.45401057263E+02  0.74330822350E+02  0.00000000000E+00 0.  1.
         21    1    1    2  502  501  0.27843882542E+02 -0.96612603085E+00 -0.10042598302E+03  0.10421896785E+03  0.00000000000E+00 0.  1.
<scales pt_clust_5="13000.00000" pt_clust_6="13000.00000" pt_clust_7="13000.00000" pt_clust_8="13000.00000" pt_clust_9="27.86064"></scales>
<clustering>
<clus scale="   27.861">  2  9  1 -1</clus>
<clus scale="   81.565">  5  6 -1 -1</clus>
<clus scale="   89.564">  7  8 -1 -1</clus>
<clus scale="   91.029">  1  5  2 -1</clus>
<clus scale="   91.029">  1  5  2 -1</clus>
</clustering>
</event>
<event>
 9    2  0.2869112E-005  0.1045420E+03  0.7546771E-02  0.1274626E+00
          2   -1    0    0  502    0  0.00000000000E+00  0.00000000000E+00  0.39517377629E+03  0.39517377629E+03  0.00000000000E+00 0. -1.
         -1   -1    0    0    0  501 -0.00000000000E+00 -0.00000000000E+00 -0.50252114843E+02  0.50252114843E+02  0.00000000000E+00 0.  1.
         24    2    1    2    0    0  0.76723748371E+02 -0.15540305940E+02  0.15257374193E+03  0.18973302725E+03  0.81190148596E+02 0.  0.
         23    2    1    2    0    0 -0.33664485862E+02  0.21433793056E+02  0.18802005501E+03  0.21201719916E+03  0.89482101895E+02 0.  0.
        -11    1    3    3    0    0  0.38228634322E+01  0.26544147931E+02  0.23616939051E+02  0.35734659427E+02  0.00000000000E+00 0.  1.
         12    1    3    3    0    0  0.72900884939E+02 -0.42084453872E+02  0.12895680288E+03  0.15399836782E+03  0.00000000000E+00 0. -1.
        -11    1    4    4    0    0 -0.56638005415E+02  0.23212369160E+02  0.75664291209E+02  0.97322981374E+02  0.00000000000E+00 0.  1.
         11    1    4    4    0    0  0.22973519553E+02 -0.17785761041E+01  0.11235576380E+03  0.11469421778E+03  0.00000000000E+00 0. -1.
         21    1    1    2  502  501 -0.43059262509E+02 -0.58934871160E+01  0.43278645060E+01  0.43675664727E+02  0.00000000000E+00 0. -1.
<scales pt_clust_5="13000.00000" pt_clust_6="13000.00000" pt_clust_7="13000.00000" pt_clust_8="13000.00000" pt_clust_9="43.46071"></scales>
<clustering>
<clus scale="   43.461">  2  9  1 -1</clus>
<clus scale="   81.190">  5  6 -1 -1</clus>
<clus scale="   89.482">  7  8 -1 -1</clus>
<clus scale="   97.539">  2  5  1 -1</clus>
<clus scale="  104.542">  1  5  2 -1</clus>
</clustering>
</event>
<event>
 9    2  0.2869112E-005  0.1190763E+03  0.7546771E-02  0.1246379E+00
          2   -1    0    0  502    0  0.00000000000E+00  0.00000000000E+00  0.94973715469E+03  0.94973715469E+03  0.00000000000E+00 0. -1.
         -1   -1    0    0    0  501 -0.00000000000E+00 -0.00000000000E+00 -0.20157702352E+03  0.20157702352E+03  0.00000000000E+00 0.  1.
         23    2    1    2    0    0 -0.57819216076E+02 -0.12322645592E+03 -0.93477368900E+02  0.18821729131E+03  0.90332214990E+02 0.  0.
         24    2    1    2    0    0 -0.67962295554E+01  0.76200664145E+02  0.87062457817E+03  0.87808611344E+03  0.84825329621E+02 0.  0.
        -11    1    4    4    0    0 -0.17108685282E+02  0.50493899949E+02  0.20290279686E+03  0.20979009990E+03  0.00000000000E+00 0.  1.
         12    1    4    4    0    0  0.10312455727E+02  0.25706764196E+02  0.66772178131E+03  0.66829601353E+03  0.00000000000E+00 0. -1.
        -11    1    3    3    0    0  0.22308085196E+02 -0.24805260764E+02 -0.55471242715E+01  0.33818962350E+02  0.00000000000E+00 0. -1.
         11    1    3    3    0    0 -0.80127301273E+02 -0.98421195160E+02 -0.87930244629E+02  0.15439832896E+03  0.00000000000E+00 0.  1.
         21    1    1    2  502  501  0.64615445632E+02  0.47025791780E+02 -0.28987078105E+02  0.85010773457E+02  0.00000000000E+00 0.  1.
<scales pt_clust_5="13000.00000" pt_clust_6="13000.00000" pt_clust_7="13000.00000" pt_clust_8="13000.00000" pt_clust_9="79.91609"></scales>
<clustering>
<clus scale="   79.916">  2  9  1 -1</clus>
<clus scale="   84.825">  5  6 -1 -1</clus>
<clus scale="   90.332">  7  8 -1 -1</clus>
<clus scale="  114.955">  1  5  2 -1</clus>
<clus scale="  114.955">  1  5  2 -1</clus>
</clustering>
</event>
<event>
 9    2  0.2869112E-005  0.1257650E+03  0.7546771E-02  0.1237066E+00
         -3   -1    0    0    0  501 -0.00000000000E+00  0.00000000000E+00  0.29618939510E+03  0.29618939510E+03  0.00000000000E+00 0.  1.
          4   -1    0    0  502    0  0.00000000000E+00 -0.00000000000E+00 -0.19931241622E+03  0.19931241622E+03  0.00000000000E+00 0. -1.
         23    2    1    2    0    0 -0.56213964225E+01 -0.93730073852E+02  0.22380634722E+03  0.25918607667E+03  0.90946217324E+02 0.  0.
         24    2    1    2    0    0 -0.18666147036E+02  0.84526872478E+02 -0.15726968596E+03  0.19637679929E+03  0.79604497114E+02 0.  0.
        -13    1    4    4    0    0 -0.25935212021E+02  0.56782810068E+02 -0.36638495398E+02  0.72383023471E+02  0.00000000000E+00 0.  1.
         14    1    4    4    0    0  0.72690649850E+01  0.27744062410E+02 -0.12063119057E+03  0.12399377582E+03  0.00000000000E+00 0. -1.
        -13    1    3    3    0    0  0.13445182317E+02 -0.74260758761E+02  0.69835366514E+02  0.10282223318E+03  0.00000000000E+00 0. -1.
         13    1    3    3    0    0 -0.19066578739E+02 -0.19469315091E+02  0.15397098070E+03  0.15636384350E+03  0.00000000000E+00 0.  1.
         21    1    1    2  502  501  0.24287543458E+02  0.92032013735E+01  0.30340317631E+02  0.39938935348E+02  0.00000000000E+00 0.  1.
<scales pt_clust_5="13000.00000" pt_clust_6="13000.00000" pt_clust_7="13000.00000" pt_clust_8="13000.00000" pt_clust_9="25.97275"></scales>
<clustering>
<clus scale="   25.973">  1  9  2 -1</clus>
<clus scale="   79.604">  5  6 -1 -1</clus>
<clus scale="   90.946">  7  8 -1 -1</clus>
<clus scale="  117.824">  2  5  1 -1</clus>
<clus scale="  117.824">  2  5  1 -1</clus>
</clustering>
</event>
<event>
 9    2  0.2869112E-005  0.9223995E+02  0.7546771E-02  0.1304426E+00
         -1   -1    0    0    0  501 -0.00000000000E+00  0.00000000000E+00  0.31066971443E+02  0.31066971443E+02  0.00000000000E+00 0.  1.
          2   -1    0    0  502    0  0.00000000000E+00 -0.00000000000E+00 -0.60937619475E+03  0.60937619475E+03  0.00000000000E+00 0. -1.
         23    2    1    2    0    0  0.92722917066E+01 -0.18419443012E+02 -0.13773834387E+03  0.16698709409E+03  0.92128100742E+02 0.  0.
         24    2    1    2    0    0  0.53970866889E+01  0.14213710332E+00 -0.44253608656E+03  0.44993772580E+03  0.81096365193E+02 0.  0.
        -13    1    4    4    0    0  0.94417132465E+01  0.23105179369E+02 -0.42979855815E+02  0.49701743114E+02  0.00000000000E+00 0.  1.
         14    1    4    4    0    0 -0.40446265576E+01 -0.22963042265E+02 -0.39955623074E+03  0.40023598269E+03  0.00000000000E+00 0. -1.
        -11    1    3    3    0    0  0.38234055118E+02 -0.41524887363E+02 -0.94215765446E+02  0.10983064099E+03  0.00000000000E+00 0.  1.
         11    1    3    3    0    0 -0.28961763411E+02  0.23105444351E+02 -0.43522578428E+02  0.57156453105E+02  0.00000000000E+00 0. -1.
         21    1    1    2  502  501 -0.14669378395E+02  0.18277305908E+02  0.19652071182E+01  0.23518346302E+02  0.00000000000E+00 0. -1.
<scales pt_clust_5="13000.00000" pt_clust_6="13000.00000" pt_clust_7="13000.00000" pt_clust_8="13000.00000" pt_clust_9="23.43610"></scales>
<clustering>
<clus scale="   23.436">  1  9  2 -1</clus>
<clus scale="   81.096">  5  6 -1 -1</clus>
<clus scale="   81.223">  2  5  1 -1</clus>
<clus scale="   92.128">  7  8 -1 -1</clus>
<clus scale="   81.223">  2  5  1 -1</clus>
</clustering>
</event>
<event>
 9    2  0.2869112E-005  0.1096412E+03  0.7546771E-02  0.1262770E+00
         -1   -1    0    0    0  501 -0.00000000000E+00  0.00000000000E+00  0.74038039794E+02  0.74038039794E+02  0.00000000000E+00 0.  1.
          2   -1    0    0  502    0  0.00000000000E+00 -0.00000000000E+00 -0.47764153445E+03  0.47764153445E+03  0.00000000000E+00 0. -1.
         23    2    1    2    0    0 -0.47599367459E+02 -0.25749812635E+02 -0.20131024079E+02  0.10748893328E+03  0.90663443650E+02 0.  0.
         24    2    1    2    0    0  0.53759139470E+02 -0.43206448868E+02 -0.35033679521E+03  0.36743856103E+03  0.86708614065E+02 0.  0.
        -11    1    4    4    0    0 -0.17072150096E+02 -0.34763522154E+02 -0.14410637584E+03  0.14921999980E+03  0.00000000000E+00 0.  1.
         12    1    4    4    0    0  0.70831289566E+02 -0.84429267136E+01 -0.20623041937E+03  0.21821856123E+03  0.00000000000E+00 0. -1.
        -11    1    3    3    0    0 -0.41679978076E+02  0.25660350343E+02 -0.25973660526E+02  0.55410334715E+02  0.00000000000E+00 0.  1.
         11    1    3    3    0    0 -0.59193893834E+01 -0.51410162978E+02  0.58426364473E+01  0.52078598568E+02  0.00000000000E+00 0. -1.
         21    1    1    2  502  501 -0.61597720114E+01  0.68956261503E+02 -0.33135675365E+02  0.76752079930E+02  0.00000000000E+00 0. -1.
<scales pt_clust_5="13000.00000" pt_clust_6="13000.00000" pt_clust_7="13000.00000" pt_clust_8="13000.00000" pt_clust_9="69.23084"></scales>
<clustering>
<clus scale="   69.231">  1  9  2 -1</clus>
<clus scale="   86.709">  5  6 -1 -1</clus>
<clus scale="   90.663">  7  8 -1 -1</clus>
<clus scale="  106.394">  2  5  1 -1</clus>
<clus scale="  106.394">  2  5  1 -1</clus>
</clustering>
</event>
<event>
 9    2  0.2869112E-005  0.1011800E+03  0.7546771E-02  0.1281355E+00
         -1   -1    0    0    0  501 -0.00000000000E+00  0.00000000000E+00  0.58669439464E+02  0.58669439464E+02  0.00000000000E+00 0.  1.
          2   -1    0    0  502    0  0.00000000000E+00 -0.00000000000E+00 -0.85141207255E+03  0.85141207255E+03  0.00000000000E+00 0. -1.
         23    2    1    2    0    0  0.31059435347E+02  0.67825459969E+01  0.86179781144E+01  0.96477943337E+02  0.90680938181E+02 0.  0.
         24    2    1    2    0    0 -0.44761509968E+02  0.95155645991E+01 -0.76909955912E+03  0.77494932261E+03  0.83295750348E+02 0.  0.
        -13    1    4    4    0    0 -0.22824244952E+02  0.19735115822E+02 -0.81210279965E+02  0.86634465002E+02  0.00000000000E+00 0.  1.
         14    1    4    4    0    0 -0.21937265016E+02 -0.10219551223E+02 -0.68788927915E+03  0.68831485760E+03  0.00000000000E+00 0. -1.
        -13    1    3    3    0    0  0.23744803696E+02  0.27767141014E+02  0.42445346073E+02  0.56003903666E+02  0.00000000000E+00 0.  1.
         13    1    3    3    0    0  0.73146316511E+01 -0.20984595017E+02 -0.33827367958E+02  0.40474039670E+02  0.00000000000E+00 0. -1.
         21    1    1    2  502  501  0.13702074621E+02 -0.16298110596E+02 -0.32261052083E+02  0.38654246072E+02  0.00000000000E+00 0.  1.
<scales pt_clust_5="13000.00000" pt_clust_6="13000.00000" pt_clust_7="13000.00000" pt_clust_8="13000.00000" pt_clust_9="21.29261"></scales>
<clustering>
<clus scale="   21.293">  1  9  2 -1</clus>
<clus scale="   83.296">  5  6 -1 -1</clus>
<clus scale="   90.681">  7  8 -1 -1</clus>
<clus scale="   94.618">  2  5  1 -1</clus>
<clus scale="   94.618">  2  5  1 -1</clus>
</clustering>
</event>
<event>
 9    2  0.2869112E-005  0.8136289E+02  0.7546771E-02  0.1328385E+00
          2   -1    0    0  502    0  0.00000000000E+00  0.00000000000E+00  0.53845245309E+03  0.53845245309E+03  0.00000000000E+00 0. -1.
         -1   -1    0    0    0  501 -0.00000000000E+00 -0.00000000000E+00 -0.29242972814E+02  0.29242972814E+02  0.00000000000E+00 0.  1.
         24    2    1    2    0    0  0.36714269576E+02  0.56051580627E+01  0.12098834929E+03  0.14969372926E+03  0.79941707064E+02 0.  0.
         23    2    1    2    0    0 -0.53109910574E+01 -0.10322411036E+02  0.37648845464E+03  0.38414798088E+03  0.75441075914E+02 0.  0.
        -11    1    3    3    0    0 -0.97252732247E+00  0.24771831824E+02  0.37608741710E+01  0.25074561528E+02  0.00000000000E+00 0.  1.
         12    1    3    3    0    0  0.37686796899E+02 -0.19166673761E+02  0.11722747511E+03  0.12461916773E+03  0.00000000000E+00 0. -1.
        -11    1    4    4    0    0  0.31012464733E+02  0.10493978363E+02  0.12594907012E+03  0.13013479479E+03  0.00000000000E+00 0.  1.
         11    1    4    4    0    0 -0.36323455791E+02 -0.20816389399E+02  0.25053938452E+03  0.25401318608E+03  0.00000000000E+00 0. -1.
         21    1    1    2  502  501 -0.31403278519E+02  0.47172529733E+01  0.11732676348E+02  0.33853715773E+02  0.00000000000E+00 0.  1.
<scales pt_clust_5="13000.00000" pt_clust_6="13000.00000" pt_clust_7="13000.00000" pt_clust_8="13000.00000" pt_clust_9="31.75560"></scales>
<clustering>
<clus scale="   31.756">  2  9  1 -1</clus>
<clus scale="   75.441">  7  8 -1 -1</clus>
<clus scale="   76.945">  1  7  2 -1</clus>
<clus scale="   79.942">  5  6 -1 -1</clus>
<clus scale="   76.945">  1  5  2 -1</clus>
</clustering>
</event>
<event>
 9    2  0.2869112E-005  0.9138703E+02  0.7546771E-02  0.1305745E+00
         -1   -1    0    0    0  501 -0.00000000000E+00  0.00000000000E+00  0.10256349349E+03  0.10256349349E+03  0.00000000000E+00 0.  1.
          2   -1    0    0  502    0  0.00000000000E+00 -0.00000000000E+00 -0.22444514276E+03  0.22444514276E+03  0.00000000000E+00 0. -1.
         23    2    1    2    0    0 -0.53184088656E+02 -0.67594715981E+01 -0.20032045868E+02  0.10703158552E+03  0.90444677541E+02 0.  0.
         24    2    1    2    0    0  0.14874226804E+01 -0.80660962205E+01 -0.13458169808E+03  0.15701886813E+03  0.80469976742E+02 0.  0.
        -11    1    4    4    0    0  0.16300944879E+02  0.27063290556E+02 -0.22930185535E+02  0.39037621704E+02  0.00000000000E+00 0.  1.
         12    1    4    4    0    0 -0.14813522198E+02 -0.35129386776E+02 -0.11165151254E+03  0.11798124643E+03  0.00000000000E+00 0. -1.
        -13    1    3    3    0    0 -0.58858004822E+02 -0.31298126761E+02  0.10465470706E+02  0.67478615483E+02  0.00000000000E+00 0. -1.
         13    1    3    3    0    0  0.56739161662E+01  0.24538655163E+02 -0.30497516574E+02  0.39552970041E+02  0.00000000000E+00 0.  1.
         21    1    1    2  502  501  0.51696665975E+02  0.14825567819E+02  0.32732094679E+02  0.62958182599E+02  0.00000000000E+00 0.  1.
<scales pt_clust_5="13000.00000" pt_clust_6="13000.00000" pt_clust_7="13000.00000" pt_clust_8="13000.00000" pt_clust_9="53.78051"></scales>
<clustering>
<clus scale="   53.781">  1  9  2 -1</clus>
<clus scale="   80.470">  5  6 -1 -1</clus>
<clus scale="   81.528">  2  5  1 -1</clus>
<clus scale="   90.445">  7  8 -1 -1</clus>
<clus scale="   81.528">  2  5  1 -1</clus>
</clustering>
</event>
<event>
 9    2  0.2869112E-005  0.9109816E+02  0.7546771E-02  0.1301443E+00
         -1   -1    0    0    0  501 -0.00000000000E+00  0.00000000000E+00  0.28097103223E+03  0.28097103223E+03  0.00000000000E+00 0.  1.
          2   -1    0    0  502    0  0.00000000000E+00 -0.00000000000E+00 -0.10084181435E+03  0.10084181435E+03  0.00000000000E+00 0. -1.
         23    2    1    2    0    0 -0.76190622398E+02  0.36012337547E+02  0.13635499801E+03  0.18287344631E+03  0.88023363290E+02 0.  0.
         24    2    1    2    0    0  0.13295448150E+02  0.42293747937E+01 -0.31834196671E+02  0.92676372798E+02  0.85911800381E+02 0.  0.
        -13    1    4    4    0    0 -0.26036207643E+02  0.29189714988E+02 -0.22641693792E+02  0.45194799118E+02  0.00000000000E+00 0.  1.
         14    1    4    4    0    0  0.39331655793E+02 -0.24960340194E+02 -0.91925028785E+01  0.47481573681E+02  0.00000000000E+00 0. -1.
        -11    1    3    3    0    0 -0.47128113556E+02  0.24476884852E+02  0.14154342548E+03  0.15117777044E+03  0.00000000000E+00 0.  1.
         11    1    3    3    0    0 -0.29062508842E+02  0.11535452694E+02 -0.51884274673E+01  0.31695675867E+02  0.00000000000E+00 0. -1.
         21    1    1    2  502  501  0.62895174248E+02 -0.40241712341E+02  0.75608416539E+02  0.10626302747E+03  0.00000000000E+00 0. -1.
<scales pt_clust_5="13000.00000" pt_clust_6="13000.00000" pt_clust_7="13000.00000" pt_clust_8="13000.00000" pt_clust_9="74.66725"></scales>
<clustering>
<clus scale="   74.667">  1  9  2 -1</clus>
<clus scale="   85.912">  5  6 -1 -1</clus>
<clus scale="   88.023">  7  8 -1 -1</clus>
<clus scale="   89.060">  2  5  1 -1</clus>
<clus scale="   89.060">  2  5  1 -1</clus>
</clustering>
</event>
<event>
 9    2  0.2869112E-005  0.9122796E+02  0.7546771E-02  0.1308037E+00
         -1   -1    0    0    0  501 -0.00000000000E+00  0.00000000000E+00  0.34343166599E+02  0.34343166599E+02  0.00000000000E+00 0.  1.
          2   -1    0    0  502    0  0.00000000000E+00 -0.00000000000E+00 -0.45202599925E+03  0.45202599925E+03  0.00000000000E+00 0. -1.
         23    2    1    2    0    0 -0.31227379960E+02  0.22135603929E+02 -0.13000483235E+03  0.16287458475E+03  0.90342347226E+02 0.  0.
         24    2    1    2    0    0 -0.20526970719E+02 -0.70524728197E+01 -0.23376647335E+03  0.24725504807E+03  0.77570618371E+02 0.  0.
        -13    1    4    4    0    0  0.99412579517E+01  0.26534900136E+02 -0.45483366486E+02  0.53587929255E+02  0.00000000000E+00 0.  1.
         14    1    4    4    0    0 -0.30468228671E+02 -0.33587372956E+02 -0.18828310686E+03  0.19366711882E+03  0.00000000000E+00 0. -1.
        -11    1    3    3    0    0 -0.53285448874E+01  0.21039823501E+02  0.74880198871E+01  0.22959486175E+02  0.00000000000E+00 0.  1.
         11    1    3    3    0    0 -0.25898835072E+02  0.10957804278E+01 -0.13749285223E+03  0.13991509857E+03  0.00000000000E+00 0. -1.
         21    1    1    2  502  501  0.51754350679E+02 -0.15083131109E+02 -0.53911526953E+02  0.76239533030E+02  0.00000000000E+00 0. -1.
<scales pt_clust_5="13000.00000" pt_clust_6="13000.00000" pt_clust_7="13000.00000" pt_clust_8="13000.00000" pt_clust_9="53.90745"></scales>
<clustering>
<clus scale="   53.907">  1  9  2 -1</clus>
<clus scale="   77.571">  5  6 -1 -1</clus>
<clus scale="   78.600">  2  5  1 -1</clus>
<clus scale="   90.342">  7  8 -1 -1</clus>
<clus scale="   78.600">  2  5  1 -1</clus>
</clustering>
</event>
<event>
 9    2  0.2869112E-005  0.9042220E+02  0.7546771E-02  0.1308097E+00
          2   -1    0    0  502    0  0.00000000000E+00  0.00000000000E+00  0.82034879340E+02  0.82034879340E+02  0.00000000000E+00 0. -1.
         -1   -1    0    0    0  501 -0.00000000000E+00 -0.00000000000E+00 -0.13696960327E+03  0.13696960327E+03  0.00000000000E+00 0.  1.
         23    2    1    2    0    0  0.22502084370E+02 -0.85663449864E+01 -0.28559138663E+02  0.97400093989E+02  0.89952364285E+02 0.  0.
         24    2    1    2    0    0  0.14374994109E+02  0.84363667550E+01 -0.18979603599E+02  0.83992736751E+02  0.80104567500E+02 0.  0.
        -13    1    4    4    0    0 -0.23135596271E+02  0.30291599803E+02 -0.53457652885E+01  0.38489141845E+02  0.00000000000E+00 0.  1.
         14    1    4    4    0    0  0.37510590381E+02 -0.21855233048E+02 -0.13633838311E+02  0.45503594906E+02  0.00000000000E+00 0. -1.
        -11    1    3    3    0    0  0.40307095363E+02  0.64487905372E+01  0.18558286932E+02  0.44840370759E+02  0.00000000000E+00 0. -1.
         11    1    3    3    0    0 -0.17805010993E+02 -0.15015135524E+02 -0.47117425595E+02  0.52559723229E+02  0.00000000000E+00 0.  1.
         21    1    1    2  502  501 -0.36877078480E+02  0.12997823141E+00 -0.73959816678E+01  0.37611651870E+02  0.00000000000E+00 0.  1.
<scales pt_clust_5="13000.00000" pt_clust_6="13000.00000" pt_clust_7="13000.00000" pt_clust_8="13000.00000" pt_clust_9="36.87731"></scales>
<clustering>
<clus scale="   36.877">  1  9  2 -1</clus>
<clus scale="   80.105">  5  6 -1 -1</clus>
<clus scale="   80.632">  1  5  2 -1</clus>
<clus scale="   89.952">  7  8 -1 -1</clus>
<clus scale="   36.877">  1  5  2 -1</clus>
</clustering>
</event>
<event>
 9    2  0.2869112E-005  0.9469014E+02  0.7546771E-02  0.1300207E+00
          2   -1    0    0  502    0  0.00000000000E+00  0.00000000000E+00  0.27117387625E+03  0.27117387625E+03  0.00000000000E+00 0. -1.
         -1   -1    0    0    0  501 -0.00000000000E+00 -0.00000000000E+00 -0.64154984362E+02  0.64154984362E+02  0.00000000000E+00 0.  1.
         24    2    1    2    0    0 -0.14517652771E+02  0.22296064460E+02  0.15842885225E+01  0.84635757897E+02  0.80329476609E+02 0.  0.
         23    2    1    2    0    0 -0.97866424672E+01 -0.72078133009E+01  0.20034499168E+03  0.22163698052E+03  0.94005874811E+02 0.  0.
        -13    1    3    3    0    0 -0.21609939259E+02  0.48032333835E+02 -0.12952331850E+02  0.54238892584E+02  0.00000000000E+00 0.  1.
         14    1    3    3    0    0  0.70922864886E+01 -0.25736269375E+02  0.14536620373E+02  0.30396865313E+02  0.00000000000E+00 0. -1.
        -11    1    4    4    0    0  0.19207432399E+02  0.34559510289E+02  0.12193283027E+03  0.12818307341E+03  0.00000000000E+00 0.  1.
         11    1    4    4    0    0 -0.28994074866E+02 -0.41767323590E+02  0.78412161409E+02  0.93453907109E+02  0.00000000000E+00 0. -1.
         21    1    1    2  502  501  0.24304295238E+02 -0.15088251159E+02  0.50896116860E+01  0.29056122198E+02  0.00000000000E+00 0. -1.
<scales pt_clust_5="13000.00000" pt_clust_6="13000.00000" pt_clust_7="13000.00000" pt_clust_8="13000.00000" pt_clust_9="28.60689"></scales>
<clustering>
<clus scale="   28.607">  2  9  1 -1</clus>
<clus scale="   80.329">  5  6 -1 -1</clus>
<clus scale="   81.129">  2  5  1 -1</clus>
<clus scale="   94.006">  7  8 -1 -1</clus>
<clus scale="   94.690">  1  5  2 -1</clus>
</clustering>
</event>
<event>
 9    2  0.2869112E-005  0.9439999E+02  0.7546771E-02  0.1301214E+00
         -1   -1    0    0    0  501 -0.00000000000E+00  0.00000000000E+00  0.91817618532E+02  0.91817618532E+02  0.00000000000E+00 0.  1.
          2   -1    0    0  502    0  0.00000000000E+00 -0.00000000000E+00 -0.23647369859E+03  0.23647369859E+03  0.00000000000E+00 0. -1.
         23    2    1    2    0    0  0.62257214486E+01 -0.45522017707E+02 -0.59939189461E+02  0.12014274108E+03  0.93437455534E+02 0.  0.
         24    2    1    2    0    0  0.61438438597E+01  0.65860642936E+00 -0.12397319804E+03  0.14726516704E+03  0.79243264779E+02 0.  0.
        -11    1    4    4    0    0  0.41669529896E+02  0.21412201295E+01 -0.49500908717E+02  0.64740053361E+02  0.00000000000E+00 0.  1.
         12    1    4    4    0    0 -0.35525686036E+02 -0.14826137001E+01 -0.74472289320E+02  0.82525113682E+02  0.00000000000E+00 0. -1.
        -13    1    3    3    0    0  0.46445691317E+02 -0.33948010662E+02 -0.16560697524E+02  0.59865903253E+02  0.00000000000E+00 0.  1.
         13    1    3    3    0    0 -0.40219969869E+02 -0.11574007045E+02 -0.43378491937E+02  0.60276837824E+02  0.00000000000E+00 0. -1.
         21    1    1    2  502  501 -0.12369565308E+02  0.44863411277E+02  0.39256307442E+02  0.60883408999E+02  0.00000000000E+00 0. -1.
<scales pt_clust_5="13000.00000" pt_clust_6="13000.00000" pt_clust_7="13000.00000" pt_clust_8="13000.00000" pt_clust_9="46.53742"></scales>
<clustering>
<clus scale="   46.537">  1  9  2 -1</clus>
<clus scale="   79.243">  5  6 -1 -1</clus>
<clus scale="   80.376">  2  5  1 -1</clus>
<clus scale="   93.437">  7  8 -1 -1</clus>
<clus scale="   80.376">  2  5  1 -1</clus>
</clustering>
</event>
<event>
 9    2  0.2869112E-005  0.1632274E+03  0.7546771E-02  0.1186890E+00
          2   -1    0    0  502    0  0.00000000000E+00  0.00000000000E+00  0.12836231875E+04  0.12836231875E+04  0.00000000000E+00 0. -1.
         -1   -1    0    0    0  501 -0.00000000000E+00 -0.00000000000E+00 -0.40131512272E+03  0.40131512272E+03  0.00000000000E+00 0.  1.
         23    2    1    2    0    0  0.88948279486E+02  0.18854903034E+01  0.83330998589E+02  0.15179924119E+03  0.90463267698E+02 0.  0.
         24    2    1    2    0    0 -0.13724114948E+03 -0.44924375571E+02  0.11573596846E+04  0.11689651433E+04  0.78388353550E+02 0.  0.
        -13    1    4    4    0    0 -0.11899370295E+03 -0.15383626488E+02  0.69308705479E+03  0.70339592182E+03  0.00000000000E+00 0.  1.
         14    1    4    4    0    0 -0.18247446528E+02 -0.29540749083E+02  0.46427262983E+03  0.46556922146E+03  0.00000000000E+00 0. -1.
        -13    1    3    3    0    0 -0.64374965252E+01 -0.23697028119E+02  0.34848220793E+01  0.24801904929E+02  0.00000000000E+00 0. -1.
         13    1    3    3    0    0  0.95385776011E+02  0.25582518422E+02  0.79846176510E+02  0.12699733626E+03  0.00000000000E+00 0.  1.
         21    1    1    2  502  501  0.48292869995E+02  0.43038885268E+02 -0.35838261848E+03  0.36417392571E+03  0.00000000000E+00 0.  1.
<scales pt_clust_5="13000.00000" pt_clust_6="13000.00000" pt_clust_7="13000.00000" pt_clust_8="13000.00000" pt_clust_9="64.68807"></scales>
<clustering>
<clus scale="   64.688">  2  9  1 -1</clus>
<clus scale="   78.388">  5  6 -1 -1</clus>
<clus scale="   90.463">  7  8 -1 -1</clus>
<clus scale="  156.858">  1  5  2 -1</clus>
<clus scale="  156.858">  1  5  2 -1</clus>
</clustering>
</event>
<event>
 9    2  0.2869112E-005  0.1061580E+03  0.7546771E-02  0.1274013E+00
         -1   -1    0    0    0  501 -0.00000000000E+00  0.00000000000E+00  0.51025818448E+02  0.51025818448E+02  0.00000000000E+00 0.  1.
          2   -1    0    0  502    0  0.00000000000E+00 -0.00000000000E+00 -0.59607519132E+03  0.59607519132E+03  0.00000000000E+00 0. -1.
         23    2    1    2    0    0 -0.34188487489E+02  0.65570355436E+01 -0.51068799559E+02  0.11181662394E+03  0.93183087036E+02 0.  0.
         24    2    1    2    0    0  0.53312100907E+02  0.23395176496E+01 -0.50324283659E+03  0.51224852747E+03  0.79357090912E+02 0.  0.
        -11    1    4    4    0    0  0.19576298266E+02  0.37994939740E+02 -0.16423848741E+03  0.16970894981E+03  0.00000000000E+00 0.  1.
         12    1    4    4    0    0  0.33735802641E+02 -0.35655422090E+02 -0.33900434918E+03  0.34253957767E+03  0.00000000000E+00 0. -1.
        -11    1    3    3    0    0 -0.43696850841E+01  0.42652778138E+02 -0.46850829684E+00  0.42878585922E+02  0.00000000000E+00 0.  1.
         11    1    3    3    0    0 -0.29818802405E+02 -0.36095742594E+02 -0.50600291262E+02  0.68938038020E+02  0.00000000000E+00 0. -1.
         21    1    1    2  502  501 -0.19123613418E+02 -0.88965531931E+01  0.92622632753E+01  0.23035858349E+02  0.00000000000E+00 0.  1.
<scales pt_clust_5="13000.00000" pt_clust_6="13000.00000" pt_clust_7="13000.00000" pt_clust_8="13000.00000" pt_clust_9="21.09173"></scales>
<clustering>
<clus scale="   21.092">  1  9  2 -1</clus>
<clus scale="   79.357">  5  6 -1 -1</clus>
<clus scale="   93.183">  7  8 -1 -1</clus>
<clus scale="   94.255">  2  5  1 -1</clus>
<clus scale="   94.255">  2  5  1 -1</clus>
</clustering>
</event>
<event>
 9    2  0.2869112E-005  0.9787817E+02  0.7546771E-02  0.1289691E+00
         -1   -1    0    0    0  501 -0.00000000000E+00  0.00000000000E+00  0.16526235789E+03  0.16526235789E+03  0.00000000000E+00 0.  1.
          2   -1    0    0  502    0  0.00000000000E+00 -0.00000000000E+00 -0.27705600216E+03  0.27705600216E+03  0.00000000000E+00 0. -1.
         23    2    1    2    0    0  0.12750722628E+01 -0.12979644124E+02  0.12564565380E+03  0.15484973440E+03  0.89562899423E+02 0.  0.
         24    2    1    2    0    0  0.18692483355E+02  0.36644920739E+02 -0.24005788930E+03  0.25639443033E+03  0.80112761405E+02 0.  0.
        -13    1    4    4    0    0  0.22503309938E+02  0.58504388473E+02 -0.13259888307E+03  0.14666842271E+03  0.00000000000E+00 0.  1.
         14    1    4    4    0    0 -0.38108265833E+01 -0.21859467733E+02 -0.10745900622E+03  0.10972600762E+03  0.00000000000E+00 0. -1.
        -13    1    3    3    0    0  0.29025547792E+02 -0.40441207631E+02  0.84910974306E+02  0.98426862476E+02  0.00000000000E+00 0.  1.
         13    1    3    3    0    0 -0.27750475530E+02  0.27461563506E+02  0.40734679495E+02  0.56422871922E+02  0.00000000000E+00 0. -1.
         21    1    1    2  502  501 -0.19967555618E+02 -0.23665276615E+02  0.26185912231E+01  0.31074195317E+02  0.00000000000E+00 0.  1.
<scales pt_clust_5="13000.00000" pt_clust_6="13000.00000" pt_clust_7="13000.00000" pt_clust_8="13000.00000" pt_clust_9="30.96367"></scales>
<clustering>
<clus scale="   30.964">  1  9  2 -1</clus>
<clus scale="   80.113">  5  6 -1 -1</clus>
<clus scale="   89.312">  2  5  1 -1</clus>
<clus scale="   89.563">  7  8 -1 -1</clus>
<clus scale="   89.312">  2  5  1 -1</clus>
</clustering>
</event>
<event>
 9    2  0.2869112E-005  0.9486980E+02  0.7546771E-02  0.1298861E+00
         -1   -1    0    0    0  501 -0.00000000000E+00  0.00000000000E+00  0.15167023029E+03  0.15167023029E+03  0.00000000000E+00 0.  1.
          2   -1    0    0  502    0  0.00000000000E+00 -0.00000000000E+00 -0.12923187232E+03  0.12923187232E+03  0.00000000000E+00 0. -1.
         23    2    1    2    0    0  0.24683170867E+02 -0.24819308854E+02  0.79935135745E+02  0.12698419747E+03  0.92250222027E+02 0.  0.
         24    2    1    2    0    0  0.13931844259E+02  0.19877786979E+02 -0.74204240643E+02  0.11155427277E+03  0.79679757436E+02 0.  0.
        -13    1    4    4    0    0  0.29046726506E+02 -0.81570094745E+00  0.39321685553E+01  0.29323022326E+02  0.00000000000E+00 0.  1.
         14    1    4    4    0    0 -0.15114882247E+02  0.20693487927E+02 -0.78136409198E+02  0.82231250448E+02  0.00000000000E+00 0. -1.
        -11    1    3    3    0    0  0.40812810956E+02  0.61388684509E+01  0.82224317118E+02  0.92001138958E+02  0.00000000000E+00 0. -1.
         11    1    3    3    0    0 -0.16129640089E+02 -0.30958177305E+02 -0.22891813727E+01  0.34983058511E+02  0.00000000000E+00 0.  1.
         21    1    1    2  502  501 -0.38615015126E+02  0.49415218746E+01  0.16707462867E+02  0.42363632364E+02  0.00000000000E+00 0. -1.
<scales pt_clust_5="13000.00000" pt_clust_6="13000.00000" pt_clust_7="13000.00000" pt_clust_8="13000.00000" pt_clust_9="38.92991"></scales>
<clustering>
<clus scale="   38.930">  1  9  2 -1</clus>
<clus scale="   79.680">  5  6 -1 -1</clus>
<clus scale="   82.698">  2  5  1 -1</clus>
<clus scale="   92.250">  7  8 -1 -1</clus>
<clus scale="   82.698">  2  5  1 -1</clus>
</clustering>
</event>
<event>
 9    2  0.2869112E-005  0.9153951E+02  0.7546771E-02  0.1301780E+00
         -1   -1    0    0    0  501 -0.00000000000E+00  0.00000000000E+00  0.84130456164E+02  0.84130456164E+02  0.00000000000E+00 0.  1.
          2   -1    0    0  502    0  0.00000000000E+00 -0.00000000000E+00 -0.36331148918E+03  0.36331148918E+03  0.00000000000E+00 0. -1.
         24    2    1    2    0    0 -0.45403724791E+02  0.13895605984E+02  0.34035331422E+01  0.95036590452E+02  0.82254382232E+02 0.  0.
         23    2    1    2    0    0  0.20262153846E+02 -0.17911780660E+02 -0.30513604360E+03  0.31839363069E+03  0.86805024013E+02 0.  0.
        -11    1    3    3    0    0 -0.38515818968E+02  0.47118170832E+02 -0.69323814862E+00  0.60861078799E+02  0.00000000000E+00 0.  1.
         12    1    3    3    0    0 -0.68879058229E+01 -0.33222564849E+02  0.40967712908E+01  0.34175511653E+02  0.00000000000E+00 0. -1.
        -11    1    4    4    0    0  0.43938762079E+02  0.46072508872E+01 -0.25325942043E+03  0.25708398551E+03  0.00000000000E+00 0. -1.
         11    1    4    4    0    0 -0.23676608234E+02 -0.22519031548E+02 -0.51876623174E+02  0.61309645173E+02  0.00000000000E+00 0.  1.
         21    1    1    2  502  501  0.25141570946E+02  0.40161746767E+01  0.22551477440E+02  0.34011724205E+02  0.00000000000E+00 0. -1.
<scales pt_clust_5="13000.00000" pt_clust_6="13000.00000" pt_clust_7="13000.00000" pt_clust_8="13000.00000" pt_clust_9="25.46033"></scales>
<clustering>
<clus scale="   25.460">  1  9  2 -1</clus>
<clus scale="   82.254">  5  6 -1 -1</clus>
<clus scale="   86.805">  7  8 -1 -1</clus>
<clus scale="   87.236">  1  5  2 -1</clus>
<clus scale="   91.540">  2  5  1 -1</clus>
</clustering>
</event>
<event>
 9    2  0.2869112E-005  0.1148116E+03  0.7546771E-02  0.1255897E+00
         -1   -1    0    0    0  501 -0.00000000000E+00  0.00000000000E+00  0.53513862029E+02  0.53513862029E+02  0.00000000000E+00 0.  1.
          2   -1    0    0  502    0  0.00000000000E+00 -0.00000000000E+00 -0.44696416990E+03  0.44696416990E+03  0.00000000000E+00 0. -1.
         23    2    1    2    0    0  0.21226716082E+02 -0.68946237770E+02 -0.69504733976E+02  0.13497495271E+03  0.90460890094E+02 0.  0.
         24    2    1    2    0    0 -0.55972004718E+02  0.46755953114E+02 -0.29792448984E+03  0.31675125227E+03  0.79078250498E+02 0.  0.
        -11    1    4    4    0    0 -0.33704003167E+02 -0.10921899078E+02 -0.50301241929E+02  0.61526113550E+02  0.00000000000E+00 0.  1.
         12    1    4    4    0    0 -0.22268001551E+02  0.57677852193E+02 -0.24762324791E+03  0.25522513872E+03  0.00000000000E+00 0. -1.
        -13    1    3    3    0    0  0.39892363726E+02  0.45020540064E+00 -0.86839069142E+01  0.40829077970E+02  0.00000000000E+00 0. -1.
         13    1    3    3    0    0 -0.18665647645E+02 -0.69396443171E+02 -0.60820827061E+02  0.94145874743E+02  0.00000000000E+00 0.  1.
         21    1    1    2  502  501  0.34745288636E+02  0.22190284656E+02 -0.26021084055E+02  0.48751826949E+02  0.00000000000E+00 0.  1.
<scales pt_clust_5="13000.00000" pt_clust_6="13000.00000" pt_clust_7="13000.00000" pt_clust_8="13000.00000" pt_clust_9="41.22674"></scales>
<clustering>
<clus scale="   41.227">  1  9  2 -1</clus>
<clus scale="   79.078">  5  6 -1 -1</clus>
<clus scale="   90.461">  7  8 -1 -1</clus>
<clus scale="  106.075">  2  5  1 -1</clus>
<clus scale="  106.075">  2  5  1 -1</clus>
</clustering>
</event>
<event>
 9    2  0.2869112E-005  0.9943144E+02  0.7546771E-02  0.1291237E+00
         -1   -1    0    0    0  501 -0.00000000000E+00  0.00000000000E+00  0.29485471341E+02  0.29485471341E+02  0.00000000000E+00 0.  1.
          2   -1    0    0  502    0  0.00000000000E+00 -0.00000000000E+00 -0.71543824807E+03  0.71543824807E+03  0.00000000000E+00 0. -1.
         23    2    1    2    0    0 -0.14411886232E+02 -0.52819930640E+01 -0.24898274778E+03  0.26621519210E+03  0.92965143451E+02 0.  0.
         24    2    1    2    0    0  0.41851481749E+02 -0.24552830754E+02 -0.42799139953E+03  0.43719149586E+03  0.74869072124E+02 0.  0.
        -11    1    4    4    0    0 -0.16448210350E+02 -0.16503051333E+02 -0.57281556060E+02  0.61839073341E+02  0.00000000000E+00 0.  1.
         12    1    4    4    0    0  0.58299692099E+02 -0.80497794206E+01 -0.37070984347E+03  0.37535242252E+03  0.00000000000E+00 0. -1.
        -11    1    3    3    0    0  0.13901055510E+02 -0.40748691877E+02 -0.16752237553E+03  0.17296659082E+03  0.00000000000E+00 0. -1.
         11    1    3    3    0    0 -0.28312941743E+02  0.35466698813E+02 -0.81460372247E+02  0.93248601284E+02  0.00000000000E+00 0.  1.
         21    1    1    2  502  501 -0.27439595516E+02  0.29834823818E+02 -0.89786294237E+01  0.41517031453E+02  0.00000000000E+00 0.  1.
<scales pt_clust_5="13000.00000" pt_clust_6="13000.00000" pt_clust_7="13000.00000" pt_clust_8="13000.00000" pt_clust_9="40.53453"></scales>
<clustering>
<clus scale="   40.535">  1  9  2 -1</clus>
<clus scale="   74.869">  5  6 -1 -1</clus>
<clus scale="   82.762">  2  5  1 -1</clus>
<clus scale="   92.965">  7  8 -1 -1</clus>
<clus scale="   82.762">  2  5  1 -1</clus>
</clustering>
</event>
<event>
 9    2  0.2869112E-005  0.1037966E+03  0.7546771E-02  0.1277323E+00
         -1   -1    0    0    0  501 -0.00000000000E+00  0.00000000000E+00  0.78452051324E+02  0.78452051324E+02  0.00000000000E+00 0.  1.
          2   -1    0    0  502    0  0.00000000000E+00 -0.00000000000E+00 -0.89342071519E+03  0.89342071519E+03  0.00000000000E+00 0. -1.
         23    2    1    2    0    0  0.25254288722E+02 -0.52513426557E+02 -0.15386490748E+03  0.18825228814E+03  0.91482649555E+02 0.  0.
         24    2    1    2    0    0 -0.50994686693E+02 -0.30013265756E+02 -0.68629233821E+03  0.69357777914E+03  0.80942621868E+02 0.  0.
        -13    1    4    4    0    0 -0.27081033681E+02 -0.17031505505E+02 -0.73243385232E+02  0.79925265375E+02  0.00000000000E+00 0.  1.
         14    1    4    4    0    0 -0.23913653012E+02 -0.12981760251E+02 -0.61304895298E+03  0.61365251376E+03  0.00000000000E+00 0. -1.
        -11    1    3    3    0    0 -0.24719500841E+02 -0.52637886925E+02 -0.75321287856E+02  0.95158274816E+02  0.00000000000E+00 0. -1.
         11    1    3    3    0    0  0.49973789563E+02  0.12446036751E+00 -0.78543619624E+02  0.93094013326E+02  0.00000000000E+00 0.  1.
         21    1    1    2  502  501  0.25740397972E+02  0.82526692313E+02  0.25188581821E+02  0.90042699238E+02  0.00000000000E+00 0.  1.
<scales pt_clust_5="13000.00000" pt_clust_6="13000.00000" pt_clust_7="13000.00000" pt_clust_8="13000.00000" pt_clust_9="86.44781"></scales>
<clustering>
<clus scale="   80.943">  5  6 -1 -1</clus>
<clus scale="   86.448">  1  9  2 -1</clus>
<clus scale="   91.483">  7  8 -1 -1</clus>
<clus scale="   94.638">  2  5  1 -1</clus>
<clus scale="   94.638">  2  5  1 -1</clus>
</clustering>
</event>
<event>
 9    2  0.2869112E-005  0.1048085E+03  0.7546771E-02  0.1275271E+00
         -1   -1    0    0    0  501 -0.00000000000E+00  0.00000000000E+00  0.86314087289E+02  0.86314087289E+02  0.00000000000E+00 0.  1.
          2   -1    0    0  502    0  0.00000000000E+00 -0.00000000000E+00 -0.19746797976E+03  0.19746797976E+03  0.00000000000E+00 0. -1.
         24    2    1    2    0    0  0.68022770505E+02 -0.35901823806E+01  0.14737329357E+02  0.10570676244E+03  0.79477946831E+02 0.  0.
         23    2    1    2    0    0 -0.48424153592E+02 -0.53960626687E+00 -0.11861390002E+03  0.15676520485E+03  0.90337602067E+02 0.  0.
        -11    1    3    3    0    0  0.49607736609E+02 -0.39937651114E+01  0.47066111659E+02  0.68498879976E+02  0.00000000000E+00 0.  1.
         12    1    3    3    0    0  0.18415033896E+02  0.40358273082E+00 -0.32328782302E+02  0.37207882465E+02  0.00000000000E+00 0. -1.
        -13    1    4    4    0    0 -0.26171175104E+02 -0.35174014493E+02 -0.10436839517E+03  0.11320293111E+03  0.00000000000E+00 0.  1.
         13    1    4    4    0    0 -0.22252978488E+02  0.34634408226E+02 -0.14245504852E+02  0.43562273739E+02  0.00000000000E+00 0. -1.
         21    1    1    2  502  501 -0.19598616914E+02  0.41297886474E+01 -0.72773218105E+01  0.21310099764E+02  0.00000000000E+00 0. -1.
<scales pt_clust_5="13000.00000" pt_clust_6="13000.00000" pt_clust_7="13000.00000" pt_clust_8="13000.00000" pt_clust_9="20.02900"></scales>
<clustering>
<clus scale="   20.029">  1  9  2 -1</clus>
<clus scale="   79.478">  5  6 -1 -1</clus>
<clus scale="   90.338">  7  8 -1 -1</clus>
<clus scale="   95.607">  1  5  2 -1</clus>
<clus scale="  104.808">  2  5  1 -1</clus>
</clustering>
</event>
<event>
 9    2  0.2869112E-005  0.1624882E+03  0.7546771E-02  0.1188366E+00
          2   -1    0    0  502    0  0.00000000000E+00  0.00000000000E+00  0.15074490780E+04  0.15074490780E+04  0.00000000000E+00 0. -1.
         -1   -1    0    0    0  501 -0.00000000000E+00 -0.00000000000E+00 -0.37225697482E+02  0.37225697482E+02  0.00000000000E+00 0.  1.
         24    2    1    2    0    0  0.12604041489E+03  0.89174025259E+02  0.71928920481E+03  0.73993845903E+03  0.79333284530E+02 0.  0.
         23    2    1    2    0    0 -0.11711583256E+03 -0.23424420886E+02  0.71122866435E+03  0.72741111824E+03  0.94952094307E+02 0.  0.
        -11    1    3    3    0    0  0.62358406743E+02  0.68502940148E+02  0.26461345508E+03  0.28035959821E+03  0.00000000000E+00 0.  1.
         12    1    3    3    0    0  0.63682008149E+02  0.20671085111E+02  0.45467574973E+03  0.45957886082E+03  0.00000000000E+00 0. -1.
        -13    1    4    4    0    0 -0.80915946828E+02  0.30935600759E+02  0.37208977957E+03  0.38204084325E+03  0.00000000000E+00 0. -1.
         13    1    4    4    0    0 -0.36199885731E+02 -0.54360021646E+02  0.33913888478E+03  0.34537027499E+03  0.00000000000E+00 0.  1.
         21    1    1    2  502  501 -0.89245823329E+01 -0.65749604373E+02  0.39705511346E+02  0.77325198197E+02  0.00000000000E+00 0. -1.
<scales pt_clust_5="13000.00000" pt_clust_6="13000.00000" pt_clust_7="13000.00000" pt_clust_8="13000.00000" pt_clust_9="66.35253"></scales>
<clustering>
<clus scale="   66.353">  2  9  1 -1</clus>
<clus scale="   79.333">  5  6 -1 -1</clus>
<clus scale="   94.952">  7  8 -1 -1</clus>
<clus scale="  153.884">  2  5  1 -1</clus>
<clus scale="  162.488">  1  5  2 -1</clus>
</clustering>
</event>
<event>
 9    2  0.2869112E-005  0.1295266E+03  0.7546771E-02  0.1231314E+00
         -1   -1    0    0    0  501 -0.00000000000E+00  0.00000000000E+00  0.16725766595E+02  0.16725766595E+02  0.00000000000E+00 0.  1.
          2   -1    0    0  502    0  0.00000000000E+00 -0.00000000000E+00 -0.24070399611E+04  0.24070399611E+04  0.00000000000E+00 0. -1.
         23    2    1    2    0    0  0.59429291627E+01  0.69011998278E+02 -0.24434872651E+03  0.26994121451E+03  0.91454823973E+02 0.  0.
         24    2    1    2    0    0  0.15833034972E+02 -0.80306429483E+02 -0.20670210400E+04  0.20711566264E+04  0.10204892839E+03 0.  0.
        -13    1    4    4    0    0  0.12793094425E+02 -0.28192056120E+02 -0.13802832761E+03  0.14145767748E+03  0.00000000000E+00 0.  1.
         14    1    4    4    0    0  0.30399405469E+01 -0.52114373363E+02 -0.19289927124E+04  0.19296989489E+04  0.00000000000E+00 0. -1.
        -13    1    3    3    0    0 -0.40922481893E+02  0.26547384496E+02 -0.78237259801E+02  0.92198058380E+02  0.00000000000E+00 0. -1.
         13    1    3    3    0    0  0.46865411055E+02  0.42464613782E+02 -0.16611146671E+03  0.17774315613E+03  0.00000000000E+00 0.  1.
         21    1    1    2  502  501 -0.21775964135E+02  0.11294431205E+02 -0.78944428010E+02  0.82667886777E+02  0.00000000000E+00 0.  1.
<scales pt_clust_5="13000.00000" pt_clust_6="13000.00000" pt_clust_7="13000.00000" pt_clust_8="13000.00000" pt_clust_9="24.53073"></scales>
<clustering>
<clus scale="   24.531">  1  9  2 -1</clus>
<clus scale="   91.455">  7  8 -1 -1</clus>
<clus scale="  102.049">  5  6 -1 -1</clus>
<clus scale="  121.355">  1  7  2 -1</clus>
<clus scale="  129.527">  2  5  1 -1</clus>
</clustering>
</event>
<event>
 9    2  0.2869112E-005  0.1119051E+03  0.7546771E-02  0.1261758E+00
         -1   -1    0    0    0  501 -0.00000000000E+00  0.00000000000E+00  0.20996463418E+03  0.20996463418E+03  0.00000000000E+00 0.  1.
          2   -1    0    0  502    0  0.00000000000E+00 -0.00000000000E+00 -0.17036002997E+03  0.17036002997E+03  0.00000000000E+00 0. -1.
         23    2    1    2    0    0 -0.35631426689E+02 -0.71739784332E+02  0.10115088401E+03  0.15804286036E+03  0.91268007264E+02 0.  0.
         24    2    1    2    0    0 -0.29829546635E+02  0.59717651903E+02 -0.10133303913E+03  0.14474047987E+03  0.78901342782E+02 0.  0.
        -13    1    4    4    0    0  0.13993157791E+02  0.30358265813E+02 -0.35225633522E+01  0.33613110845E+02  0.00000000000E+00 0.  1.
         14    1    4    4    0    0 -0.43822704426E+02  0.29359386090E+02 -0.97810475778E+02  0.11112736903E+03  0.00000000000E+00 0. -1.
        -11    1    3    3    0    0  0.23567077408E+02 -0.39422705239E+02  0.14350823001E+02  0.48119673178E+02  0.00000000000E+00 0. -1.
         11    1    3    3    0    0 -0.59198504098E+02 -0.32317079093E+02  0.86800061008E+02  0.10992318718E+03  0.00000000000E+00 0.  1.
         21    1    1    2  502  501  0.65460973324E+02  0.12022132430E+02  0.39786759333E+02  0.77541323918E+02  0.00000000000E+00 0. -1.
<scales pt_clust_5="13000.00000" pt_clust_6="13000.00000" pt_clust_7="13000.00000" pt_clust_8="13000.00000" pt_clust_9="66.55577"></scales>
<clustering>
<clus scale="   66.556">  1  9  2 -1</clus>
<clus scale="   78.901">  5  6 -1 -1</clus>
<clus scale="   91.268">  7  8 -1 -1</clus>
<clus scale="  102.070">  2  5  1 -1</clus>
<clus scale="  102.070">  2  5  1 -1</clus>
</clustering>
</event>
<event>
 9    2  0.2869112E-005  0.1196991E+03  0.7546771E-02  0.1247295E+00
          2   -1    0    0  502    0  0.00000000000E+00  0.00000000000E+00  0.22047791160E+03  0.22047791160E+03  0.00000000000E+00 0. -1.
         -1   -1    0    0    0  501 -0.00000000000E+00 -0.00000000000E+00 -0.30024249366E+03  0.30024249366E+03  0.00000000000E+00 0.  1.
         23    2    1    2    0    0 -0.75999816128E+02  0.47173593118E+01 -0.26045081227E+03  0.28643361366E+03  0.91713488059E+02 0.  0.
         24    2    1    2    0    0  0.87321055554E+02  0.20272847214E+02  0.13333222797E+03  0.17955944549E+03  0.80175784202E+02 0.  0.
        -13    1    4    4    0    0  0.12913190835E+02 -0.26228258510E+02  0.53338795194E+02  0.60825151991E+02  0.00000000000E+00 0.  1.
         14    1    4    4    0    0  0.74407864719E+02  0.46501105724E+02  0.79993432774E+02  0.11873429350E+03  0.00000000000E+00 0. -1.
        -11    1    3    3    0    0 -0.69081827461E+02  0.42177806348E+02 -0.16982665504E+03  0.18812857038E+03  0.00000000000E+00 0.  1.
         11    1    3    3    0    0 -0.69179886677E+01 -0.37460447036E+02 -0.90624157233E+02  0.98305043276E+02  0.00000000000E+00 0. -1.
         21    1    1    2  502  501 -0.11321239425E+02 -0.24990206525E+02  0.47354002244E+02  0.54727346116E+02  0.00000000000E+00 0.  1.
<scales pt_clust_5="13000.00000" pt_clust_6="13000.00000" pt_clust_7="13000.00000" pt_clust_8="13000.00000" pt_clust_9="27.43503"></scales>
<clustering>
<clus scale="   27.435">  1  9  2 -1</clus>
<clus scale="   80.176">  5  6 -1 -1</clus>
<clus scale="   91.713">  7  8 -1 -1</clus>
<clus scale="  111.107">  1  5  2 -1</clus>
<clus scale="   27.435">  1  5  2 -1</clus>
</clustering>
</event>
<event>
 9    2  0.2869112E-005  0.1017467E+03  0.7546771E-02  0.1283242E+00
          2   -1    0    0  502    0  0.00000000000E+00  0.00000000000E+00  0.68284334848E+03  0.68284334848E+03  0.00000000000E+00 0. -1.
         -1   -1    0    0    0  501 -0.00000000000E+00 -0.00000000000E+00 -0.88563544311E+02  0.88563544311E+02  0.00000000000E+00 0.  1.
         23    2    1    2    0    0 -0.67604607184E+01  0.33034035366E+02 -0.28477558342E+02  0.10416844774E+03  0.94356466943E+02 0.  0.
         24    2    1    2    0    0  0.12439482472E+02  0.39878344509E+02  0.56944843374E+03  0.57673812287E+03  0.81303878150E+02 0.  0.
        -13    1    4    4    0    0  0.96030566584E+01 -0.18498579308E+02  0.52340441399E+02  0.56337713296E+02  0.00000000000E+00 0.  1.
         14    1    4    4    0    0  0.28364258137E+01  0.58376923818E+02  0.51710799234E+03  0.52040040958E+03  0.00000000000E+00 0. -1.
        -11    1    3    3    0    0  0.16435331446E+01 -0.24694981601E+02 -0.37708471784E+02  0.45105123454E+02  0.00000000000E+00 0.  1.
         11    1    3    3    0    0 -0.84039938630E+01  0.57729016968E+02  0.92309134418E+01  0.59063324287E+02  0.00000000000E+00 0. -1.
         21    1    1    2  502  501 -0.56790217537E+01 -0.72912379876E+02  0.53308928771E+02  0.90500322176E+02  0.00000000000E+00 0.  1.
<scales pt_clust_5="13000.00000" pt_clust_6="13000.00000" pt_clust_7="13000.00000" pt_clust_8="13000.00000" pt_clust_9="73.13321"></scales>
<clustering>
<clus scale="   73.133">  2  9  1 -1</clus>
<clus scale="   81.304">  5  6 -1 -1</clus>
<clus scale="   89.775">  1  5  2 -1</clus>
<clus scale="   94.356">  7  8 -1 -1</clus>
<clus scale="   89.775">  1  5  2 -1</clus>
</clustering>
</event>
<event>
 9    2  0.2869112E-005  0.9527847E+02  0.7546771E-02  0.1298340E+00
          2   -1    0    0  502    0  0.00000000000E+00  0.00000000000E+00  0.17973889354E+03  0.17973889354E+03  0.00000000000E+00 0. -1.
         -1   -1    0    0    0  501 -0.00000000000E+00 -0.00000000000E+00 -0.74393191883E+02  0.74393191883E+02  0.00000000000E+00 0.  1.
         23    2    1    2    0    0 -0.52909625240E+01  0.32015991547E+01  0.19496697257E+02  0.96159920042E+02  0.93959376844E+02 0.  0.
         24    2    1    2    0    0 -0.16186835609E+02 -0.15838330074E+02  0.98962860016E+02  0.12981269114E+03  0.80900066569E+02 0.  0.
        -13    1    4    4    0    0 -0.22844375872E+02  0.29078448673E+02  0.31976884693E+02  0.48887041646E+02  0.00000000000E+00 0.  1.
         14    1    4    4    0    0  0.66575402628E+01 -0.44916778747E+02  0.66985975323E+02  0.80925649490E+02  0.00000000000E+00 0. -1.
        -11    1    3    3    0    0  0.42970658024E+02  0.81074214163E+01  0.18919554071E+02  0.47646167309E+02  0.00000000000E+00 0. -1.
         11    1    3    3    0    0 -0.48261620548E+02 -0.49058222616E+01  0.57714318654E+00  0.48513752733E+02  0.00000000000E+00 0.  1.
         21    1    1    2  502  501  0.21477798133E+02  0.12636730919E+02 -0.13113855612E+02  0.28159474249E+02  0.00000000000E+00 0. -1.
<scales pt_clust_5="13000.00000" pt_clust_6="13000.00000" pt_clust_7="13000.00000" pt_clust_8="13000.00000" pt_clust_9="24.91953"></scales>
<clustering>
<clus scale="   24.920">  2  9  1 -1</clus>
<clus scale="   80.900">  5  6 -1 -1</clus>
<clus scale="   82.428">  1  5  2 -1</clus>
<clus scale="   93.959">  7  8 -1 -1</clus>
<clus scale="   82.428">  1  5  2 -1</clus>
</clustering>
</event>
<event>
 9    2  0.2869112E-005  0.9995828E+02  0.7546771E-02  0.1284760E+00
          2   -1    0    0  502    0  0.00000000000E+00  0.00000000000E+00  0.24985289417E+03  0.24985289417E+03  0.00000000000E+00 0. -1.
         -1   -1    0    0    0  501 -0.00000000000E+00 -0.00000000000E+00 -0.24363551870E+03  0.24363551870E+03  0.00000000000E+00 0.  1.
         23    2    1    2    0    0 -0.21671210492E+02  0.82651472260E+00 -0.15878701521E+03  0.18428283878E+03  0.90975403160E+02 0.  0.
         24    2    1    2    0    0  0.40308514256E+02 -0.13489213255E+02  0.22599163993E+03  0.24418913311E+03  0.82154587286E+02 0.  0.
        -11    1    4    4    0    0  0.28700655509E+02  0.20009417789E+02  0.33429108118E+02  0.48390181819E+02  0.00000000000E+00 0.  1.
         12    1    4    4    0    0  0.11607858746E+02 -0.33498631044E+02  0.19256253181E+03  0.19579895129E+03  0.00000000000E+00 0. -1.
        -11    1    3    3    0    0  0.26719377891E+02  0.13755837708E+02 -0.18423441094E+02  0.35250126350E+02  0.00000000000E+00 0.  1.
         11    1    3    3    0    0 -0.48390588382E+02 -0.12929322985E+02 -0.14036357411E+03  0.14903271243E+03  0.00000000000E+00 0. -1.
         21    1    1    2  502  501 -0.18637303764E+02  0.12662698532E+02 -0.60987249259E+02  0.65016440981E+02  0.00000000000E+00 0. -1.
<scales pt_clust_5="13000.00000" pt_clust_6="13000.00000" pt_clust_7="13000.00000" pt_clust_8="13000.00000" pt_clust_9="22.53204"></scales>
<clustering>
<clus scale="   22.532">  2  9  1 -1</clus>
<clus scale="   82.155">  5  6 -1 -1</clus>
<clus scale="   90.975">  7  8 -1 -1</clus>
<clus scale="   92.003">  1  5  2 -1</clus>
<clus scale="   92.003">  1  5  2 -1</clus>
</clustering>
</event>
<event>
 9    2  0.2869112E-005  0.9374733E+02  0.7546771E-02  0.1300319E+00
         -1   -1    0    0    0  501 -0.00000000000E+00  0.00000000000E+00  0.28900974678E+02  0.28900974678E+02  0.00000000000E+00 0.  1.
          2   -1    0    0  502    0  0.00000000000E+00 -0.00000000000E+00 -0.10295019378E+04  0.10295019378E+04  0.00000000000E+00 0. -1.
         23    2    1    2    0    0 -0.14103591421E+02 -0.59279379865E+01 -0.83093898275E+02  0.12464487668E+03  0.91638952484E+02 0.  0.
         24    2    1    2    0    0  0.73291000972E+01 -0.20390986561E+02 -0.89369630147E+03  0.89762588980E+03  0.81053382009E+02 0.  0.
        -13    1    4    4    0    0 -0.47860167313E+01  0.22504693836E+02 -0.97303939370E+02  0.99987118259E+02  0.00000000000E+00 0.  1.
         14    1    4    4    0    0  0.12115116828E+02 -0.42895680397E+02 -0.79639236210E+03  0.79763877154E+03  0.00000000000E+00 0. -1.
        -11    1    3    3    0    0  0.12047935932E+02 -0.34419962713E+02 -0.41070058661E+01  0.36698148326E+02  0.00000000000E+00 0.  1.
         11    1    3    3    0    0 -0.26151527353E+02  0.28492024726E+02 -0.78986892409E+02  0.87946728355E+02  0.00000000000E+00 0. -1.
         21    1    1    2  502  501  0.67744913237E+01  0.26318924547E+02 -0.23810763386E+02  0.36132146006E+02  0.00000000000E+00 0. -1.
<scales pt_clust_5="13000.00000" pt_clust_6="13000.00000" pt_clust_7="13000.00000" pt_clust_8="13000.00000" pt_clust_9="27.17682"></scales>
<clustering>
<clus scale="   27.177">  1  9  2 -1</clus>
<clus scale="   81.053">  5  6 -1 -1</clus>
<clus scale="   83.430">  2  5  1 -1</clus>
<clus scale="   91.639">  7  8 -1 -1</clus>
<clus scale="   83.430">  2  5  1 -1</clus>
</clustering>
</event>
<event>
 9    2  0.2869112E-005  0.1039570E+03  0.7546771E-02  0.1276048E+00
         -1   -1    0    0    0  501 -0.00000000000E+00  0.00000000000E+00  0.39636745144E+02  0.39636745144E+02  0.00000000000E+00 0.  1.
          2   -1    0    0  502    0  0.00000000000E+00 -0.00000000000E+00 -0.63844234957E+03  0.63844234957E+03  0.00000000000E+00 0. -1.
         23    2    1    2    0    0 -0.55421689624E+01  0.40439232257E+02 -0.63972807789E+02  0.12035505242E+03  0.93417189882E+02 0.  0.
         24    2    1    2    0    0 -0.22149220141E+01 -0.21394874372E+02 -0.52473719826E+03  0.53481594036E+03  0.10107579476E+03 0.  0.
        -11    1    4    4    0    0 -0.50737285080E+02 -0.15145393606E+02 -0.22759226120E+03  0.23367047825E+03  0.00000000000E+00 0.  1.
         12    1    4    4    0    0  0.48522363066E+02 -0.62494807659E+01 -0.29714493706E+03  0.30114546211E+03  0.00000000000E+00 0. -1.
        -13    1    3    3    0    0 -0.37501478731E+01  0.19805783892E+02 -0.87046183848E+02  0.89349710727E+02  0.00000000000E+00 0. -1.
         13    1    3    3    0    0 -0.17920210893E+01  0.20633448365E+02  0.23073376059E+02  0.31005341697E+02  0.00000000000E+00 0.  1.
         21    1    1    2  502  501  0.77570909765E+01 -0.19044357885E+02 -0.10095598373E+02  0.22908101933E+02  0.00000000000E+00 0. -1.
<scales pt_clust_5="13000.00000" pt_clust_6="13000.00000" pt_clust_7="13000.00000" pt_clust_8="13000.00000" pt_clust_9="20.56356"></scales>
<clustering>
<clus scale="   20.564">  1  9  2 -1</clus>
<clus scale="   93.417">  7  8 -1 -1</clus>
<clus scale="   96.527">  1  7  2 -1</clus>
<clus scale="  101.076">  5  6 -1 -1</clus>
<clus scale="  103.957">  2  5  1 -1</clus>
</clustering>
</event>
<event>
 9    2  0.2869112E-005  0.1444300E+03  0.7546771E-02  0.1209612E+00
         -1   -1    0    0    0  501 -0.00000000000E+00  0.00000000000E+00  0.40247794361E+03  0.40247794361E+03  0.00000000000E+00 0.  1.
          2   -1    0    0  502    0  0.00000000000E+00 -0.00000000000E+00 -0.98331598442E+02  0.98331598442E+02  0.00000000000E+00 0. -1.
         23    2    1    2    0    0  0.90348597021E+02  0.12220707068E+02  0.23150875165E+03  0.26484842671E+03  0.90753360128E+02 0.  0.
         24    2    1    2    0    0 -0.11602101189E+03 -0.20459427796E+02 -0.15931196835E+02  0.14337936753E+03  0.80152209032E+02 0.  0.
        -11    1    4    4    0    0 -0.15362012721E+02  0.20994436474E+02  0.15232170406E+02  0.30145925313E+02  0.00000000000E+00 0.  1.
         12    1    4    4    0    0 -0.10065899917E+03 -0.41453864270E+02 -0.31163367241E+02  0.11323344221E+03  0.00000000000E+00 0. -1.
        -13    1    3    3    0    0  0.14631295321E+01  0.24342086445E+02  0.10926086381E+02  0.26721850313E+02  0.00000000000E+00 0. -1.
         13    1    3    3    0    0  0.88885467489E+02 -0.12121379377E+02  0.22058266527E+03  0.23812657640E+03  0.00000000000E+00 0.  1.
         21    1    1    2  502  501  0.25672414872E+02  0.82387207271E+01  0.88568790347E+02  0.92581747813E+02  0.00000000000E+00 0. -1.
<scales pt_clust_5="13000.00000" pt_clust_6="13000.00000" pt_clust_7="13000.00000" pt_clust_8="13000.00000" pt_clust_9="26.96200"></scales>
<clustering>
<clus scale="   26.962">  1  9  2 -1</clus>
<clus scale="   80.152">  5  6 -1 -1</clus>
<clus scale="   90.753">  7  8 -1 -1</clus>
<clus scale="  138.015">  2  5  1 -1</clus>
<clus scale="  138.015">  2  5  1 -1</clus>
</clustering>
</event>
<event>
 9    2  0.2869112E-005  0.1322575E+03  0.7546771E-02  0.1233405E+00
          2   -1    0    0  502    0  0.00000000000E+00  0.00000000000E+00  0.93085037212E+03  0.93085037212E+03  0.00000000000E+00 0. -1.
         -1   -1    0    0    0  501 -0.00000000000E+00 -0.00000000000E+00 -0.94682866910E+02  0.94682866910E+02  0.00000000000E+00 0.  1.
         23    2    1    2    0    0 -0.42651956662E+02  0.41711043018E+02 -0.39065247994E+02  0.11597186263E+03  0.91456977883E+02 0.  0.
         24    2    1    2    0    0  0.86276878845E+02  0.61392529995E+02  0.39993872942E+03  0.42126035280E+03  0.79350834855E+02 0.  0.
        -11    1    4    4    0    0  0.12366342984E+01  0.45349161756E+02  0.15380795056E+03  0.16035885193E+03  0.00000000000E+00 0.  1.
         12    1    4    4    0    0  0.85040244547E+02  0.16043368240E+02  0.24613077886E+03  0.26090150087E+03  0.00000000000E+00 0. -1.
        -13    1    3    3    0    0  0.66172860910E+01  0.49265526090E+02  0.43128843884E+01  0.49894704206E+02  0.00000000000E+00 0. -1.
         13    1    3    3    0    0 -0.49269242753E+02 -0.75544830712E+01 -0.43378132382E+02  0.66077158420E+02  0.00000000000E+00 0.  1.
         21    1    1    2  502  501 -0.43624922184E+02 -0.10310357301E+03  0.47529402379E+03  0.48830102360E+03  0.00000000000E+00 0. -1.
<scales pt_clust_5="13000.00000" pt_clust_6="13000.00000" pt_clust_7="13000.00000" pt_clust_8="13000.00000" pt_clust_9="105.80881"></scales>
<clustering>
<clus scale="   79.351">  5  6 -1 -1</clus>
<clus scale="   91.457">  7  8 -1 -1</clus>
<clus scale="  109.194">  2  7  1 -1</clus>
<clus scale="  105.809">  1  9  2 -1</clus>
<clus scale="  105.809">  1  5  2 -1</clus>
</clustering>
</event>
<event>
 9    2  0.2869112E-005  0.9433493E+02  0.7546771E-02  0.1293636E+00
         -1   -1    0    0    0  501 -0.00000000000E+00  0.00000000000E+00  0.13622571946E+03  0.13622571946E+03  0.00000000000E+00 0.  1.
          2   -1    0    0  502    0  0.00000000000E+00 -0.00000000000E+00 -0.31091593587E+03  0.31091593587E+03  0.00000000000E+00 0. -1.
         23    2    1    2    0    0 -0.26207090567E+02  0.52932482858E+01  0.87891703922E+02  0.12709754020E+03  0.87829397317E+02 0.  0.
         24    2    1    2    0    0  0.58108464294E+02 -0.41622988890E+02 -0.24147240462E+03  0.26728845807E+03  0.89583094382E+02 0.  0.
        -13    1    4    4    0    0 -0.16855620804E+02 -0.34561914311E+02 -0.97646353087E+02  0.10494497675E+03  0.00000000000E+00 0.  1.
         14    1    4    4    0    0  0.74964085098E+02 -0.70610745785E+01 -0.14382605153E+03  0.16234348132E+03  0.00000000000E+00 0. -1.
        -13    1    3    3    0    0 -0.12020439678E+02 -0.39484768642E+02  0.23825817555E+02  0.47657187359E+02  0.00000000000E+00 0. -1.
         13    1    3    3    0    0 -0.14186650889E+02  0.44778016928E+02  0.64065886367E+02  0.79440352841E+02  0.00000000000E+00 0.  1.
         21    1    1    2  502  501 -0.31901373727E+02  0.36329740604E+02 -0.21109515710E+02  0.52755657057E+02  0.00000000000E+00 0.  1.
<scales pt_clust_5="13000.00000" pt_clust_6="13000.00000" pt_clust_7="13000.00000" pt_clust_8="13000.00000" pt_clust_9="48.34819"></scales>
<clustering>
<clus scale="   48.348">  2  9  1 -1</clus>
<clus scale="   87.829">  7  8 -1 -1</clus>
<clus scale="   89.583">  5  6 -1 -1</clus>
<clus scale="   92.671">  1  7  2 -1</clus>
<clus scale="   48.348">  2  5  1 -1</clus>
</clustering>
</event>
<event>
 9    2  0.2869112E-005  0.1188517E+03  0.7546771E-02  0.1245285E+00
          2   -1    0    0  502    0  0.00000000000E+00  0.00000000000E+00  0.82065695799E+03  0.82065695799E+03  0.00000000000E+00 0. -1.
         -1   -1    0    0    0  501 -0.00000000000E+00 -0.00000000000E+00 -0.30015246727E+02  0.30015246727E+02  0.00000000000E+00 0.  1.
         23    2    1    2    0    0 -0.31725036265E+02  0.86226673570E+02  0.13939568112E+03  0.18576563173E+03  0.81462855685E+02 0.  0.
         24    2    1    2    0    0  0.10281808982E+02 -0.69519936308E+02  0.52692449079E+03  0.53764789072E+03  0.80480421574E+02 0.  0.
        -11    1    4    4    0    0 -0.24076027667E+02 -0.22599731453E+01  0.60598950874E+02  0.65245654521E+02  0.00000000000E+00 0.  1.
         12    1    4    4    0    0  0.34357836649E+02 -0.67259963163E+02  0.46632553992E+03  0.47240223620E+03  0.00000000000E+00 0. -1.
        -13    1    3    3    0    0 -0.16000685230E+02  0.32207391753E+02  0.12152449920E+03  0.12673413872E+03  0.00000000000E+00 0. -1.
         13    1    3    3    0    0 -0.15724351035E+02  0.54019281817E+02  0.17871181916E+02  0.59031493006E+02  0.00000000000E+00 0.  1.
         21    1    1    2  502  501  0.21443227283E+02 -0.16706737262E+02  0.12432153935E+03  0.12725868227E+03  0.00000000000E+00 0. -1.
<scales pt_clust_5="13000.00000" pt_clust_6="13000.00000" pt_clust_7="13000.00000" pt_clust_8="13000.00000" pt_clust_9="27.18321"></scales>
<clustering>
<clus scale="   27.183">  1  9  2 -1</clus>
<clus scale="   80.480">  5  6 -1 -1</clus>
<clus scale="   81.463">  7  8 -1 -1</clus>
<clus scale="  118.180">  1  5  2 -1</clus>
<clus scale="   27.183">  1  5  2 -1</clus>
</clustering>
</event>
<event>
 9    2  0.2869112E-005  0.1219366E+03  0.7546771E-02  0.1242726E+00
          2   -1    0    0  502    0  0.00000000000E+00  0.00000000000E+00  0.82451931386E+03  0.82451931386E+03  0.00000000000E+00 0. -1.
         -1   -1    0    0    0  501 -0.00000000000E+00 -0.00000000000E+00 -0.45761493721E+03  0.45761493721E+03  0.00000000000E+00 0.  1.
         23    2    1    2    0    0 -0.81761430496E+02  0.12742862269E+02 -0.42172001789E+03  0.43916107389E+03  0.90373465565E+02 0.  0.
         24    2    1    2    0    0 -0.26522280267E+00 -0.46926191646E+02  0.73117842270E+03  0.73715771735E+03  0.81101643753E+02 0.  0.
        -13    1    4    4    0    0 -0.22768887453E+02  0.25188631258E+01  0.67937949787E+02  0.71696108183E+02  0.00000000000E+00 0.  1.
         14    1    4    4    0    0  0.22503664650E+02 -0.49445054771E+02  0.66324047291E+03  0.66546160916E+03  0.00000000000E+00 0. -1.
        -11    1    3    3    0    0  0.10398582135E+02  0.18809823751E+02 -0.31323704309E+02  0.37988345997E+02  0.00000000000E+00 0. -1.
         11    1    3    3    0    0 -0.92160012632E+02 -0.60669614816E+01 -0.39039631358E+03  0.40117272789E+03  0.00000000000E+00 0.  1.
         21    1    1    2  502  501  0.82026653299E+02  0.34183329376E+02  0.57445971841E+02  0.10581545983E+03  0.00000000000E+00 0. -1.
<scales pt_clust_5="13000.00000" pt_clust_6="13000.00000" pt_clust_7="13000.00000" pt_clust_8="13000.00000" pt_clust_9="88.86435"></scales>
<clustering>
<clus scale="   81.102">  5  6 -1 -1</clus>
<clus scale="   88.864">  1  9  2 -1</clus>
<clus scale="   90.373">  7  8 -1 -1</clus>
<clus scale="  115.233">  1  5  2 -1</clus>
<clus scale="   88.864">  1  5  2 -1</clus>
</clustering>
</event>
<event>
 9    2  0.2869112E-005  0.9941060E+02  0.7546771E-02  0.1291802E+00
         -1   -1    0    0    0  501 -0.00000000000E+00  0.00000000000E+00  0.20009919248E+03  0.20009919248E+03  0.00000000000E+00 0.  1.
          2   -1    0    0  502    0  0.00000000000E+00 -0.00000000000E+00 -0.92043890430E+02  0.92043890430E+02  0.00000000000E+00 0. -1.
         23    2    1    2    0    0  0.42906105173E+02 -0.16804356712E+02  0.69091880060E+02  0.12482444638E+03  0.93188702422E+02 0.  0.
         24    2    1    2    0    0 -0.32207742561E+02 -0.55152067503E+00 -0.36749510865E+02  0.88908626680E+02  0.74273646022E+02 0.  0.
        -11    1    4    4    0    0 -0.43860242081E+02 -0.14785516862E+02  0.16666482768E+01  0.46315332891E+02  0.00000000000E+00 0.  1.
         12    1    4    4    0    0  0.11652499521E+02  0.14233996187E+02 -0.38416159142E+02  0.42593293789E+02  0.00000000000E+00 0. -1.
        -11    1    3    3    0    0  0.22599110894E+02 -0.35580877829E+02  0.83576105155E+02  0.93603867618E+02  0.00000000000E+00 0.  1.
         11    1    3    3    0    0  0.20306994278E+02  0.18776521117E+02 -0.14484225094E+02  0.31220578766E+02  0.00000000000E+00 0. -1.
         21    1    1    2  502  501 -0.10698362612E+02  0.17355877387E+02  0.75712932851E+02  0.78410009842E+02  0.00000000000E+00 0.  1.
<scales pt_clust_5="13000.00000" pt_clust_6="13000.00000" pt_clust_7="13000.00000" pt_clust_8="13000.00000" pt_clust_9="20.38827"></scales>
<clustering>
<clus scale="   20.388">  1  9  2 -1</clus>
<clus scale="   74.274">  5  6 -1 -1</clus>
<clus scale="   81.945">  2  5  1 -1</clus>
<clus scale="   93.189">  7  8 -1 -1</clus>
<clus scale="   81.945">  2  5  1 -1</clus>
</clustering>
</event>
